### Starting Gaussian ###
 Entering Gaussian System, Link 0=g16
 Initial command:
 /cluster/software/gaussian/gaussian-16-A.03/avx2/g16/l1.exe "/local/scratch/linjian/Gau-8004.inp" -scrdir="/local/scratch/linjian/"
 Entering Link 1 = /cluster/software/gaussian/gaussian-16-A.03/avx2/g16/l1.exe PID=      8005.
  
 Copyright (c) 1988,1990,1992,1993,1995,1998,2003,2009,2016,
            Gaussian, Inc.  All Rights Reserved.
  
 This is part of the Gaussian(R) 16 program.  It is based on
 the Gaussian(R) 09 system (copyright 2009, Gaussian, Inc.),
 the Gaussian(R) 03 system (copyright 2003, Gaussian, Inc.),
 the Gaussian(R) 98 system (copyright 1998, Gaussian, Inc.),
 the Gaussian(R) 94 system (copyright 1995, Gaussian, Inc.),
 the Gaussian 92(TM) system (copyright 1992, Gaussian, Inc.),
 the Gaussian 90(TM) system (copyright 1990, Gaussian, Inc.),
 the Gaussian 88(TM) system (copyright 1988, Gaussian, Inc.),
 the Gaussian 86(TM) system (copyright 1986, Carnegie Mellon
 University), and the Gaussian 82(TM) system (copyright 1983,
 Carnegie Mellon University). Gaussian is a federally registered
 trademark of Gaussian, Inc.
  
 This software contains proprietary and confidential information,
 including trade secrets, belonging to Gaussian, Inc.
  
 This software is provided under written license and may be
 used, copied, transmitted, or stored only in accord with that
 written license.
  
 The following legend is applicable only to US Government
 contracts under FAR:
  
                    RESTRICTED RIGHTS LEGEND
  
 Use, reproduction and disclosure by the US Government is
 subject to restrictions as set forth in subparagraphs (a)
 and (c) of the Commercial Computer Software - Restricted
 Rights clause in FAR 52.227-19.
  
 Gaussian, Inc.
 340 Quinnipiac St., Bldg. 40, Wallingford CT 06492
  
  
 ---------------------------------------------------------------
 Warning -- This program may not be used in any manner that
 competes with the business of Gaussian, Inc. or will provide
 assistance to any competitor of Gaussian, Inc.  The licensee
 of this program is prohibited from giving any competitor of
 Gaussian, Inc. access to this program.  By using this program,
 the user acknowledges that Gaussian, Inc. is engaged in the
 business of creating and licensing software in the field of
 computational chemistry and represents and warrants to the
 licensee that it is not a competitor of Gaussian, Inc. and that
 it will not use this program in any manner prohibited above.
 ---------------------------------------------------------------
  

 Cite this work as:
 Gaussian 16, Revision A.03,
 M. J. Frisch, G. W. Trucks, H. B. Schlegel, G. E. Scuseria, 
 M. A. Robb, J. R. Cheeseman, G. Scalmani, V. Barone, 
 G. A. Petersson, H. Nakatsuji, X. Li, M. Caricato, A. V. Marenich, 
 J. Bloino, B. G. Janesko, R. Gomperts, B. Mennucci, H. P. Hratchian, 
 J. V. Ortiz, A. F. Izmaylov, J. L. Sonnenberg, D. Williams-Young, 
 F. Ding, F. Lipparini, F. Egidi, J. Goings, B. Peng, A. Petrone, 
 T. Henderson, D. Ranasinghe, V. G. Zakrzewski, J. Gao, N. Rega, 
 G. Zheng, W. Liang, M. Hada, M. Ehara, K. Toyota, R. Fukuda, 
 J. Hasegawa, M. Ishida, T. Nakajima, Y. Honda, O. Kitao, H. Nakai, 
 T. Vreven, K. Throssell, J. A. Montgomery, Jr., J. E. Peralta, 
 F. Ogliaro, M. J. Bearpark, J. J. Heyd, E. N. Brothers, K. N. Kudin, 
 V. N. Staroverov, T. A. Keith, R. Kobayashi, J. Normand, 
 K. Raghavachari, A. P. Rendell, J. C. Burant, S. S. Iyengar, 
 J. Tomasi, M. Cossi, J. M. Millam, M. Klene, C. Adamo, R. Cammi, 
 J. W. Ochterski, R. L. Martin, K. Morokuma, O. Farkas, 
 J. B. Foresman, and D. J. Fox, Gaussian, Inc., Wallingford CT, 2016.
 
 ******************************************
 Gaussian 16:  ES64L-G16RevA.03 25-Dec-2016
                28-May-2023 
 ******************************************
 %chk=CCCqCrCqCrCqCrC.chk
 %NProcShared=20
 Will use up to   20 processors via shared memory.
 -----------------------------
 # opt freq b3lyp/6-31g(2df,p)
 -----------------------------
 1/18=20,19=15,26=3,38=1/1,3;
 2/9=110,12=2,17=6,18=5,40=1/2;
 3/5=1,6=6,7=104,11=2,25=1,30=1,71=1,74=-5/1,2,3;
 4//1;
 5/5=2,38=5/2;
 6/7=2,8=2,9=2,10=2,28=1/1;
 7//1,2,3,16;
 1/18=20,19=15,26=3/3(2);
 2/9=110/2;
 99//99;
 2/9=110/2;
 3/5=1,6=6,7=104,11=2,25=1,30=1,71=1,74=-5/1,2,3;
 4/5=5,16=3,69=1/1;
 5/5=2,38=5/2;
 7//1,2,3,16;
 1/18=20,19=15,26=3/3(-5);
 2/9=110/2;
 6/7=2,8=2,9=2,10=2,19=2,28=1/1;
 99/9=1/99;
 -------------------
 Title Card Required
 -------------------
 Symbolic Z-matrix:
 Charge =  0 Multiplicity = 1
 C                     1.17666   0.02788  -0.32231 
 C                     2.796    -0.03657  -0.44832 
 C                     3.47066  -0.10325   0.96622 
 C                     2.4298   -1.08908   1.61995 
 C                     2.95293  -0.67514   2.92424 
 C                     5.2138   -0.26196   1.83189 
 C                     5.3534    1.3515    1.72732 
 C                     5.24905  -1.30432   3.35412 
 C                     6.80731  -0.13552   2.31251 
 H                     0.67366   0.08419  -1.28843 
 H                     0.83915   0.87266   0.30169 
 H                     0.72362  -0.86811   0.13372 
 H                     3.07667   0.87712  -0.97973 
 H                     3.03529  -0.92794  -1.02469 
 H                     3.08814   0.90782   1.28903 
 H                     2.59193  -2.15412   1.35258 
 H                     1.38097  -0.9555    1.87547 
 H                     2.48505  -0.90101   3.81911 
 H                     3.63278  -1.46776   2.57846 
 H                     3.38387   0.33753   3.0021 
 H                     4.77061   1.77444   0.90207 
 H                     6.32847   1.76095   1.40053 
 H                     5.09862   1.79837   2.68254 
 H                     5.54423  -2.31552   3.03151 
 H                     4.37646  -1.54606   3.98013 
 H                     5.77379  -0.91701   4.22898 
 H                     7.31515  -1.09979   2.25227 
 H                     6.84344   0.14977   3.41029 
 H                     7.53838   0.60867   1.99211 
 
 Add virtual bond connecting atoms H25        and H19        Dist= 3.00D+00.
 Add virtual bond connecting atoms C6         and C8         Dist= 3.49D+00.
 Add virtual bond connecting atoms H28        and H26        Dist= 3.25D+00.

 GradGradGradGradGradGradGradGradGradGradGradGradGradGradGradGradGradGrad
 Berny optimization.
 Initialization pass.
                           ----------------------------
                           !    Initial Parameters    !
                           ! (Angstroms and Degrees)  !
 --------------------------                            --------------------------
 ! Name  Definition              Value          Derivative Info.                !
 --------------------------------------------------------------------------------
 ! R1    R(1,2)                  1.6255         estimate D2E/DX2                !
 ! R2    R(1,10)                 1.0907         estimate D2E/DX2                !
 ! R3    R(1,11)                 1.1032         estimate D2E/DX2                !
 ! R4    R(1,12)                 1.1027         estimate D2E/DX2                !
 ! R5    R(2,3)                  1.5686         estimate D2E/DX2                !
 ! R6    R(2,13)                 1.0936         estimate D2E/DX2                !
 ! R7    R(2,14)                 1.0881         estimate D2E/DX2                !
 ! R8    R(3,4)                  1.5756         estimate D2E/DX2                !
 ! R9    R(3,15)                 1.1282         estimate D2E/DX2                !
 ! R10   R(4,5)                  1.465          estimate D2E/DX2                !
 ! R11   R(4,16)                 1.11           estimate D2E/DX2                !
 ! R12   R(4,17)                 1.0877         estimate D2E/DX2                !
 ! R13   R(5,18)                 1.0348         estimate D2E/DX2                !
 ! R14   R(5,19)                 1.1            estimate D2E/DX2                !
 ! R15   R(5,20)                 1.1033         estimate D2E/DX2                !
 ! R16   R(6,7)                  1.6229         estimate D2E/DX2                !
 ! R17   R(6,8)                  1.8452         estimate D2E/DX2                !
 ! R18   R(6,9)                  1.6692         estimate D2E/DX2                !
 ! R19   R(7,21)                 1.0952         estimate D2E/DX2                !
 ! R20   R(7,22)                 1.1069         estimate D2E/DX2                !
 ! R21   R(7,23)                 1.0849         estimate D2E/DX2                !
 ! R22   R(8,24)                 1.1017         estimate D2E/DX2                !
 ! R23   R(8,25)                 1.1008         estimate D2E/DX2                !
 ! R24   R(8,26)                 1.0912         estimate D2E/DX2                !
 ! R25   R(9,27)                 1.0915         estimate D2E/DX2                !
 ! R26   R(9,28)                 1.1348         estimate D2E/DX2                !
 ! R27   R(9,29)                 1.0913         estimate D2E/DX2                !
 ! R28   R(19,25)                1.5887         estimate D2E/DX2                !
 ! R29   R(26,28)                1.7183         estimate D2E/DX2                !
 ! A1    A(2,1,10)             113.1295         estimate D2E/DX2                !
 ! A2    A(2,1,11)             112.2718         estimate D2E/DX2                !
 ! A3    A(2,1,12)             114.1495         estimate D2E/DX2                !
 ! A4    A(10,1,11)            108.6883         estimate D2E/DX2                !
 ! A5    A(10,1,12)            102.6386         estimate D2E/DX2                !
 ! A6    A(11,1,12)            105.2244         estimate D2E/DX2                !
 ! A7    A(1,2,3)              111.1153         estimate D2E/DX2                !
 ! A8    A(1,2,13)             105.0826         estimate D2E/DX2                !
 ! A9    A(1,2,14)             107.0148         estimate D2E/DX2                !
 ! A10   A(3,2,13)             111.3045         estimate D2E/DX2                !
 ! A11   A(3,2,14)             110.3809         estimate D2E/DX2                !
 ! A12   A(13,2,14)            111.7514         estimate D2E/DX2                !
 ! A13   A(2,3,4)               96.6972         estimate D2E/DX2                !
 ! A14   A(2,3,15)              94.2497         estimate D2E/DX2                !
 ! A15   A(4,3,15)             102.5931         estimate D2E/DX2                !
 ! A16   A(3,4,5)               87.5189         estimate D2E/DX2                !
 ! A17   A(3,4,16)             113.8226         estimate D2E/DX2                !
 ! A18   A(3,4,17)             131.1168         estimate D2E/DX2                !
 ! A19   A(5,4,16)             115.6841         estimate D2E/DX2                !
 ! A20   A(5,4,17)              95.7665         estimate D2E/DX2                !
 ! A21   A(16,4,17)            108.3762         estimate D2E/DX2                !
 ! A22   A(4,5,18)             123.1484         estimate D2E/DX2                !
 ! A23   A(4,5,19)              74.7657         estimate D2E/DX2                !
 ! A24   A(4,5,20)             117.4936         estimate D2E/DX2                !
 ! A25   A(18,5,19)            113.2049         estimate D2E/DX2                !
 ! A26   A(18,5,20)            108.4172         estimate D2E/DX2                !
 ! A27   A(19,5,20)            116.2413         estimate D2E/DX2                !
 ! A28   A(7,6,8)              127.8161         estimate D2E/DX2                !
 ! A29   A(7,6,9)               82.0172         estimate D2E/DX2                !
 ! A30   A(8,6,9)               77.7032         estimate D2E/DX2                !
 ! A31   A(6,7,21)             112.7495         estimate D2E/DX2                !
 ! A32   A(6,7,22)             117.553          estimate D2E/DX2                !
 ! A33   A(6,7,23)             109.425          estimate D2E/DX2                !
 ! A34   A(21,7,22)             95.9374         estimate D2E/DX2                !
 ! A35   A(21,7,23)            112.296          estimate D2E/DX2                !
 ! A36   A(22,7,23)            108.3274         estimate D2E/DX2                !
 ! A37   A(6,8,24)             106.3818         estimate D2E/DX2                !
 ! A38   A(6,8,25)             125.3135         estimate D2E/DX2                !
 ! A39   A(6,8,26)             118.0391         estimate D2E/DX2                !
 ! A40   A(24,8,25)            100.2155         estimate D2E/DX2                !
 ! A41   A(24,8,26)            115.5761         estimate D2E/DX2                !
 ! A42   A(25,8,26)             90.1832         estimate D2E/DX2                !
 ! A43   A(6,9,27)             111.1839         estimate D2E/DX2                !
 ! A44   A(6,9,28)             109.1457         estimate D2E/DX2                !
 ! A45   A(6,9,29)             127.3474         estimate D2E/DX2                !
 ! A46   A(27,9,28)            105.1099         estimate D2E/DX2                !
 ! A47   A(27,9,29)            105.9354         estimate D2E/DX2                !
 ! A48   A(28,9,29)             95.2354         estimate D2E/DX2                !
 ! A49   A(5,19,25)             92.7218         estimate D2E/DX2                !
 ! A50   A(8,25,19)             81.8652         estimate D2E/DX2                !
 ! A51   A(8,26,28)             97.9159         estimate D2E/DX2                !
 ! A52   A(9,28,26)            106.5597         estimate D2E/DX2                !
 ! D1    D(10,1,2,3)           179.4866         estimate D2E/DX2                !
 ! D2    D(10,1,2,13)           58.9929         estimate D2E/DX2                !
 ! D3    D(10,1,2,14)          -59.9435         estimate D2E/DX2                !
 ! D4    D(11,1,2,3)            56.0196         estimate D2E/DX2                !
 ! D5    D(11,1,2,13)          -64.474          estimate D2E/DX2                !
 ! D6    D(11,1,2,14)          176.5896         estimate D2E/DX2                !
 ! D7    D(12,1,2,3)           -63.6247         estimate D2E/DX2                !
 ! D8    D(12,1,2,13)          175.8816         estimate D2E/DX2                !
 ! D9    D(12,1,2,14)           56.9452         estimate D2E/DX2                !
 ! D10   D(1,2,3,4)             40.2184         estimate D2E/DX2                !
 ! D11   D(1,2,3,15)           -63.0112         estimate D2E/DX2                !
 ! D12   D(13,2,3,4)           156.9621         estimate D2E/DX2                !
 ! D13   D(13,2,3,15)           53.7324         estimate D2E/DX2                !
 ! D14   D(14,2,3,4)           -78.3429         estimate D2E/DX2                !
 ! D15   D(14,2,3,15)          178.4274         estimate D2E/DX2                !
 ! D16   D(2,3,4,5)           -163.1179         estimate D2E/DX2                !
 ! D17   D(2,3,4,16)            79.8116         estimate D2E/DX2                !
 ! D18   D(2,3,4,17)           -67.6281         estimate D2E/DX2                !
 ! D19   D(15,3,4,5)           -67.2242         estimate D2E/DX2                !
 ! D20   D(15,3,4,16)          175.7053         estimate D2E/DX2                !
 ! D21   D(15,3,4,17)           28.2657         estimate D2E/DX2                !
 ! D22   D(3,4,5,18)           167.8568         estimate D2E/DX2                !
 ! D23   D(3,4,5,19)           -84.0909         estimate D2E/DX2                !
 ! D24   D(3,4,5,20)            27.9253         estimate D2E/DX2                !
 ! D25   D(16,4,5,18)          -76.8172         estimate D2E/DX2                !
 ! D26   D(16,4,5,19)           31.2352         estimate D2E/DX2                !
 ! D27   D(16,4,5,20)          143.2513         estimate D2E/DX2                !
 ! D28   D(17,4,5,18)           36.7712         estimate D2E/DX2                !
 ! D29   D(17,4,5,19)          144.8236         estimate D2E/DX2                !
 ! D30   D(17,4,5,20)         -103.1603         estimate D2E/DX2                !
 ! D31   D(4,5,19,25)         -170.7441         estimate D2E/DX2                !
 ! D32   D(18,5,19,25)         -50.7536         estimate D2E/DX2                !
 ! D33   D(20,5,19,25)          75.7284         estimate D2E/DX2                !
 ! D34   D(8,6,7,21)          -147.2602         estimate D2E/DX2                !
 ! D35   D(8,6,7,22)           102.5399         estimate D2E/DX2                !
 ! D36   D(8,6,7,23)           -21.5207         estimate D2E/DX2                !
 ! D37   D(9,6,7,21)           145.1401         estimate D2E/DX2                !
 ! D38   D(9,6,7,22)            34.9402         estimate D2E/DX2                !
 ! D39   D(9,6,7,23)           -89.1204         estimate D2E/DX2                !
 ! D40   D(7,6,8,24)          -157.0073         estimate D2E/DX2                !
 ! D41   D(7,6,8,25)            87.2211         estimate D2E/DX2                !
 ! D42   D(7,6,8,26)           -25.219          estimate D2E/DX2                !
 ! D43   D(9,6,8,24)           -87.4398         estimate D2E/DX2                !
 ! D44   D(9,6,8,25)           156.7886         estimate D2E/DX2                !
 ! D45   D(9,6,8,26)            44.3485         estimate D2E/DX2                !
 ! D46   D(7,6,9,27)          -163.4059         estimate D2E/DX2                !
 ! D47   D(7,6,9,28)            81.0961         estimate D2E/DX2                !
 ! D48   D(7,6,9,29)           -31.6366         estimate D2E/DX2                !
 ! D49   D(8,6,9,27)            64.9704         estimate D2E/DX2                !
 ! D50   D(8,6,9,28)           -50.5275         estimate D2E/DX2                !
 ! D51   D(8,6,9,29)          -163.2603         estimate D2E/DX2                !
 ! D52   D(6,8,25,19)           32.2952         estimate D2E/DX2                !
 ! D53   D(24,8,25,19)         -86.3156         estimate D2E/DX2                !
 ! D54   D(26,8,25,19)         157.6288         estimate D2E/DX2                !
 ! D55   D(6,8,26,28)          -24.3239         estimate D2E/DX2                !
 ! D56   D(24,8,26,28)         103.2044         estimate D2E/DX2                !
 ! D57   D(25,8,26,28)        -155.3669         estimate D2E/DX2                !
 ! D58   D(6,9,28,26)           48.7027         estimate D2E/DX2                !
 ! D59   D(27,9,28,26)         -70.6351         estimate D2E/DX2                !
 ! D60   D(29,9,28,26)        -178.7134         estimate D2E/DX2                !
 ! D61   D(5,19,25,8)         -121.5345         estimate D2E/DX2                !
 ! D62   D(8,26,28,9)          -14.4499         estimate D2E/DX2                !
 --------------------------------------------------------------------------------
 Trust Radius=3.00D-01 FncErr=1.00D-07 GrdErr=1.00D-06 EigMax=2.50D+02 EigMin=1.00D-04
 Number of steps in this run=    153 maximum allowed number of steps=    174.
 GradGradGradGradGradGradGradGradGradGradGradGradGradGradGradGradGradGrad

                          Input orientation:                          
 ---------------------------------------------------------------------
 Center     Atomic      Atomic             Coordinates (Angstroms)
 Number     Number       Type             X           Y           Z
 ---------------------------------------------------------------------
      1          6           0        1.176660    0.027880   -0.322310
      2          6           0        2.796000   -0.036570   -0.448320
      3          6           0        3.470660   -0.103250    0.966220
      4          6           0        2.429800   -1.089080    1.619950
      5          6           0        2.952930   -0.675140    2.924240
      6          6           0        5.213800   -0.261960    1.831890
      7          6           0        5.353400    1.351500    1.727320
      8          6           0        5.249050   -1.304320    3.354120
      9          6           0        6.807310   -0.135520    2.312510
     10          1           0        0.673660    0.084190   -1.288430
     11          1           0        0.839150    0.872660    0.301690
     12          1           0        0.723620   -0.868110    0.133720
     13          1           0        3.076670    0.877120   -0.979730
     14          1           0        3.035290   -0.927940   -1.024690
     15          1           0        3.088140    0.907820    1.289030
     16          1           0        2.591930   -2.154120    1.352580
     17          1           0        1.380970   -0.955500    1.875470
     18          1           0        2.485050   -0.901010    3.819110
     19          1           0        3.632780   -1.467760    2.578460
     20          1           0        3.383870    0.337530    3.002100
     21          1           0        4.770610    1.774440    0.902070
     22          1           0        6.328470    1.760950    1.400530
     23          1           0        5.098620    1.798370    2.682540
     24          1           0        5.544230   -2.315520    3.031510
     25          1           0        4.376460   -1.546060    3.980130
     26          1           0        5.773790   -0.917010    4.228980
     27          1           0        7.315150   -1.099790    2.252270
     28          1           0        6.843440    0.149770    3.410290
     29          1           0        7.538380    0.608670    1.992110
 ---------------------------------------------------------------------
                    Distance matrix (angstroms):
                    1          2          3          4          5
     1  C    0.000000
     2  C    1.625514   0.000000
     3  C    2.634377   1.568609   0.000000
     4  C    2.567164   2.349387   1.575631   0.000000
     5  C    3.766890   3.436067   2.104506   1.464986   0.000000
     6  C    4.585094   3.331053   1.952719   2.911993   2.544696
     7  C    4.837159   3.633241   2.498055   3.809908   3.361866
     8  C    5.645817   4.699276   3.210499   3.316903   2.419263
     9  C    6.218778   4.870583   3.598162   4.533377   3.939752
    10  H    1.090673   2.285759   3.597470   3.594338   4.849561
    11  H    1.103151   2.284398   2.884241   2.848930   3.706956
    12  H    1.102727   2.307594   2.970572   2.273490   3.576879
    13  H    2.182532   1.093619   2.214289   3.323059   4.203071
    14  H    2.204866   1.088119   2.198496   2.717849   3.957871
    15  H    2.650371   1.998901   1.128180   2.128504   2.279903
    16  H    3.093440   2.787275   2.264400   1.109992   2.188108
    17  H    2.416406   2.871714   2.433078   1.087740   1.910387
    18  H    4.441405   4.365192   3.121991   2.207879   1.034757
    19  H    4.084597   3.451073   2.118369   1.584077   1.100003
    20  H    4.002419   3.520077   2.084857   2.203589   1.103300
    21  H    4.179241   3.000399   2.284667   3.767558   3.659723
    22  H    5.702005   4.373519   3.439614   4.834299   4.432888
    23  H    5.248383   4.297831   3.035155   4.072968   3.283391
    24  H    5.984589   4.985539   3.668686   3.632675   3.068744
    25  H    5.588112   4.938379   3.462055   3.093342   1.974802
    26  H    6.537634   5.614227   4.075809   4.244869   3.117387
    27  H    6.751382   5.370879   4.174580   4.926113   4.434054
    28  H    6.786719   5.595120   4.172906   4.921411   4.006593
    29  H    6.794508   5.372355   4.255071   5.396151   4.852153
                    6          7          8          9         10
     6  C    0.000000
     7  C    1.622861   0.000000
     8  C    1.845248   3.116207   0.000000
     9  C    1.669208   2.160447   2.208895   0.000000
    10  H    5.519881   5.709710   6.664490   7.115947   0.000000
    11  H    4.771419   4.758168   5.788246   6.377990   1.782569
    12  H    4.838689   5.375974   5.571425   6.503468   1.712274
    13  H    3.710800   3.568845   5.316030   5.077594   2.549214
    14  H    3.653695   4.259465   4.921013   5.098330   2.582879
    15  H    2.486265   2.349543   3.718560   3.996035   3.626483
    16  H    3.268671   4.478339   3.433454   4.771335   3.957869
    17  H    3.895315   4.596129   4.155734   5.505319   3.404630
    18  H    3.435623   4.204381   2.831708   4.640878   5.508059
    19  H    2.123898   3.410748   1.800192   3.453004   5.110556
    20  H    2.253314   2.555826   2.509678   3.524096   5.081148
    21  H    2.282084   1.095244   3.964873   3.128168   4.943707
    22  H    2.349622   1.106889   3.791773   2.158146   6.482199
    23  H    2.232002   1.084920   3.178102   2.607005   6.187672
    24  H    2.401121   3.896712   1.101696   2.620063   6.938511
    25  H    2.639126   3.798081   1.100791   3.267967   6.642753
    26  H    2.547297   3.403112   1.091211   2.313384   7.579943
    27  H    2.300946   3.183215   2.350463   1.091488   7.618908
    28  H    2.305774   2.548875   2.158614   1.134820   7.755544
    29  H    2.487436   2.322939   3.279578   1.091301   7.626362
                   11         12         13         14         15
    11  H    0.000000
    12  H    1.752667   0.000000
    13  H    2.578479   3.134078   0.000000
    14  H    3.134402   2.586370   1.806094   0.000000
    15  H    2.456427   3.174842   2.268997   2.953999   0.000000
    16  H    3.652123   2.574883   3.855264   2.711365   3.102538
    17  H    2.472351   1.863716   3.792896   3.338931   2.594283
    18  H    4.269325   4.084828   5.151759   4.875027   3.168105
    19  H    4.297164   3.847018   4.297492   3.692031   2.757289
    20  H    3.748890   4.093666   4.029950   4.235323   1.829562
    21  H    4.077995   4.894033   2.686222   3.745210   1.931702
    22  H    5.668257   6.319107   4.125651   4.894574   3.352611
    23  H    4.966736   5.722519   4.283597   5.043179   2.603263
    24  H    6.305092   5.807793   5.689626   4.967184   4.411183
    25  H    5.647450   5.347684   5.671108   5.218145   3.863071
    26  H    6.555700   6.502135   6.133842   5.924572   4.380186
    27  H    7.045133   6.927496   5.684955   5.393070   4.777650
    28  H    6.799813   7.015995   5.830083   5.944116   4.379117
    29  H    6.914253   7.216332   5.367565   5.633833   4.515357
                   16         17         18         19         20
    16  H    0.000000
    17  H    1.782282   0.000000
    18  H    2.768660   2.236001   0.000000
    19  H    1.748497   2.413970   1.782611   0.000000
    20  H    3.091344   2.636822   1.734752   1.870962   0.000000
    21  H    4.514775   4.459791   4.570661   3.823193   2.897910
    22  H    5.412190   5.664135   5.263785   4.367932   3.641678
    23  H    4.865641   4.696390   3.925454   3.581498   2.275201
    24  H    3.400137   4.529770   3.461175   2.139531   3.421505
    25  H    3.233930   3.708277   2.004856   1.588669   2.343009
    26  H    4.464118   4.983709   3.314221   2.758888   2.964932
    27  H    4.922384   5.947881   5.081768   3.715057   4.252422
    28  H    5.255228   5.780646   4.501870   3.690079   3.488624
    29  H    5.701699   6.354048   5.581506   4.461959   4.284104
                   21         22         23         24         25
    21  H    0.000000
    22  H    1.635718   0.000000
    23  H    1.810590   1.776930   0.000000
    24  H    4.675551   4.460127   4.152642   0.000000
    25  H    4.544835   4.626121   3.659299   1.689863   0.000000
    26  H    4.395293   3.934370   3.196970   1.855387   1.552469
    27  H    4.069266   3.143697   3.673890   2.285032   3.438104
    28  H    3.636942   2.626829   2.508366   2.812308   3.047384
    29  H    3.194958   1.772455   2.800805   3.688885   4.311940
                   26         27         28         29
    26  H    0.000000
    27  H    2.513281   0.000000
    28  H    1.718262   1.767745   0.000000
    29  H    3.231883   1.742513   1.644617   0.000000
 Stoichiometry    C9H20
 Framework group  C1[X(C9H20)]
 Deg. of freedom    81
 Full point group                 C1      NOp   1
 Largest Abelian subgroup         C1      NOp   1
 Largest concise Abelian subgroup C1      NOp   1
                         Standard orientation:                         
 ---------------------------------------------------------------------
 Center     Atomic      Atomic             Coordinates (Angstroms)
 Number     Number       Type             X           Y           Z
 ---------------------------------------------------------------------
      1          6           0        3.358245   -0.331944    0.049061
      2          6           0        2.036599   -1.022413   -0.598085
      3          6           0        0.727919   -0.318053   -0.096317
      4          6           0        1.277569    1.157255   -0.159287
      5          6           0        0.157450    1.543614    0.702249
      6          6           0       -1.212406   -0.344637   -0.314355
      7          6           0       -1.271660   -1.496819    0.826978
      8          6           0       -2.033030    1.308006   -0.297309
      9          6           0       -2.824590   -0.746588   -0.474211
     10          1           0        4.288247   -0.802969   -0.271562
     11          1           0        3.328130   -0.323534    1.151769
     12          1           0        3.507080    0.720492   -0.244594
     13          1           0        2.074359   -2.066762   -0.275734
     14          1           0        2.126023   -0.930440   -1.678616
     15          1           0        0.892586   -0.595964    0.984628
     16          1           0        1.272753    1.594319   -1.179598
     17          1           0        2.044101    1.660577    0.425756
     18          1           0        0.094877    2.464454    1.170073
     19          1           0       -0.249080    1.548223   -0.319866
     20          1           0       -0.247825    0.777524    1.384987
     21          1           0       -0.344696   -2.076521    0.892112
     22          1           0       -1.936115   -2.363340    0.645752
     23          1           0       -1.545263   -1.049919    1.776964
     24          1           0       -2.123019    1.621108   -1.349737
     25          1           0       -1.610251    2.223862    0.143378
     26          1           0       -2.932781    1.427715    0.308378
     27          1           0       -3.232023   -0.375649   -1.416416
     28          1           0       -3.421548   -0.219363    0.334177
     29          1           0       -3.282134   -1.724334   -0.314197
 ---------------------------------------------------------------------
 Rotational constants (GHZ):           2.4865531           0.9197337           0.7572924
 Standard basis: 6-31G(2df,p) (6D, 7F)
 There are   379 symmetry adapted cartesian basis functions of A   symmetry.
 There are   352 symmetry adapted basis functions of A   symmetry.
   352 basis functions,   536 primitive gaussians,   379 cartesian basis functions
    37 alpha electrons       37 beta electrons
       nuclear repulsion energy       500.3223919268 Hartrees.
 NAtoms=   29 NActive=   29 NUniq=   29 SFac= 1.00D+00 NAtFMM=   60 NAOKFM=F Big=F
 Integral buffers will be    131072 words long.
 Raffenetti 2 integral format.
 Two-electron integral symmetry is turned on.
 One-electron integrals computed using PRISM.
 PrsmSu:  requested number of processors reduced to:  13 ShMem   1 Linda.
 NBasis=   352 RedAO= T EigKep=  6.90D-04  NBF=   352
 NBsUse=   352 1.00D-06 EigRej= -1.00D+00 NBFU=   352
 ExpMin= 1.61D-01 ExpMax= 3.05D+03 ExpMxC= 4.57D+02 IAcc=3 IRadAn=         5 AccDes= 0.00D+00
 Harris functional with IExCor=  402 and IRadAn=       5 diagonalized for initial guess.
 HarFok:  IExCor=  402 AccDes= 0.00D+00 IRadAn=         5 IDoV= 1 UseB2=F ITyADJ=14
 ICtDFT=  3500011 ScaDFX=  1.000000  1.000000  1.000000  1.000000
 FoFCou: FMM=F IPFlag=           0 FMFlag=      100000 FMFlg1=           0
         NFxFlg=           0 DoJE=T BraDBF=F KetDBF=T FulRan=T
         wScrn=  0.000000 ICntrl=       500 IOpCl=  0 I1Cent=   200000004 NGrid=           0
         NMat0=    1 NMatS0=      1 NMatT0=    0 NMatD0=    1 NMtDS0=    0 NMtDT0=    0
 Petite list used in FoFCou.
 Requested convergence on RMS density matrix=1.00D-08 within 128 cycles.
 Requested convergence on MAX density matrix=1.00D-06.
 Requested convergence on             energy=1.00D-06.
 No special actions if energy rises.
 Integral accuracy reduced to 1.0D-05 until final iterations.
 Initial convergence to 1.0D-05 achieved.  Increase integral accuracy.
 SCF Done:  E(RB3LYP) =  -354.493387390     A.U. after   15 cycles
            NFock= 15  Conv=0.52D-08     -V/T= 2.0076

 **********************************************************************

            Population analysis using the SCF density.

 **********************************************************************

 Orbital symmetries:
       Occupied  (A) (A) (A) (A) (A) (A) (A) (A) (A) (A) (A) (A)
                 (A) (A) (A) (A) (A) (A) (A) (A) (A) (A) (A) (A)
                 (A) (A) (A) (A) (A) (A) (A) (A) (A) (A) (A) (A)
                 (A)
       Virtual   (A) (A) (A) (A) (A) (A) (A) (A) (A) (A) (A) (A)
                 (A) (A) (A) (A) (A) (A) (A) (A) (A) (A) (A) (A)
                 (A) (A) (A) (A) (A) (A) (A) (A) (A) (A) (A) (A)
                 (A) (A) (A) (A) (A) (A) (A) (A) (A) (A) (A) (A)
                 (A) (A) (A) (A) (A) (A) (A) (A) (A) (A) (A) (A)
                 (A) (A) (A) (A) (A) (A) (A) (A) (A) (A) (A) (A)
                 (A) (A) (A) (A) (A) (A) (A) (A) (A) (A) (A) (A)
                 (A) (A) (A) (A) (A) (A) (A) (A) (A) (A) (A) (A)
                 (A) (A) (A) (A) (A) (A) (A) (A) (A) (A) (A) (A)
                 (A) (A) (A) (A) (A) (A) (A) (A) (A) (A) (A) (A)
                 (A) (A) (A) (A) (A) (A) (A) (A) (A) (A) (A) (A)
                 (A) (A) (A) (A) (A) (A) (A) (A) (A) (A) (A) (A)
                 (A) (A) (A) (A) (A) (A) (A) (A) (A) (A) (A) (A)
                 (A) (A) (A) (A) (A) (A) (A) (A) (A) (A) (A) (A)
                 (A) (A) (A) (A) (A) (A) (A) (A) (A) (A) (A) (A)
                 (A) (A) (A) (A) (A) (A) (A) (A) (A) (A) (A) (A)
                 (A) (A) (A) (A) (A) (A) (A) (A) (A) (A) (A) (A)
                 (A) (A) (A) (A) (A) (A) (A) (A) (A) (A) (A) (A)
                 (A) (A) (A) (A) (A) (A) (A) (A) (A) (A) (A) (A)
                 (A) (A) (A) (A) (A) (A) (A) (A) (A) (A) (A) (A)
                 (A) (A) (A) (A) (A) (A) (A) (A) (A) (A) (A) (A)
                 (A) (A) (A) (A) (A) (A) (A) (A) (A) (A) (A) (A)
                 (A) (A) (A) (A) (A) (A) (A) (A) (A) (A) (A) (A)
                 (A) (A) (A) (A) (A) (A) (A) (A) (A) (A) (A) (A)
                 (A) (A) (A) (A) (A) (A) (A) (A) (A) (A) (A) (A)
                 (A) (A) (A) (A) (A) (A) (A) (A) (A) (A) (A) (A)
                 (A) (A) (A)
 The electronic state is 1-A.
 Alpha  occ. eigenvalues --  -10.24091 -10.22764 -10.18752 -10.18437 -10.17575
 Alpha  occ. eigenvalues --  -10.17286 -10.17087 -10.16813 -10.11457  -0.83238
 Alpha  occ. eigenvalues --   -0.77206  -0.74594  -0.69242  -0.65421  -0.64629
 Alpha  occ. eigenvalues --   -0.58177  -0.57573  -0.54133  -0.48650  -0.45042
 Alpha  occ. eigenvalues --   -0.44201  -0.43090  -0.42133  -0.41425  -0.39606
 Alpha  occ. eigenvalues --   -0.38058  -0.37073  -0.36298  -0.36014  -0.35123
 Alpha  occ. eigenvalues --   -0.32831  -0.32061  -0.30040  -0.27812  -0.26911
 Alpha  occ. eigenvalues --   -0.21621  -0.17367
 Alpha virt. eigenvalues --   -0.04952   0.04440   0.07481   0.09265   0.09876
 Alpha virt. eigenvalues --    0.10953   0.13069   0.13518   0.14083   0.15031
 Alpha virt. eigenvalues --    0.15804   0.16551   0.17353   0.17884   0.18506
 Alpha virt. eigenvalues --    0.19503   0.19908   0.20395   0.20845   0.22128
 Alpha virt. eigenvalues --    0.23275   0.24399   0.25580   0.25677   0.27045
 Alpha virt. eigenvalues --    0.28452   0.30137   0.31204   0.45155   0.46940
 Alpha virt. eigenvalues --    0.48158   0.49794   0.50913   0.51973   0.52848
 Alpha virt. eigenvalues --    0.54061   0.54633   0.55463   0.55890   0.56937
 Alpha virt. eigenvalues --    0.58944   0.59837   0.61107   0.62535   0.63441
 Alpha virt. eigenvalues --    0.64147   0.64764   0.66215   0.68698   0.70205
 Alpha virt. eigenvalues --    0.71016   0.71165   0.72803   0.73366   0.74442
 Alpha virt. eigenvalues --    0.74553   0.75728   0.76216   0.76889   0.77033
 Alpha virt. eigenvalues --    0.77660   0.78525   0.79426   0.80514   0.81120
 Alpha virt. eigenvalues --    0.81842   0.82724   0.85218   0.85957   0.86682
 Alpha virt. eigenvalues --    0.87683   0.88864   0.89436   0.90669   0.91735
 Alpha virt. eigenvalues --    0.92894   0.94442   0.97594   0.98685   1.02510
 Alpha virt. eigenvalues --    1.03766   1.06251   1.08873   1.10577   1.14589
 Alpha virt. eigenvalues --    1.16548   1.18260   1.20907   1.22431   1.24897
 Alpha virt. eigenvalues --    1.29157   1.30178   1.32065   1.34720   1.36558
 Alpha virt. eigenvalues --    1.38573   1.39590   1.44498   1.46280   1.49069
 Alpha virt. eigenvalues --    1.49312   1.51203   1.52303   1.53833   1.54050
 Alpha virt. eigenvalues --    1.55351   1.57134   1.57902   1.59407   1.60306
 Alpha virt. eigenvalues --    1.64827   1.65662   1.67651   1.69002   1.70309
 Alpha virt. eigenvalues --    1.71632   1.80147   1.81786   1.82607   1.84249
 Alpha virt. eigenvalues --    1.85365   1.88895   1.90887   1.92686   1.94426
 Alpha virt. eigenvalues --    1.98440   2.00735   2.01635   2.02532   2.05745
 Alpha virt. eigenvalues --    2.07498   2.10437   2.12047   2.15176   2.18839
 Alpha virt. eigenvalues --    2.19882   2.21891   2.24365   2.26636   2.27284
 Alpha virt. eigenvalues --    2.30674   2.31741   2.34352   2.34797   2.36589
 Alpha virt. eigenvalues --    2.38931   2.40117   2.40826   2.45316   2.47373
 Alpha virt. eigenvalues --    2.48282   2.50381   2.52394   2.54191   2.55779
 Alpha virt. eigenvalues --    2.58097   2.60518   2.63037   2.65219   2.68243
 Alpha virt. eigenvalues --    2.69403   2.71888   2.74070   2.75222   2.75976
 Alpha virt. eigenvalues --    2.78168   2.78891   2.80205   2.81058   2.82894
 Alpha virt. eigenvalues --    2.84817   2.86291   2.87928   2.88298   2.89192
 Alpha virt. eigenvalues --    2.89371   2.91589   2.92057   2.92221   2.94185
 Alpha virt. eigenvalues --    2.97325   2.98556   2.99223   3.00526   3.01615
 Alpha virt. eigenvalues --    3.02398   3.03939   3.05274   3.06275   3.08732
 Alpha virt. eigenvalues --    3.09726   3.11887   3.14437   3.14760   3.17289
 Alpha virt. eigenvalues --    3.18733   3.20376   3.23324   3.25096   3.25476
 Alpha virt. eigenvalues --    3.28050   3.30144   3.32565   3.33262   3.35552
 Alpha virt. eigenvalues --    3.36979   3.40727   3.42538   3.43927   3.46997
 Alpha virt. eigenvalues --    3.48944   3.49980   3.51861   3.54600   3.56905
 Alpha virt. eigenvalues --    3.57327   3.59205   3.59559   3.62251   3.66927
 Alpha virt. eigenvalues --    3.67592   3.70331   3.73284   3.73686   3.75382
 Alpha virt. eigenvalues --    3.75569   3.79050   3.79130   3.81212   3.84635
 Alpha virt. eigenvalues --    3.88347   3.89194   3.91164   3.93505   3.94488
 Alpha virt. eigenvalues --    3.95454   4.00068   4.02457   4.03580   4.07053
 Alpha virt. eigenvalues --    4.09782   4.13151   4.18322   4.21854   4.24659
 Alpha virt. eigenvalues --    4.26708   4.28561   4.29895   4.32380   4.35735
 Alpha virt. eigenvalues --    4.36286   4.38734   4.39988   4.43476   4.45146
 Alpha virt. eigenvalues --    4.46130   4.48074   4.50526   4.54692   4.56031
 Alpha virt. eigenvalues --    4.58098   4.59154   4.61786   4.63702   4.64329
 Alpha virt. eigenvalues --    4.66867   4.68345   4.69182   4.70042   4.72163
 Alpha virt. eigenvalues --    4.73179   4.74173   4.76511   4.77891   4.79652
 Alpha virt. eigenvalues --    4.82333   4.82996   4.84932   4.85502   4.86763
 Alpha virt. eigenvalues --    4.87789   4.88644   4.90693   4.93302   4.95493
 Alpha virt. eigenvalues --    4.98187   5.00892   5.04383   5.04823   5.06298
 Alpha virt. eigenvalues --    5.11490   5.13073   5.18219   5.20507   5.23623
 Alpha virt. eigenvalues --    5.27051   5.29152   5.33352   5.43475   5.46497
 Alpha virt. eigenvalues --    5.53065   5.55306   5.70524   5.77467   5.89338
 Alpha virt. eigenvalues --    6.25744  11.03784  11.26232  11.67016  11.70672
 Alpha virt. eigenvalues --   11.83202  11.97604  12.06227  12.17501  12.53199
          Condensed to atoms (all electrons):
               1          2          3          4          5          6
     1  C    5.022095   0.387844  -0.027043  -0.040333   0.003440   0.000957
     2  C    0.387844   5.056270   0.336581  -0.067495   0.005253  -0.015222
     3  C   -0.027043   0.336581   4.914128   0.377877  -0.063562   0.289348
     4  C   -0.040333  -0.067495   0.377877   5.023348   0.327652  -0.011428
     5  C    0.003440   0.005253  -0.063562   0.327652   5.192947  -0.044005
     6  C    0.000957  -0.015222   0.289348  -0.011428  -0.044005   5.017358
     7  C   -0.000063  -0.000133  -0.037438   0.002144  -0.004017   0.351888
     8  C   -0.000021   0.000637  -0.012120   0.005732  -0.127637   0.341119
     9  C    0.000001  -0.000184  -0.010474   0.000227   0.001280   0.321523
    10  H    0.356002  -0.021724   0.002582   0.002914  -0.000150  -0.000010
    11  H    0.375519  -0.028530  -0.003310  -0.000756  -0.000402   0.000001
    12  H    0.383320  -0.024798  -0.003706  -0.002120  -0.000904  -0.000014
    13  H   -0.042293   0.349285  -0.023086   0.007726  -0.000439   0.000303
    14  H   -0.034198   0.354755  -0.021337  -0.003317   0.000396  -0.000548
    15  H   -0.001819  -0.069079   0.391666  -0.053064  -0.015224  -0.024576
    16  H    0.001106   0.003289  -0.029169   0.382814  -0.034324  -0.001148
    17  H   -0.015336  -0.012275  -0.001248   0.378814  -0.074811   0.001083
    18  H    0.000008  -0.000896   0.011271  -0.035063   0.356340   0.002518
    19  H   -0.000041  -0.001261  -0.016123  -0.065401   0.438401  -0.028232
    20  H   -0.000047   0.004170  -0.038866  -0.018835   0.420263  -0.016283
    21  H   -0.000209   0.003841  -0.026416   0.001300  -0.000024  -0.028944
    22  H    0.000002  -0.000087   0.002943  -0.000128   0.000126  -0.023134
    23  H    0.000013   0.000024   0.000966  -0.000171  -0.000494  -0.038670
    24  H   -0.000000  -0.000012   0.000125  -0.001461   0.003415  -0.024185
    25  H    0.000002  -0.000095   0.001782   0.001066  -0.069012  -0.012927
    26  H    0.000000  -0.000007   0.000333  -0.000294   0.016163  -0.030186
    27  H   -0.000000   0.000001   0.000143  -0.000029   0.000119  -0.024650
    28  H    0.000000  -0.000006   0.000801  -0.000054   0.000391  -0.021545
    29  H   -0.000000   0.000006  -0.000119   0.000004  -0.000032  -0.020095
               7          8          9         10         11         12
     1  C   -0.000063  -0.000021   0.000001   0.356002   0.375519   0.383320
     2  C   -0.000133   0.000637  -0.000184  -0.021724  -0.028530  -0.024798
     3  C   -0.037438  -0.012120  -0.010474   0.002582  -0.003310  -0.003706
     4  C    0.002144   0.005732   0.000227   0.002914  -0.000756  -0.002120
     5  C   -0.004017  -0.127637   0.001280  -0.000150  -0.000402  -0.000904
     6  C    0.351888   0.341119   0.321523  -0.000010   0.000001  -0.000014
     7  C    5.077994  -0.005073  -0.114898   0.000001  -0.000005  -0.000006
     8  C   -0.005073   5.292967  -0.086747   0.000000   0.000000  -0.000005
     9  C   -0.114898  -0.086747   5.198927   0.000000   0.000000   0.000000
    10  H    0.000001   0.000000   0.000000   0.622015  -0.030820  -0.035553
    11  H   -0.000005   0.000000   0.000000  -0.030820   0.598390  -0.036332
    12  H   -0.000006  -0.000005   0.000000  -0.035553  -0.036332   0.586705
    13  H    0.000253  -0.000008   0.000017   0.000503  -0.001932   0.004129
    14  H   -0.000012   0.000002   0.000025  -0.001189   0.004297  -0.002704
    15  H   -0.011523  -0.000180   0.001638  -0.000326   0.006758  -0.000033
    16  H   -0.000078   0.002125  -0.000004  -0.000373   0.000297   0.001186
    17  H   -0.000081  -0.000732   0.000002   0.001641   0.002152  -0.002235
    18  H    0.000220  -0.004478  -0.000150  -0.000000   0.000035   0.000024
    19  H   -0.000444  -0.068656   0.001954   0.000010   0.000008   0.000165
    20  H   -0.000882  -0.003927   0.001271   0.000001  -0.000021   0.000014
    21  H    0.360209   0.000909   0.007867   0.000003  -0.000027   0.000006
    22  H    0.397561   0.001877  -0.040388  -0.000000   0.000000   0.000000
    23  H    0.349597  -0.006442   0.015158  -0.000000  -0.000002   0.000000
    24  H    0.001164   0.360270  -0.005391   0.000000  -0.000000   0.000000
    25  H   -0.001274   0.385723   0.006949  -0.000000   0.000000  -0.000001
    26  H   -0.001228   0.351960  -0.020374   0.000000  -0.000000   0.000000
    27  H    0.009812   0.002922   0.342416   0.000000  -0.000000  -0.000000
    28  H   -0.004772  -0.041714   0.404438  -0.000000  -0.000000  -0.000000
    29  H   -0.022103   0.008465   0.363185   0.000000  -0.000000  -0.000000
              13         14         15         16         17         18
     1  C   -0.042293  -0.034198  -0.001819   0.001106  -0.015336   0.000008
     2  C    0.349285   0.354755  -0.069079   0.003289  -0.012275  -0.000896
     3  C   -0.023086  -0.021337   0.391666  -0.029169  -0.001248   0.011271
     4  C    0.007726  -0.003317  -0.053064   0.382814   0.378814  -0.035063
     5  C   -0.000439   0.000396  -0.015224  -0.034324  -0.074811   0.356340
     6  C    0.000303  -0.000548  -0.024576  -0.001148   0.001083   0.002518
     7  C    0.000253  -0.000012  -0.011523  -0.000078  -0.000081   0.000220
     8  C   -0.000008   0.000002  -0.000180   0.002125  -0.000732  -0.004478
     9  C    0.000017   0.000025   0.001638  -0.000004   0.000002  -0.000150
    10  H    0.000503  -0.001189  -0.000326  -0.000373   0.001641  -0.000000
    11  H   -0.001932   0.004297   0.006758   0.000297   0.002152   0.000035
    12  H    0.004129  -0.002704  -0.000033   0.001186  -0.002235   0.000024
    13  H    0.651491  -0.033151  -0.006776  -0.000189   0.000132   0.000018
    14  H   -0.033151   0.622951   0.006898   0.002427   0.000328   0.000021
    15  H   -0.006776   0.006898   0.635585   0.004061  -0.002362   0.001407
    16  H   -0.000189   0.002427   0.004061   0.660985  -0.060469   0.001764
    17  H    0.000132   0.000328  -0.002362  -0.060469   0.660679  -0.007954
    18  H    0.000018   0.000021   0.001407   0.001764  -0.007954   0.715401
    19  H   -0.000013   0.000093   0.003017  -0.033155   0.014815  -0.032256
    20  H   -0.000174  -0.000037  -0.005811   0.004699   0.000428  -0.061077
    21  H    0.003232  -0.000140   0.002038  -0.000005  -0.000029  -0.000030
    22  H   -0.000095   0.000011   0.000347   0.000004   0.000000   0.000003
    23  H   -0.000017  -0.000004   0.002276  -0.000005   0.000038  -0.000151
    24  H    0.000000  -0.000001  -0.000014  -0.000050   0.000033  -0.000117
    25  H    0.000001   0.000004   0.000265   0.001332  -0.000442   0.009617
    26  H    0.000000  -0.000000  -0.000001  -0.000112   0.000039  -0.000491
    27  H   -0.000000  -0.000001  -0.000034  -0.000001  -0.000000   0.000004
    28  H   -0.000000  -0.000000  -0.000044  -0.000003   0.000002  -0.000018
    29  H    0.000000  -0.000000  -0.000002  -0.000000   0.000000   0.000002
              19         20         21         22         23         24
     1  C   -0.000041  -0.000047  -0.000209   0.000002   0.000013  -0.000000
     2  C   -0.001261   0.004170   0.003841  -0.000087   0.000024  -0.000012
     3  C   -0.016123  -0.038866  -0.026416   0.002943   0.000966   0.000125
     4  C   -0.065401  -0.018835   0.001300  -0.000128  -0.000171  -0.001461
     5  C    0.438401   0.420263  -0.000024   0.000126  -0.000494   0.003415
     6  C   -0.028232  -0.016283  -0.028944  -0.023134  -0.038670  -0.024185
     7  C   -0.000444  -0.000882   0.360209   0.397561   0.349597   0.001164
     8  C   -0.068656  -0.003927   0.000909   0.001877  -0.006442   0.360270
     9  C    0.001954   0.001271   0.007867  -0.040388   0.015158  -0.005391
    10  H    0.000010   0.000001   0.000003  -0.000000  -0.000000   0.000000
    11  H    0.000008  -0.000021  -0.000027   0.000000  -0.000002  -0.000000
    12  H    0.000165   0.000014   0.000006   0.000000   0.000000   0.000000
    13  H   -0.000013  -0.000174   0.003232  -0.000095  -0.000017   0.000000
    14  H    0.000093  -0.000037  -0.000140   0.000011  -0.000004  -0.000001
    15  H    0.003017  -0.005811   0.002038   0.000347   0.002276  -0.000014
    16  H   -0.033155   0.004699  -0.000005   0.000004  -0.000005  -0.000050
    17  H    0.014815   0.000428  -0.000029   0.000000   0.000038   0.000033
    18  H   -0.032256  -0.061077  -0.000030   0.000003  -0.000151  -0.000117
    19  H    0.624226  -0.021941  -0.000003  -0.000030   0.000346   0.013932
    20  H   -0.021941   0.630096   0.000343  -0.000273   0.005978   0.000755
    21  H   -0.000003   0.000343   0.643962  -0.056569  -0.019446  -0.000032
    22  H   -0.000030  -0.000273  -0.056569   0.641184  -0.036256  -0.000048
    23  H    0.000346   0.005978  -0.019446  -0.036256   0.606537   0.000018
    24  H    0.013932   0.000755  -0.000032  -0.000048   0.000018   0.587905
    25  H   -0.032040  -0.003756   0.000001  -0.000028   0.000377  -0.043297
    26  H    0.004441   0.000167  -0.000026  -0.000035   0.001746  -0.018722
    27  H   -0.000112  -0.000015  -0.000676   0.002947  -0.000518  -0.000835
    28  H    0.000540   0.000019   0.000205  -0.000153   0.000651   0.002109
    29  H   -0.000043  -0.000031   0.001451  -0.005638   0.000426  -0.000025
              25         26         27         28         29
     1  C    0.000002   0.000000  -0.000000   0.000000  -0.000000
     2  C   -0.000095  -0.000007   0.000001  -0.000006   0.000006
     3  C    0.001782   0.000333   0.000143   0.000801  -0.000119
     4  C    0.001066  -0.000294  -0.000029  -0.000054   0.000004
     5  C   -0.069012   0.016163   0.000119   0.000391  -0.000032
     6  C   -0.012927  -0.030186  -0.024650  -0.021545  -0.020095
     7  C   -0.001274  -0.001228   0.009812  -0.004772  -0.022103
     8  C    0.385723   0.351960   0.002922  -0.041714   0.008465
     9  C    0.006949  -0.020374   0.342416   0.404438   0.363185
    10  H   -0.000000   0.000000   0.000000  -0.000000   0.000000
    11  H    0.000000  -0.000000  -0.000000  -0.000000  -0.000000
    12  H   -0.000001   0.000000  -0.000000  -0.000000  -0.000000
    13  H    0.000001   0.000000  -0.000000  -0.000000   0.000000
    14  H    0.000004  -0.000000  -0.000001  -0.000000  -0.000000
    15  H    0.000265  -0.000001  -0.000034  -0.000044  -0.000002
    16  H    0.001332  -0.000112  -0.000001  -0.000003  -0.000000
    17  H   -0.000442   0.000039  -0.000000   0.000002   0.000000
    18  H    0.009617  -0.000491   0.000004  -0.000018   0.000002
    19  H   -0.032040   0.004441  -0.000112   0.000540  -0.000043
    20  H   -0.003756   0.000167  -0.000015   0.000019  -0.000031
    21  H    0.000001  -0.000026  -0.000676   0.000205   0.001451
    22  H   -0.000028  -0.000035   0.002947  -0.000153  -0.005638
    23  H    0.000377   0.001746  -0.000518   0.000651   0.000426
    24  H   -0.043297  -0.018722  -0.000835   0.002109  -0.000025
    25  H    0.692774  -0.066179  -0.000001   0.002685  -0.000433
    26  H   -0.066179   0.664549  -0.002102  -0.008028   0.001628
    27  H   -0.000001  -0.002102   0.647916  -0.037038  -0.040373
    28  H    0.002685  -0.008028  -0.037038   0.619498  -0.062317
    29  H   -0.000433   0.001628  -0.040373  -0.062317   0.677802
 Mulliken charges:
               1
     1  C   -0.368906
     2  C   -0.260152
     3  C   -0.016527
     4  C   -0.211669
     5  C   -0.331148
     6  C    0.039704
     7  C   -0.346811
     8  C   -0.396971
     9  C   -0.388269
    10  H    0.104474
    11  H    0.114678
    12  H    0.132863
    13  H    0.091084
    14  H    0.104431
    15  H    0.134910
    16  H    0.092995
    17  H    0.117788
    18  H    0.044028
    19  H    0.197805
    20  H    0.103770
    21  H    0.107208
    22  H    0.115858
    23  H    0.118025
    24  H    0.124464
    25  H    0.126905
    26  H    0.106759
    27  H    0.100107
    28  H    0.144352
    29  H    0.098243
 Sum of Mulliken charges =  -0.00000
 Mulliken charges with hydrogens summed into heavy atoms:
               1
     1  C   -0.016890
     2  C   -0.064636
     3  C    0.118384
     4  C   -0.000886
     5  C    0.014455
     6  C    0.039704
     7  C   -0.005721
     8  C   -0.038843
     9  C   -0.045567
 Electronic spatial extent (au):  <R**2>=           1717.1115
 Charge=             -0.0000 electrons
 Dipole moment (field-independent basis, Debye):
    X=              0.1018    Y=              0.2314    Z=              0.4154  Tot=              0.4862
 Quadrupole moment (field-independent basis, Debye-Ang):
   XX=            -60.7912   YY=            -62.0596   ZZ=            -62.1540
   XY=              0.3077   XZ=             -1.1636   YZ=             -1.7793
 Traceless Quadrupole moment (field-independent basis, Debye-Ang):
   XX=              0.8770   YY=             -0.3913   ZZ=             -0.4857
   XY=              0.3077   XZ=             -1.1636   YZ=             -1.7793
 Octapole moment (field-independent basis, Debye-Ang**2):
  XXX=             -2.0452  YYY=             -0.0528  ZZZ=              0.2483  XYY=              0.0931
  XXY=              2.5095  XXZ=              5.2425  XZZ=              1.5859  YZZ=              3.0897
  YYZ=             -0.0635  XYZ=              0.4274
 Hexadecapole moment (field-independent basis, Debye-Ang**3):
 XXXX=          -1594.6484 YYYY=           -567.6997 ZZZZ=           -210.5314 XXXY=              6.4790
 XXXZ=            -20.0102 YYYX=              6.2482 YYYZ=             -4.9154 ZZZX=             -0.9540
 ZZZY=             -3.3179 XXYY=           -360.5892 XXZZ=           -302.7335 YYZZ=           -133.5836
 XXYZ=             -1.2770 YYXZ=             -0.7974 ZZXY=             -3.9859
 N-N= 5.003223919268D+02 E-N=-1.819827270842D+03  KE= 3.518108356988D+02
 PrsmSu:  requested number of processors reduced to:  13 ShMem   1 Linda.
 Calling FoFJK, ICntrl=      2127 FMM=F ISym2X=0 I1Cent= 0 IOpClX= 0 NMat=1 NMatS=1 NMatT=0.
 ***** Axes restored to original set *****
 -------------------------------------------------------------------
 Center     Atomic                   Forces (Hartrees/Bohr)
 Number     Number              X              Y              Z
 -------------------------------------------------------------------
      1        6           0.009334523   -0.006196523    0.001162886
      2        6           0.000089298   -0.000563966   -0.017225323
      3        6          -0.077581344   -0.008834269   -0.055945922
      4        6          -0.014579933    0.022834715    0.025358445
      5        6           0.015109203   -0.038620222    0.014715694
      6        6           0.039679639    0.056811545    0.050026788
      7        6          -0.022365577    0.021389639    0.000313860
      8        6          -0.028778112   -0.008885319    0.030281632
      9        6           0.059396695   -0.036420735   -0.014603038
     10        1           0.008478608    0.009475977   -0.008755345
     11        1           0.004488236   -0.001214506   -0.004334713
     12        1           0.009660710    0.006853246   -0.007010835
     13        1           0.005167866   -0.003365166   -0.007628354
     14        1           0.001581839    0.000306058   -0.008889137
     15        1           0.029376082   -0.019584752    0.006907081
     16        1          -0.000204374    0.007102456    0.001210498
     17        1          -0.012429924    0.010281876   -0.044951355
     18        1          -0.027300564   -0.018666980    0.035497211
     19        1           0.000364176    0.025547820    0.061235164
     20        1          -0.009199489   -0.018894064    0.005694194
     21        1          -0.013832291   -0.001616188    0.008773174
     22        1          -0.005193504   -0.011450450    0.011761272
     23        1          -0.004788330    0.012372658    0.001981923
     24        1           0.013484867    0.010434550   -0.003483199
     25        1           0.007674346    0.000677634   -0.013036596
     26        1           0.024604872    0.001231512   -0.014363796
     27        1           0.004240352   -0.002918998    0.003496696
     28        1          -0.012106864   -0.004196552   -0.029952850
     29        1          -0.004371005   -0.003890996   -0.028236057
 -------------------------------------------------------------------
 Cartesian Forces:  Max     0.077581344 RMS     0.022398244

 GradGradGradGradGradGradGradGradGradGradGradGradGradGradGradGradGradGrad
 Berny optimization.
 FormGI is forming the generalized inverse of G from B-inverse, IUseBI=4.
 Internal  Forces:  Max     0.233985618 RMS     0.039045574
 Search for a local minimum.
 Step number   1 out of a maximum of  153
 All quantities printed in internal units (Hartrees-Bohrs-Radians)
 Mixed Optimization -- RFO/linear search
 Second derivative matrix not updated -- first step.
 ITU=  0
     Eigenvalues ---    0.00230   0.00230   0.00230   0.00230   0.00230
     Eigenvalues ---    0.00230   0.00230   0.00343   0.00714   0.01229
     Eigenvalues ---    0.02003   0.03518   0.03946   0.03982   0.04314
     Eigenvalues ---    0.04360   0.04858   0.04974   0.05069   0.05082
     Eigenvalues ---    0.05352   0.05502   0.05576   0.06226   0.06637
     Eigenvalues ---    0.06825   0.06904   0.07444   0.07480   0.08105
     Eigenvalues ---    0.08651   0.09103   0.09226   0.09558   0.10606
     Eigenvalues ---    0.11519   0.11549   0.12039   0.12463   0.12542
     Eigenvalues ---    0.13556   0.14356   0.15960   0.16000   0.16000
     Eigenvalues ---    0.16000   0.16000   0.16000   0.16000   0.16000
     Eigenvalues ---    0.16000   0.16000   0.18847   0.21022   0.22111
     Eigenvalues ---    0.22122   0.22279   0.24616   0.25582   0.26128
     Eigenvalues ---    0.28021   0.30749   0.32601   0.32932   0.33320
     Eigenvalues ---    0.33336   0.33382   0.33428   0.33495   0.33595
     Eigenvalues ---    0.33682   0.34214   0.34398   0.34641   0.34663
     Eigenvalues ---    0.34735   0.35031   0.35075   0.35406   0.36347
     Eigenvalues ---    0.42065
 RFO step:  Lambda=-4.01458492D-01 EMin= 2.30000000D-03
 Linear search not attempted -- first point.
 Maximum step size (   0.300) exceeded in Quadratic search.
    -- Step size scaled by   0.436
 Iteration  1 RMS(Cart)=  0.17243941 RMS(Int)=  0.01824104
 Iteration  2 RMS(Cart)=  0.17427354 RMS(Int)=  0.00902985
 Iteration  3 RMS(Cart)=  0.02653461 RMS(Int)=  0.00041811
 Iteration  4 RMS(Cart)=  0.00035792 RMS(Int)=  0.00038863
 Iteration  5 RMS(Cart)=  0.00000015 RMS(Int)=  0.00038863
 Variable       Old X    -DE/DX   Delta X   Delta X   Delta X     New X
                                 (Linear)    (Quad)   (Total)
    R1        3.07178  -0.03295   0.00000  -0.02307  -0.02307   3.04870
    R2        2.06107   0.00433   0.00000   0.00252   0.00252   2.06360
    R3        2.08465  -0.00475   0.00000  -0.00282  -0.00282   2.08183
    R4        2.08385  -0.01244   0.00000  -0.00737  -0.00737   2.07648
    R5        2.96424   0.03104   0.00000   0.02042   0.02042   2.98466
    R6        2.06664   0.00222   0.00000   0.00130   0.00130   2.06794
    R7        2.05625   0.00481   0.00000   0.00279   0.00279   2.05903
    R8        2.97751   0.02152   0.00000   0.01427   0.01427   2.99178
    R9        2.13195  -0.02554   0.00000  -0.01570  -0.01570   2.11625
   R10        2.76842   0.11517   0.00000   0.06563   0.06563   2.83405
   R11        2.09758  -0.00714   0.00000  -0.00428  -0.00428   2.09331
   R12        2.05553   0.00269   0.00000   0.00156   0.00156   2.05709
   R13        1.95541   0.04712   0.00000   0.02498   0.02498   1.98039
   R14        2.07870  -0.02690   0.00000  -0.01588  -0.01588   2.06282
   R15        2.08494  -0.02053   0.00000  -0.01218  -0.01218   2.07275
   R16        3.06676   0.01513   0.00000   0.01056   0.01056   3.07733
   R17        3.48701   0.00395   0.00000   0.00217   0.00201   3.48902
   R18        3.15435   0.00652   0.00000   0.00335   0.00352   3.15787
   R19        2.06971   0.00013   0.00000   0.00007   0.00007   2.06979
   R20        2.09172  -0.01228   0.00000  -0.00733  -0.00733   2.08439
   R21        2.05020   0.00796   0.00000   0.00460   0.00460   2.05480
   R22        2.08190  -0.00494   0.00000  -0.00293  -0.00293   2.07898
   R23        2.08019   0.03773   0.00000   0.02230   0.02230   2.10250
   R24        2.06209  -0.00029   0.00000  -0.00037  -0.00041   2.06168
   R25        2.06261   0.00436   0.00000   0.00254   0.00254   2.06515
   R26        2.14450  -0.01864   0.00000  -0.01045  -0.01046   2.13404
   R27        2.06226   0.00271   0.00000   0.00158   0.00158   2.06384
   R28        3.00215   0.02794   0.00000   0.02694   0.02694   3.02909
   R29        3.24704   0.01743   0.00000   0.01948   0.01952   3.26657
    A1        1.97448  -0.01485   0.00000  -0.01181  -0.01183   1.96265
    A2        1.95951  -0.00106   0.00000  -0.00091  -0.00093   1.95858
    A3        1.99228  -0.00231   0.00000  -0.00142  -0.00142   1.99086
    A4        1.89697   0.00473   0.00000   0.00303   0.00300   1.89997
    A5        1.79138   0.01056   0.00000   0.00837   0.00836   1.79974
    A6        1.83651   0.00534   0.00000   0.00465   0.00465   1.84116
    A7        1.93933   0.04818   0.00000   0.03447   0.03446   1.97379
    A8        1.83404  -0.01596   0.00000  -0.01153  -0.01148   1.82256
    A9        1.86776  -0.00947   0.00000  -0.00520  -0.00531   1.86245
   A10        1.94263  -0.01431   0.00000  -0.01067  -0.01061   1.93202
   A11        1.92651  -0.00802   0.00000  -0.00423  -0.00435   1.92216
   A12        1.95043   0.00082   0.00000  -0.00196  -0.00206   1.94837
   A13        1.68768   0.21231   0.00000   0.14433   0.14375   1.83144
   A14        1.64497   0.00103   0.00000   0.01129   0.00974   1.65471
   A15        1.79059   0.00194   0.00000   0.00631   0.00368   1.79426
   A16        1.52749   0.03942   0.00000   0.02981   0.02940   1.55689
   A17        1.98658  -0.03964   0.00000  -0.03470  -0.03461   1.95197
   A18        2.28842   0.01700   0.00000   0.01532   0.01428   2.30270
   A19        2.01907  -0.03584   0.00000  -0.02949  -0.02931   1.98976
   A20        1.67144   0.02402   0.00000   0.02702   0.02657   1.69801
   A21        1.89152   0.00608   0.00000   0.00349   0.00378   1.89531
   A22        2.14935   0.02740   0.00000   0.02235   0.02235   2.17170
   A23        1.30491  -0.02252   0.00000  -0.01810  -0.01849   1.28642
   A24        2.05065  -0.02302   0.00000  -0.01970  -0.01994   2.03071
   A25        1.97580   0.04170   0.00000   0.03662   0.03659   2.01239
   A26        1.89224  -0.00078   0.00000   0.00030   0.00049   1.89273
   A27        2.02879  -0.02693   0.00000  -0.02536  -0.02574   2.00306
   A28        2.23081   0.00643   0.00000   0.00213   0.00139   2.23220
   A29        1.43147   0.02690   0.00000   0.02554   0.02594   1.45741
   A30        1.35618   0.02120   0.00000   0.01860   0.01844   1.37462
   A31        1.96785  -0.00542   0.00000  -0.00417  -0.00416   1.96369
   A32        2.05169  -0.01051   0.00000  -0.00779  -0.00778   2.04391
   A33        1.90983   0.01245   0.00000   0.00926   0.00927   1.91910
   A34        1.67442   0.01438   0.00000   0.01193   0.01194   1.68636
   A35        1.95993  -0.01005   0.00000  -0.00848  -0.00847   1.95146
   A36        1.89067  -0.00229   0.00000  -0.00179  -0.00178   1.88889
   A37        1.85671   0.03543   0.00000   0.02797   0.02787   1.88458
   A38        2.18713  -0.07223   0.00000  -0.05901  -0.05852   2.12861
   A39        2.06017  -0.03402   0.00000  -0.02774  -0.02769   2.03248
   A40        1.74909   0.00393   0.00000   0.00422   0.00452   1.75361
   A41        2.01718  -0.01612   0.00000  -0.01439  -0.01445   2.00274
   A42        1.57399   0.08269   0.00000   0.06895   0.06886   1.64285
   A43        1.94052   0.01001   0.00000   0.00881   0.00885   1.94937
   A44        1.90495  -0.03708   0.00000  -0.03174  -0.03168   1.87328
   A45        2.22263  -0.01049   0.00000  -0.00884  -0.00878   2.21385
   A46        1.83451   0.01745   0.00000   0.01490   0.01488   1.84939
   A47        1.84892  -0.00092   0.00000  -0.00032  -0.00042   1.84851
   A48        1.66217   0.02716   0.00000   0.02220   0.02202   1.68419
   A49        1.61830   0.23399   0.00000   0.18164   0.18164   1.79995
   A50        1.42882  -0.08397   0.00000  -0.06519  -0.06519   1.36363
   A51        1.70896   0.00333   0.00000   0.00134   0.00114   1.71010
   A52        1.85982   0.02205   0.00000   0.01716   0.01717   1.87698
    D1        3.13263  -0.00889   0.00000  -0.00885  -0.00888   3.12376
    D2        1.02962  -0.00805   0.00000  -0.00766  -0.00762   1.02200
    D3       -1.04621   0.00348   0.00000   0.00282   0.00283  -1.04338
    D4        0.97773  -0.00288   0.00000  -0.00305  -0.00309   0.97464
    D5       -1.12528  -0.00205   0.00000  -0.00186  -0.00183  -1.12712
    D6        3.08207   0.00949   0.00000   0.00863   0.00862   3.09069
    D7       -1.11046  -0.00743   0.00000  -0.00744  -0.00747  -1.11793
    D8        3.06971  -0.00659   0.00000  -0.00625  -0.00621   3.06350
    D9        0.99388   0.00494   0.00000   0.00424   0.00424   0.99812
   D10        0.70194   0.02156   0.00000   0.02135   0.02215   0.72410
   D11       -1.09975  -0.00261   0.00000  -0.00160  -0.00231  -1.10207
   D12        2.73950   0.02311   0.00000   0.02205   0.02277   2.76228
   D13        0.93781  -0.00106   0.00000  -0.00090  -0.00169   0.93611
   D14       -1.36734   0.00799   0.00000   0.00872   0.00948  -1.35786
   D15        3.11415  -0.01619   0.00000  -0.01423  -0.01499   3.09916
   D16       -2.84694  -0.06837   0.00000  -0.06419  -0.06468  -2.91163
   D17        1.39298  -0.04034   0.00000  -0.03951  -0.03974   1.35323
   D18       -1.18033  -0.00139   0.00000  -0.00168  -0.00177  -1.18210
   D19       -1.17328  -0.01677   0.00000  -0.01746  -0.01742  -1.19070
   D20        3.06664   0.01126   0.00000   0.00722   0.00753   3.07416
   D21        0.49333   0.05021   0.00000   0.04505   0.04550   0.53883
   D22        2.92965   0.03213   0.00000   0.03289   0.03320   2.96285
   D23       -1.46766   0.06654   0.00000   0.06424   0.06447  -1.40319
   D24        0.48739   0.02785   0.00000   0.02905   0.02955   0.51694
   D25       -1.34071   0.00130   0.00000   0.00384   0.00386  -1.33685
   D26        0.54516   0.03571   0.00000   0.03519   0.03514   0.58029
   D27        2.50021  -0.00298   0.00000  -0.00001   0.00022   2.50042
   D28        0.64178   0.01050   0.00000   0.01379   0.01334   0.65512
   D29        2.52765   0.04492   0.00000   0.04514   0.04462   2.57226
   D30       -1.80049   0.00623   0.00000   0.00995   0.00970  -1.79079
   D31       -2.98005  -0.06739   0.00000  -0.06832  -0.06806  -3.04810
   D32       -0.88582  -0.04792   0.00000  -0.05253  -0.05238  -0.93820
   D33        1.32171  -0.03443   0.00000  -0.04080  -0.04121   1.28050
   D34       -2.57017   0.03079   0.00000   0.02914   0.02911  -2.54106
   D35        1.78966   0.02271   0.00000   0.02161   0.02157   1.81123
   D36       -0.37561   0.02322   0.00000   0.02209   0.02206  -0.35355
   D37        2.53317  -0.01895   0.00000  -0.01789  -0.01786   2.51531
   D38        0.60982  -0.02703   0.00000  -0.02543  -0.02540   0.58442
   D39       -1.55544  -0.02652   0.00000  -0.02495  -0.02491  -1.58036
   D40       -2.74029  -0.00645   0.00000  -0.00558  -0.00551  -2.74581
   D41        1.52229   0.00345   0.00000   0.00200   0.00230   1.52460
   D42       -0.44016  -0.02446   0.00000  -0.02295  -0.02325  -0.46340
   D43       -1.52611   0.04631   0.00000   0.04519   0.04550  -1.48062
   D44        2.73648   0.05621   0.00000   0.05277   0.05331   2.78979
   D45        0.77403   0.02829   0.00000   0.02782   0.02776   0.80179
   D46       -2.85197  -0.01737   0.00000  -0.02042  -0.02023  -2.87220
   D47        1.41539  -0.02220   0.00000  -0.02465  -0.02431   1.39108
   D48       -0.55216  -0.01787   0.00000  -0.01954  -0.01944  -0.57160
   D49        1.13395  -0.00511   0.00000  -0.00502  -0.00519   1.12876
   D50       -0.88187  -0.00993   0.00000  -0.00926  -0.00927  -0.89114
   D51       -2.84943  -0.00561   0.00000  -0.00414  -0.00440  -2.85383
   D52        0.56366   0.06721   0.00000   0.07036   0.07109   0.63475
   D53       -1.50649   0.05818   0.00000   0.06339   0.06372  -1.44277
   D54        2.75114   0.05755   0.00000   0.06374   0.06267   2.81382
   D55       -0.42453  -0.02137   0.00000  -0.02078  -0.02048  -0.44501
   D56        1.80126  -0.01872   0.00000  -0.02132  -0.02070   1.78055
   D57       -2.71166   0.02447   0.00000   0.01565   0.01599  -2.69567
   D58        0.85002  -0.00247   0.00000  -0.00284  -0.00293   0.84710
   D59       -1.23281  -0.00509   0.00000  -0.00535  -0.00522  -1.23804
   D60       -3.11914  -0.01586   0.00000  -0.01473  -0.01497  -3.13410
   D61       -2.12118   0.04009   0.00000   0.04328   0.04328  -2.07789
   D62       -0.25220   0.00842   0.00000   0.00950   0.00977  -0.24243
         Item               Value     Threshold  Converged?
 Maximum Force            0.233986     0.000450     NO 
 RMS     Force            0.039046     0.000300     NO 
 Maximum Displacement     1.251166     0.001800     NO 
 RMS     Displacement     0.363415     0.001200     NO 
 Predicted change in Energy=-1.659937D-01
 GradGradGradGradGradGradGradGradGradGradGradGradGradGradGradGradGradGrad

                          Input orientation:                          
 ---------------------------------------------------------------------
 Center     Atomic      Atomic             Coordinates (Angstroms)
 Number     Number       Type             X           Y           Z
 ---------------------------------------------------------------------
      1          6           0        1.490679    0.038312   -0.582859
      2          6           0        3.074311   -0.201461   -0.389546
      3          6           0        3.515681   -0.231589    1.126643
      4          6           0        2.388776   -1.064736    1.863137
      5          6           0        2.927524   -0.589935    3.179745
      6          6           0        4.854020   -0.131457    1.991200
      7          6           0        5.060144    1.483496    2.027160
      8          6           0        5.265429   -1.356849    3.309538
      9          6           0        6.522871   -0.151941    1.907548
     10          1           0        1.199793    0.075066   -1.634770
     11          1           0        1.144877    0.958417   -0.085386
     12          1           0        0.862767   -0.767687   -0.178496
     13          1           0        3.542926    0.638055   -0.912154
     14          1           0        3.307751   -1.152622   -0.867052
     15          1           0        3.215962    0.827570    1.332714
     16          1           0        2.504839   -2.153454    1.694949
     17          1           0        1.339016   -0.853809    2.059313
     18          1           0        2.445449   -0.724556    4.100470
     19          1           0        3.570545   -1.413954    2.864933
     20          1           0        3.410414    0.394901    3.181565
     21          1           0        4.271569    2.019003    1.487691
     22          1           0        5.908132    1.894818    1.454126
     23          1           0        5.148225    1.823560    3.056204
     24          1           0        5.388274   -2.340523    2.832444
     25          1           0        4.547565   -1.613341    4.119937
     26          1           0        6.065314   -1.080001    3.997875
     27          1           0        6.899432   -1.127526    1.590181
     28          1           0        6.914165    0.006229    2.954998
     29          1           0        7.163441    0.588253    1.423251
 ---------------------------------------------------------------------
                    Distance matrix (angstroms):
                    1          2          3          4          5
     1  C    0.000000
     2  C    1.613304   0.000000
     3  C    2.663809   1.579413   0.000000
     4  C    2.829521   2.507943   1.583184   0.000000
     5  C    4.076322   3.593369   2.165541   1.499714   0.000000
     6  C    4.238710   2.973251   1.596445   2.639098   2.309595
     7  C    4.652079   3.552898   2.477460   3.695483   3.189928
     8  C    5.598747   4.451870   3.015437   3.233039   2.463900
     9  C    5.617943   4.143871   3.107949   4.233900   3.838860
    10  H    1.092008   2.267347   3.617012   3.866287   5.158181
    11  H    1.101659   2.271684   2.916478   3.071999   4.029430
    12  H    1.098826   2.292615   3.004787   2.566166   3.946213
    13  H    2.163295   1.094306   2.216690   3.454532   4.316285
    14  H    2.191082   1.089593   2.205983   2.882042   4.103383
    15  H    2.696099   2.011256   1.119872   2.132230   2.346069
    16  H    3.319754   2.911991   2.244625   1.107730   2.197242
    17  H    2.792839   3.071436   2.448449   1.088565   1.961722
    18  H    4.840157   4.563917   3.198759   2.263757   1.047976
    19  H    4.280442   3.508279   2.103009   1.588120   1.091599
    20  H    4.240687   3.636131   2.150878   2.216424   1.096854
    21  H    3.992952   3.144505   2.401434   3.632535   3.387634
    22  H    5.206708   3.977946   3.217556   4.616504   4.246856
    23  H    5.459627   4.502779   3.257612   4.168958   3.282032
    24  H    5.702140   4.506798   3.296053   3.400614   3.039814
    25  H    5.847120   4.949680   3.454538   3.170881   2.134445
    26  H    6.569706   5.382137   3.932480   4.251385   3.279517
    27  H    5.944400   4.405504   3.530912   4.519343   4.311818
    28  H    6.475466   5.096429   3.866410   4.776847   4.037231
    29  H    6.042114   4.542122   3.750502   5.071814   4.734596
                    6          7          8          9         10
     6  C    0.000000
     7  C    1.628451   0.000000
     8  C    1.846310   3.123171   0.000000
     9  C    1.671072   2.197392   2.235742   0.000000
    10  H    5.152056   5.504154   6.559417   6.398023   0.000000
    11  H    4.388369   4.479718   5.819358   5.841875   1.784353
    12  H    4.587208   5.248878   5.647737   6.063622   1.715970
    13  H    3.277282   3.414130   4.976881   4.177904   2.515830
    14  H    3.406367   4.289110   4.617155   4.363114   2.557361
    15  H    2.009122   2.076897   3.588849   3.496502   3.665673
    16  H    3.113661   4.457281   3.295805   4.493977   4.213843
    17  H    3.589107   4.394408   4.151245   5.233355   3.811619
    18  H    3.256071   4.001343   2.996274   4.664994   5.923177
    19  H    2.013831   3.363924   1.753159   3.350447   5.299525
    20  H    1.943713   2.288952   2.554620   3.407278   5.309070
    21  H    2.284130   1.095283   3.962735   3.155573   4.792125
    22  H    2.346357   1.103012   3.798547   2.184656   5.917873
    23  H    2.245635   1.087351   3.192635   2.666771   6.375937
    24  H    2.423446   3.921642   1.100147   2.632990   6.582890
    25  H    2.611784   3.772646   1.112593   3.306387   6.868402
    26  H    2.528579   3.386090   1.090994   2.332407   7.532208
    27  H    2.310125   3.223564   2.383011   1.092833   6.658259
    28  H    2.278609   2.545701   2.168412   1.129284   7.329717
    29  H    2.484748   2.364323   3.308165   1.092136   6.721603
                   11         12         13         14         15
    11  H    0.000000
    12  H    1.751483   0.000000
    13  H    2.556720   3.114100   0.000000
    14  H    3.121780   2.569092   1.806617   0.000000
    15  H    2.513468   3.219648   2.276456   2.961175   0.000000
    16  H    3.834427   2.850710   3.958172   2.865341   3.086003
    17  H    2.814531   2.289546   3.989046   3.539607   2.622577
    18  H    4.695240   4.562488   5.309196   5.059949   3.265464
    19  H    4.496264   4.124583   4.298591   3.750342   2.738221
    20  H    4.015368   4.374029   4.103074   4.335513   1.908734
    21  H    3.657269   4.707628   2.863074   4.066075   1.599324
    22  H    5.092695   5.933810   3.573924   4.629983   2.898540
    23  H    5.161865   5.961794   4.441876   5.257084   2.774175
    24  H    6.115812   5.658603   5.128279   4.407488   4.123705
    25  H    5.989739   5.724457   5.603572   5.159406   3.936982
    26  H    6.711101   6.678781   5.781223   5.592579   4.342893
    27  H    6.346147   6.300717   4.543686   4.351873   4.178114
    28  H    6.590545   6.858364   5.169073   5.381192   4.121057
    29  H    6.215796   6.640984   4.308680   4.810663   3.955763
                   16         17         18         19         20
    16  H    0.000000
    17  H    1.783531   0.000000
    18  H    2.798537   2.325344   0.000000
    19  H    1.746840   2.437726   1.807668   0.000000
    20  H    3.086131   2.666349   1.740324   1.843327   0.000000
    21  H    4.535823   4.144837   4.205763   3.764761   2.499701
    22  H    5.294233   5.366379   5.084725   4.289832   3.387092
    23  H    4.965595   4.761530   3.858547   3.606543   2.253168
    24  H    3.105332   4.382299   3.588797   2.040521   3.393576
    25  H    3.216368   3.888169   2.282370   1.602923   2.491323
    26  H    4.374100   5.113422   3.638721   2.760246   3.144867
    27  H    4.513973   5.586880   5.128538   3.576104   4.125958
    28  H    5.068936   5.711760   4.670715   3.633845   3.532516
    29  H    5.412333   6.033908   5.581257   4.358461   4.149008
                   21         22         23         24         25
    21  H    0.000000
    22  H    1.641611   0.000000
    23  H    1.807472   1.774595   0.000000
    24  H    4.696899   4.484209   4.176994   0.000000
    25  H    4.494310   4.611385   3.647548   1.700948   0.000000
    26  H    4.372914   3.917258   3.187234   1.845407   1.613354
    27  H    4.100831   3.183669   3.731602   2.301777   3.488117
    28  H    3.631468   2.613711   2.536036   2.801894   3.095300
    29  H    3.227092   1.812144   2.872911   3.703346   4.354531
                   26         27         28         29
    26  H    0.000000
    27  H    2.548529   0.000000
    28  H    1.728593   1.774357   0.000000
    29  H    3.258473   1.743979   1.657450   0.000000
 Stoichiometry    C9H20
 Framework group  C1[X(C9H20)]
 Deg. of freedom    81
 Full point group                 C1      NOp   1
 Largest Abelian subgroup         C1      NOp   1
 Largest concise Abelian subgroup C1      NOp   1
                         Standard orientation:                         
 ---------------------------------------------------------------------
 Center     Atomic      Atomic             Coordinates (Angstroms)
 Number     Number       Type             X           Y           Z
 ---------------------------------------------------------------------
      1          6           0        3.264727   -0.444742   -0.032411
      2          6           0        1.863636   -0.954267   -0.648916
      3          6           0        0.618857   -0.145789   -0.109069
      4          6           0        1.090693    1.365336   -0.090542
      5          6           0       -0.109251    1.707958    0.741255
      6          6           0       -0.970804   -0.281998   -0.053748
      7          6           0       -1.136128   -1.272674    1.228080
      8          6           0       -2.092578    1.086080   -0.581805
      9          6           0       -2.276015   -1.141201   -0.645928
     10          1           0        4.116125   -1.022112   -0.398809
     11          1           0        3.267503   -0.466069    1.069038
     12          1           0        3.526300    0.586665   -0.306632
     13          1           0        1.800885   -2.005360   -0.350973
     14          1           0        1.939898   -0.847215   -1.730553
     15          1           0        0.756563   -0.461861    0.956411
[...]
 0014456,-0.00033800,0.00012588,-0.00005103,-0.00002157,0.00008253,-0.0
 0002328,0.00004629,0.00005912,0.00002477,0.00001948,0.00001244,-0.0166
 9584,-0.00155632,-0.00702152,0.00098963,0.00038436,0.00055619,0.296362
 68,0.00005531,0.00003448,-0.00014968,-0.00010315,-0.00023651,0.0006821
 2,-0.00030586,-0.00579308,0.00135231,-0.00161679,0.00042632,-0.0008168
 5,-0.00004416,-0.00027806,-0.00016772,-0.02890567,-0.00344857,-0.01052
 089,-0.01640023,-0.04712386,-0.00688458,-0.00088718,0.00099139,-0.0013
 3170,-0.00120555,0.00141164,-0.00006529,-0.00005621,0.00003549,-0.0000
 2730,-0.00004331,0.00001812,0.00001034,0.00006460,-0.00000211,0.000025
 90,0.00021146,0.00017977,-0.00017903,-0.00001071,0.00003993,-0.0000444
 8,-0.00009649,0.00018373,0.00028751,0.00008306,0.00003787,0.00001397,-
 0.00034615,-0.00042444,0.00014888,-0.00005478,0.00000713,0.00012586,0.
 00000775,0.00004425,0.00007180,-0.00000817,0.00001218,0.00000943,0.019
 37615,0.00144433,0.00860588,0.00726779,-0.00011950,0.00205588,0.021084
 10,0.05261955,0.00000602,-0.00026540,0.00012666,0.00010504,0.00027837,
 -0.00043380,0.00077442,0.00110286,-0.00067453,0.00027193,0.00020507,0.
 00036764,-0.00000420,-0.00002857,0.00005918,0.00432010,0.00060218,0.00
 000410,-0.08640435,-0.00754277,-0.07838171,0.00139343,0.00053009,0.000
 45678,-0.00046898,-0.00003439,-0.00019673,0.00000661,0.00001227,-0.000
 00704,-0.00001121,0.00004063,-0.00000284,-0.00016422,0.00000834,-0.000
 02086,-0.00016203,-0.00041769,0.00057895,-0.00020480,-0.00023292,0.000
 04888,-0.00026601,0.00023782,0.00007775,0.00001008,-0.00004387,0.00005
 374,0.00010377,0.00013981,0.00001363,-0.00001716,-0.00000563,-0.000000
 17,-0.00000921,-0.00000956,-0.00000661,0.00000270,-0.00000238,-0.00001
 485,0.01575431,0.00166025,0.00567934,-0.02996243,-0.00213081,-0.010846
 02,0.09456825,0.00603528,0.08295295,0.00001191,0.00002012,0.00003599,0
 .00003984,-0.00012879,-0.00005168,0.00022493,0.00045475,0.00028822,-0.
 00096722,0.00008450,-0.00099227,-0.00060270,-0.00021594,-0.00037775,-0
 .00041851,0.00380111,-0.00018882,-0.00024066,0.00005467,-0.00026875,-0
 .06555920,-0.06782327,0.01569784,-0.00003151,-0.00049648,0.00006314,0.
 00001332,-0.00001254,0.00001862,-0.00000414,-0.00000160,-0.00000085,-0
 .00002108,-0.00000895,-0.00001327,0.00000568,-0.00002066,0.00005157,0.
 00001703,0.00001985,-0.00000372,0.00002259,-0.00004981,0.00000376,-0.0
 0044749,-0.00041839,-0.00091021,-0.00001500,0.00001370,0.00008467,-0.0
 0001320,-0.00000070,0.00002865,-0.00064996,0.00023223,0.00021646,0.000
 17426,0.00002240,0.00011937,0.00003980,-0.00035571,-0.00006361,0.00071
 937,-0.00004459,-0.00008596,0.00052527,0.00030699,0.00003308,0.0700370
 6,-0.00006145,-0.00000189,0.00002802,0.00016942,0.00003166,0.00004516,
 -0.00084680,-0.00067615,0.00016910,-0.00073789,-0.00034292,-0.00067995
 ,0.00002816,0.00036592,0.00018438,-0.00096502,-0.00619300,0.00056283,0
 .00047059,0.00084669,0.00230534,-0.06618096,-0.27856285,0.05247653,0.0
 0027414,0.00050540,-0.00048731,0.00004379,0.00001713,0.00000266,-0.000
 01047,0.00000957,-0.00000392,0.00009695,0.00003295,0.00001864,-0.00000
 138,0.00007254,-0.00015457,-0.00000107,0.00001986,0.00006336,-0.000026
 48,0.00006951,0.00008477,-0.00079528,0.00042602,-0.00047158,-0.0002466
 3,0.00029268,-0.00023616,-0.00010682,-0.00007412,-0.00014434,0.0002333
 8,-0.00030041,-0.00053781,-0.00020731,-0.00005561,-0.00020415,-0.00001
 419,0.00037113,-0.00017901,-0.00034945,-0.00041008,0.00019615,0.000111
 40,0.00019758,-0.00020351,0.07604121,0.30366698,0.00000927,-0.00004243
 ,0.00007009,0.00019913,-0.00004436,-0.00009756,0.00079962,0.00014714,0
 .00106114,-0.00128309,0.00076504,-0.00015472,-0.00011488,-0.00025540,0
 .00035265,0.00978201,0.02975166,-0.00475737,-0.00103651,0.00025341,-0.
 00692675,0.01516982,0.05109844,-0.05871185,-0.00026886,0.00111926,0.00
 187418,0.00001002,-0.00001946,0.00001636,0.00001216,-0.00001026,-0.000
 00229,-0.00007564,-0.00001557,-0.00001180,0.00003386,-0.00006128,0.000
 19137,-0.00001552,-0.00003090,-0.00003599,-0.00005207,-0.00011487,-0.0
 0004448,-0.00063426,-0.00114264,-0.00079020,0.00032687,-0.00025041,0.0
 0007555,-0.00003514,0.00001413,0.00000713,0.00010516,-0.00007347,0.000
 01313,0.00014230,-0.00002373,-0.00013055,-0.00026871,0.00006822,0.0000
 7763,0.00064661,0.00230243,-0.00036855,0.00011795,-0.00030725,-0.00001
 085,-0.01584207,-0.05749205,0.06374334,-0.00003056,-0.00000542,0.00005
 241,0.00017502,-0.00002802,0.00007878,0.00078359,-0.00069010,-0.000501
 36,0.00003749,-0.00011154,-0.00010415,-0.00024632,-0.00022796,0.000195
 23,0.00062840,-0.00245955,-0.00229311,-0.00014587,0.00025531,-0.000013
 36,-0.12758759,0.09111010,0.07864187,0.00030919,-0.00038357,-0.0002511
 4,0.00002388,-0.00000864,0.00002081,0.00000615,-0.00000126,-0.00000854
 ,-0.00000013,-0.00000049,-0.00000741,-0.00001275,-0.00000183,0.0000234
 0,-0.00000019,-0.00002837,-0.00002385,0.00028226,0.00013032,0.00007603
 ,0.00000811,0.00008858,0.00001951,-0.00006979,0.00005810,0.00000057,-0
 .00002265,0.00001227,-0.00002539,-0.00063347,-0.00046293,-0.00012004,-
 0.00002144,-0.00000131,-0.00000171,0.00027632,-0.00038710,0.00022842,0
 .00003793,-0.00027103,-0.00013091,-0.00010538,0.00014905,0.00008578,0.
 00495373,-0.00628578,-0.00578277,0.13694663,0.00002199,-0.00000057,-0.
 00005040,-0.00027451,0.00008161,-0.00001526,0.00021568,0.00023788,-0.0
 0012881,0.00034983,-0.00063220,-0.00034313,-0.00009018,0.00001337,-0.0
 0092277,-0.00410403,0.00272179,0.00309280,-0.00050236,0.00085856,0.000
 50625,0.09087639,-0.14911935,-0.08763190,-0.00034164,0.00045003,0.0010
 0406,-0.00002890,0.00000319,-0.00000191,-0.00000231,0.00001616,-0.0000
 0404,-0.00002124,-0.00001307,-0.00001125,-0.00000255,-0.00002682,0.000
 05153,-0.00000699,0.00001379,0.00006383,-0.00028343,0.00016755,-0.0001
 6175,-0.00017344,0.00031903,0.00001090,-0.00024369,0.00014107,0.000085
 02,0.00018821,0.00011734,0.00027908,-0.00027104,-0.00017318,0.00061033
 ,0.00006363,0.00005492,0.00017528,0.00014813,0.00016927,0.00013143,-0.
 00002494,0.00017307,-0.00018015,-0.00005689,-0.00001639,-0.00003172,0.
 01802184,-0.01791854,-0.01616654,-0.10073556,0.15939395,-0.00000939,0.
 00000804,0.00002579,-0.00004924,0.00037432,0.00011507,0.00150066,-0.00
 099601,0.00120544,-0.00012984,-0.00013806,-0.00015100,-0.00008846,0.00
 008122,-0.00038318,0.01866705,-0.02079581,-0.01693467,0.00014212,-0.00
 169713,0.00106340,0.07780062,-0.08686494,-0.12175072,-0.00165932,0.002
 96493,-0.00649509,0.00000788,-0.00000051,0.00000807,-0.00003818,0.0000
 3007,-0.00001642,-0.00002205,-0.00000270,-0.00000930,0.00000625,-0.000
 08737,0.00001867,0.00008539,0.00007534,0.00025129,-0.00095634,0.000605
 68,0.00005981,0.00006562,0.00015923,-0.00006005,-0.00004494,0.00000675
 ,0.00007983,0.00006515,0.00007289,0.00014149,0.00004059,-0.00005882,0.
 00038899,-0.00001225,0.00000308,0.00004272,-0.00018069,0.00103806,0.00
 012768,-0.00038860,0.00006517,0.00030031,-0.00001402,0.00014726,-0.000
 04464,-0.00445222,0.00413822,0.00341741,-0.08673119,0.09602403,0.13489
 237,0.00007578,0.00001526,-0.00023005,-0.00024645,-0.00031667,0.000487
 32,0.00124367,0.00020131,-0.00116917,0.00020688,0.00031411,0.00015951,
 0.00006681,0.00002025,0.00039156,-0.00474441,-0.00023439,-0.00059617,0
 .00014521,-0.00044801,0.00092564,-0.28331877,-0.02886979,-0.06728937,0
 .00044215,0.00000734,0.00075461,-0.00007668,0.00003415,-0.00004085,0.0
 0000086,-0.00000180,0.00002457,0.00003431,0.00000010,0.00002987,0.0000
 6598,0.00012078,-0.00011718,-0.00003815,-0.00000988,-0.00016434,0.0002
 9590,-0.00009522,0.00015871,0.00001896,0.00004598,0.00008872,-0.000018
 63,-0.00003769,-0.00006184,-0.00013384,-0.00007879,-0.00009986,-0.0000
 4258,-0.00004867,-0.00042095,-0.00007466,-0.00001734,-0.00007302,-0.00
 005639,-0.00006278,-0.00006041,0.00044889,0.00008392,0.00011332,0.0007
 5589,0.00045835,-0.00001438,-0.00791073,-0.00049660,-0.00183611,-0.016
 55544,-0.00283813,-0.00477332,0.30850178,-0.00004056,0.00001580,0.0000
 7987,0.00038171,0.00036132,0.00012291,-0.00035910,-0.00076574,0.001671
 62,-0.00002374,-0.00022806,-0.00030678,0.00005036,0.00017998,-0.000156
 50,0.00639137,-0.00097466,0.00210247,0.00140153,0.00033764,0.00052737,
 -0.02940311,-0.04971568,-0.00895221,-0.00062444,-0.00011050,-0.0004034
 3,0.00005186,0.00000768,0.00000179,-0.00000081,0.00000355,-0.00001278,
 0.00004564,0.00001547,0.00000581,0.00000113,0.00001782,-0.00005159,0.0
 0000432,-0.00000536,0.00011710,-0.00030648,0.00016534,-0.00003659,-0.0
 0004211,0.00045742,0.00019757,-0.00017813,0.00018251,-0.00007938,0.000
 00573,0.00001213,0.00002102,0.00009143,-0.00018263,-0.00009911,-0.0001
 2386,-0.00000912,-0.00005384,0.00007523,-0.00004928,0.00002736,-0.0000
 6649,-0.00000441,-0.00024078,-0.00033070,-0.00010154,0.00047037,-0.029
 60082,-0.00310294,-0.00838821,0.02002408,0.00230486,0.00612328,0.03241
 287,0.05107402,0.00019443,0.00001140,-0.00078284,-0.00224981,0.0000336
 5,0.00044697,0.00151708,0.00117886,-0.00639134,0.00043163,0.00049610,-
 0.00025106,0.00012684,-0.00008182,-0.00040447,-0.03109557,-0.00348238,
 -0.01020704,-0.00126863,-0.00126220,0.00092205,-0.06569935,-0.00848154
 ,-0.06412519,-0.00162440,0.00026319,0.00125881,-0.00028954,0.00008895,
 -0.00009534,0.00000662,0.00002291,0.00003052,-0.00001365,-0.00003609,0
 .00002012,0.00006017,0.00007322,0.00001910,0.00001215,-0.00009690,-0.0
 0009126,0.00000629,0.00024341,0.00016250,0.00013071,-0.00011052,0.0001
 1707,-0.00004259,-0.00005234,0.00006495,0.00006271,0.00004693,0.000183
 26,-0.00004983,0.00004486,0.00038960,0.00007506,0.00002741,0.00006650,
 0.00016031,0.00009413,0.00000101,0.00028672,-0.00034323,0.00026604,0.0
 0074915,0.00069385,0.00008078,0.00643877,0.00009082,0.00118960,0.01677
 216,0.00302778,0.00460754,0.07396901,0.00759579,0.07240840,-0.00001137
 ,-0.00006700,-0.00003598,0.00004216,0.00011859,-0.00009970,0.00077160,
 -0.00018525,-0.00056008,-0.00111273,0.00057994,0.00004884,0.00005503,-
 0.00009607,0.00016449,0.00652157,0.01814860,-0.00341200,-0.00239913,0.
 00199268,0.00201430,0.00035361,-0.00031360,-0.00084167,-0.07006171,-0.
 07507371,0.00955074,-0.00000103,-0.00000670,0.00001714,0.00002911,-0.0
 0001061,0.00001228,-0.00003875,-0.00000400,-0.00000775,-0.00002482,-0.
 00005109,0.00013098,-0.00003406,0.00001508,-0.00013805,0.00025847,-0.0
 0017261,0.00009510,-0.00143334,-0.00031170,0.00085797,0.00013288,-0.00
 014600,0.00003093,0.00001284,0.00002165,-0.00000996,0.00000055,-0.0000
 0753,-0.00004830,0.00005652,-0.00000519,-0.00008236,0.00062651,0.00128
 551,0.00014588,-0.00017798,-0.00012947,-0.00000968,0.00028370,0.000223
 47,0.00024593,0.00026705,-0.00020404,0.00013055,-0.00007841,-0.0000053
 7,-0.00022128,-0.00004829,-0.00012831,0.00010001,0.07553272,0.00001070
 ,0.00009969,0.00005225,0.00023246,-0.00025556,-0.00006256,-0.00122627,
 -0.00038412,-0.00001590,-0.00004080,-0.00033482,0.00099086,-0.00028300
 ,0.00050309,-0.00033475,-0.00672895,-0.01935639,0.00334840,0.00397650,
 -0.00155387,-0.00321729,-0.00042711,0.00039403,0.00114571,-0.07417380,
 -0.27872438,0.02884895,0.00002878,0.00000431,0.00000408,-0.00004969,0.
 00002408,-0.00000620,0.00009682,0.00000877,0.00001668,-0.00005750,0.00
 024840,-0.00020152,0.00003064,0.00002823,0.00028141,0.00001780,0.00011
 462,0.00001709,-0.00029622,0.00098925,-0.00041004,0.00006722,0.0001029
 8,-0.00004710,0.00003510,-0.00000768,-0.00002560,-0.00000170,-0.000018
 31,0.00007464,-0.00020421,0.00003608,0.00022490,-0.00049629,-0.0015285
 7,0.00003964,0.00000614,0.00035653,0.00005636,-0.00006922,0.00032047,0
 .00000973,0.00010908,0.00052316,-0.00079528,0.00020624,0.00027177,-0.0
 0002520,0.00006405,0.00000440,-0.00003322,0.08190476,0.30596074,-0.000
 06326,-0.00016427,0.00000215,0.00016200,0.00049022,0.00012715,-0.00014
 970,0.00072702,0.00052291,0.00051753,-0.00038375,0.00000026,-0.0000519
 6,0.00002820,-0.00001227,-0.00715031,-0.01517478,0.00119592,0.00231084
 ,-0.00178245,-0.00184242,-0.00078096,-0.00072670,0.00127654,0.00952455
 ,0.02917965,-0.05115322,0.00000891,0.00000628,-0.00000207,0.00003130,-
 0.00001027,0.00000001,-0.00003894,0.00001557,0.00000266,-0.00005778,-0
 .00018696,0.00000767,0.00005743,-0.00008903,-0.00016614,-0.00017103,0.
 00001293,-0.00012133,0.00068299,0.00024632,0.00001938,-0.00023038,0.00
 014423,-0.00004002,0.00000794,-0.00000139,-0.00000535,0.00002204,-0.00
 001950,-0.00002645,-0.00001828,-0.00000794,0.00001358,-0.00005955,-0.0
 0120093,0.00056894,0.00004342,-0.00028088,0.00027528,0.00017794,0.0002
 8539,-0.00005914,0.00023404,0.00027120,-0.00024308,0.00000806,0.000274
 12,0.00016994,0.00001260,-0.00005231,-0.00004556,-0.01239189,-0.030878
 06,0.05165154,0.00007178,0.00005180,-0.00010527,0.00029025,-0.00022642
 ,0.00057053,-0.00005046,0.00282982,0.00283367,0.00026728,0.00056211,-0
 .00009942,-0.00008328,-0.00001943,-0.00013979,-0.01962790,-0.00159860,
 -0.00616371,0.00035184,-0.00113029,-0.00055297,0.00029957,-0.00070767,
 -0.00132514,-0.27702606,-0.01679190,-0.07938796,-0.00005859,0.00000591
 ,-0.00006988,-0.00001184,-0.00002493,0.00000145,0.00001010,-0.00000601
 ,0.00002383,0.00004433,0.00009738,-0.00009593,0.00003207,-0.00001706,0
 .00001826,-0.00138716,0.00011850,-0.00022783,0.00016871,0.00000314,-0.
 00012760,-0.00003717,-0.00008806,0.00001414,-0.00002692,-0.00005063,0.
 00007296,-0.00001534,0.00003044,0.00007072,0.00001696,-0.00000803,0.00
 006171,0.00037803,-0.00005733,0.00021410,-0.00001970,0.00006367,0.0000
 3326,0.00069018,0.00070787,0.00016610,-0.00008969,-0.00000371,0.000059
 78,0.00054957,0.00004083,0.00000587,0.00061419,0.00014576,0.00095625,-
 0.00898754,-0.00052932,-0.00315714,0.30348546,-0.00003183,-0.00000539,
 0.00002546,-0.00007325,-0.00001084,-0.00049729,0.00142930,-0.00324797,
 -0.00251730,-0.00004779,-0.00035189,0.00034429,-0.00010594,0.00027271,
 -0.00009952,0.02028336,0.00025991,0.00687978,0.00099840,0.00106123,0.0
 0064725,-0.00016089,0.00046660,0.00088066,-0.01770435,-0.04691311,-0.0
 0557585,0.00003159,0.00000801,0.00003257,-0.00000775,0.00002953,0.0000
 0741,0.00002866,-0.00000027,-0.00000754,-0.00007438,0.00010491,0.00002
 963,-0.00004901,0.00002260,0.00015415,0.00143691,0.00015933,0.00026783
 ,0.00001117,0.00044545,-0.00032167,0.00006877,0.00004870,0.00000242,0.
 00001694,0.00001641,-0.00004238,-0.00000193,-0.00000836,0.00002296,-0.
 00012031,0.00001315,0.00010683,-0.00030658,0.00026302,0.00000686,0.000
 01494,-0.00008674,0.00004415,-0.00028038,-0.00038922,-0.00037127,-0.00
 017734,-0.00001638,-0.00010944,-0.00011896,-0.00011391,0.00025920,-0.0
 0025610,0.00023974,-0.00027311,-0.02914866,-0.00171292,-0.01076177,0.0
 1671080,0.04973921,0.00001806,0.00014572,0.00032023,-0.00045251,-0.000
 38782,-0.00048074,0.00172352,-0.00234831,-0.00224177,-0.00008968,-0.00
 033589,-0.00001643,0.00008514,-0.00005674,0.00007997,0.01657369,0.0013
 1380,0.00416360,-0.00003785,0.00056551,0.00022441,0.00126294,0.0002314
 5,0.00106912,-0.08035156,-0.00537317,-0.07328066,0.00004281,-0.0000104
 9,0.00001969,-0.00015501,0.00007168,-0.00001959,-0.00007672,-0.0000014
 2,-0.00001942,0.00007095,-0.00019127,0.00007964,0.00005126,0.00051164,
 0.00035371,0.00111101,-0.00001096,0.00043495,-0.00017517,-0.00000851,0
 .00008369,0.00006115,0.00006442,0.00000324,-0.00001151,0.00001198,-0.0
 0002027,0.00000252,-0.00000130,-0.00000847,0.00000026,0.00002786,-0.00
 003713,0.00006476,0.00025346,-0.00007537,-0.00018712,-0.00006414,-0.00
 006206,-0.00014847,-0.00002450,0.00023426,0.00000691,0.00006070,-0.000
 07104,-0.00020879,0.00012324,0.00023080,-0.00016013,-0.00027995,-0.000
 25008,0.00474998,0.00043482,0.00064830,0.08628174,0.00830722,0.0782823
 9,-0.00012555,-0.00004132,-0.00026887,-0.00083896,0.00038273,0.0000958
 4,0.00088553,-0.00073151,0.00051793,-0.00010356,-0.00019829,0.00009365
 ,-0.00004722,0.00008228,-0.00002481,0.00036010,-0.00549858,0.01892484,
 0.00025252,-0.00086899,-0.00040945,-0.00240598,0.00269774,0.00125441,-
 0.04619270,0.00104168,-0.00493343,-0.00000800,0.00000903,0.00001961,0.
 00014614,-0.00005719,0.00001400,0.00012677,-0.00000108,0.00002303,-0.0
 0019317,0.00037467,-0.00019119,-0.00118616,-0.00010893,-0.00055968,0.0
 0021066,0.00000534,-0.00019969,0.00007116,0.00020812,-0.00002938,-0.00
 013167,-0.00004154,-0.00003351,0.00001054,0.00000291,-0.00002877,0.000
 03680,-0.00000173,-0.00005239,-0.00004462,0.00000343,0.00002809,-0.000
 14157,-0.00016852,-0.00005369,0.00037025,0.00018507,-0.00020662,-0.000
 00810,0.00008849,-0.00015858,-0.00008075,0.00007227,-0.00029948,0.0004
 9173,0.00008065,0.00138413,0.00034777,0.00014563,0.00027730,-0.0005351
 6,-0.00220221,0.01051959,0.00015131,0.00763463,-0.03005217,0.04858190,
 -0.00006727,-0.00027465,-0.00006054,0.00074441,0.00080792,0.00041251,-
 0.00047539,0.00059604,0.00050401,0.00006560,-0.00039010,0.00024315,-0.
 00009753,0.00005856,-0.00013501,-0.00223790,0.00413525,-0.02029644,-0.
 00024526,0.00154008,-0.00101927,0.00271464,-0.00290985,-0.00190650,0.0
 0073086,-0.06037732,0.05772133,-0.00000009,0.00001010,-0.00000852,0.00
 007177,-0.00002331,-0.00001538,-0.00005259,0.00002027,-0.00001076,0.00
 017794,-0.00036566,0.00020536,0.00007483,-0.00028702,-0.00012001,-0.00
 020022,-0.00000053,-0.00006206,-0.00001030,0.00021201,-0.00007681,-0.0
 0010080,0.00005730,-0.00002070,0.00001105,0.00000223,0.00001918,-0.000
 01150,-0.00001407,0.00003274,-0.00003072,0.00002245,0.00004767,-0.0000
 4987,0.00024455,0.00024423,0.00004650,-0.00030283,0.00032634,-0.000013
 22,-0.00007095,-0.00001257,0.00017315,0.00020612,-0.00017618,0.0001753
 6,0.00050481,-0.00151023,0.00003338,-0.00012976,0.00022010,0.00177660,
 -0.00611396,0.03003988,-0.00010864,-0.00029352,-0.00302903,-0.00309478
 ,0.06313583,-0.00006664,0.00016670,0.00057564,-0.00090520,-0.00007674,
 -0.00048130,-0.00072286,0.00007372,-0.00049835,-0.00004049,0.00006531,
 -0.00002217,-0.00000182,-0.00006211,-0.00001266,-0.00098040,0.00419929
 ,-0.01645731,-0.00032468,0.00124607,0.00034274,0.00295634,-0.00341684,
 -0.00060621,-0.00325651,0.05649158,-0.29543466,0.00007565,-0.00002927,
 0.00001821,-0.00019951,0.00008089,-0.00003829,-0.00013773,-0.00000476,
 -0.00002521,-0.00008329,-0.00029419,0.00005050,-0.00044257,0.00076321,
 0.00042711,0.00006632,-0.00002792,0.00008026,0.00000567,-0.00015594,-0
 .00003274,0.00013274,0.00005210,0.00004257,0.00000654,0.00001805,0.000
 02622,-0.00005237,0.00000261,0.00009064,0.00004067,-0.00000395,-0.0000
 0958,0.00007720,-0.00003726,0.00041038,-0.00008696,-0.00086296,0.00057
 859,0.00003632,-0.00003239,-0.00003483,-0.00006992,0.00009649,0.000267
 50,0.00000070,0.00018996,-0.00130156,-0.00000832,0.00004915,0.00040935
 ,-0.00043644,0.00050721,-0.00276518,0.00006828,0.00255844,-0.00964498,
 0.00434928,-0.06155646,0.32404532\\0.00000583,0.00000007,0.00000466,-0
 .00000627,-0.00000427,-0.00000907,-0.00000622,0.00002124,-0.00000648,0
 .00000453,0.00001641,0.00001518,0.00003893,-0.00000106,-0.00002551,-0.
 00001595,-0.00001122,0.00000143,0.00000364,0.00000692,-0.00000276,0.00
 002103,-0.00000040,0.00000059,0.00000769,0.00000190,-0.00000236,0.0000
 0062,0.00000280,0.00000052,0.00000207,0.00000226,0.00000119,0.00000055
 ,0.00000196,0.00000038,-0.00000460,0.00000042,0.00000101,-0.00000497,0
 .00000511,-0.00000114,-0.00000089,0.00000057,0.00000038,0.00000353,-0.
 00000206,-0.00000171,0.00000033,-0.00000017,0.00000017,-0.00000588,-0.
 00000092,0.00000500,-0.00003889,0.00000395,0.00002435,-0.00000253,-0.0
 0000170,-0.00000050,0.00000331,-0.00000041,0.00000017,0.00000133,-0.00
 000373,0.00000181,-0.00000026,-0.00000256,0.00000173,-0.00000226,-0.00
 000089,0.00000151,-0.00000233,-0.00002328,-0.00001054,-0.00000233,-0.0
 0000200,0.00000185,0.00000068,-0.00000293,-0.00000127,-0.00000074,-0.0
 0000487,-0.00000088,0.00000006,-0.00000116,0.00000029\\\@


 EXPERIENCE IS A WONDERFUL THING.  IT ENABLES
 YOU TO RECOGNIZE A MISTAKE WHEN YOU MAKE IT AGAIN.
           - BACK OF A SUGAR PACKET
 Job cpu time:       0 days  3 hours 43 minutes 20.4 seconds.
 Elapsed time:       0 days  0 hours 55 minutes 50.4 seconds.
 File lengths (MBytes):  RWF=    254 Int=      0 D2E=      0 Chk=     11 Scr=      1
 Normal termination of Gaussian 16 at Mon May 29 09:51:01 2023.
### All Done ###
