### Starting Gaussian ###
 Entering Gaussian System, Link 0=g16
 Initial command:
 /cluster/software/gaussian/gaussian-16-A.03/avx2/g16/l1.exe "/local/scratch/ks29c/Gau-1827.inp" -scrdir="/local/scratch/ks29c/"
 Entering Link 1 = /cluster/software/gaussian/gaussian-16-A.03/avx2/g16/l1.exe PID=      1828.
  
 Copyright (c) 1988,1990,1992,1993,1995,1998,2003,2009,2016,
            Gaussian, Inc.  All Rights Reserved.
  
 This is part of the Gaussian(R) 16 program.  It is based on
 the Gaussian(R) 09 system (copyright 2009, Gaussian, Inc.),
 the Gaussian(R) 03 system (copyright 2003, Gaussian, Inc.),
 the Gaussian(R) 98 system (copyright 1998, Gaussian, Inc.),
 the Gaussian(R) 94 system (copyright 1995, Gaussian, Inc.),
 the Gaussian 92(TM) system (copyright 1992, Gaussian, Inc.),
 the Gaussian 90(TM) system (copyright 1990, Gaussian, Inc.),
 the Gaussian 88(TM) system (copyright 1988, Gaussian, Inc.),
 the Gaussian 86(TM) system (copyright 1986, Carnegie Mellon
 University), and the Gaussian 82(TM) system (copyright 1983,
 Carnegie Mellon University). Gaussian is a federally registered
 trademark of Gaussian, Inc.
  
 This software contains proprietary and confidential information,
 including trade secrets, belonging to Gaussian, Inc.
  
 This software is provided under written license and may be
 used, copied, transmitted, or stored only in accord with that
 written license.
  
 The following legend is applicable only to US Government
 contracts under FAR:
  
                    RESTRICTED RIGHTS LEGEND
  
 Use, reproduction and disclosure by the US Government is
 subject to restrictions as set forth in subparagraphs (a)
 and (c) of the Commercial Computer Software - Restricted
 Rights clause in FAR 52.227-19.
  
 Gaussian, Inc.
 340 Quinnipiac St., Bldg. 40, Wallingford CT 06492
  
  
 ---------------------------------------------------------------
 Warning -- This program may not be used in any manner that
 competes with the business of Gaussian, Inc. or will provide
 assistance to any competitor of Gaussian, Inc.  The licensee
 of this program is prohibited from giving any competitor of
 Gaussian, Inc. access to this program.  By using this program,
 the user acknowledges that Gaussian, Inc. is engaged in the
 business of creating and licensing software in the field of
 computational chemistry and represents and warrants to the
 licensee that it is not a competitor of Gaussian, Inc. and that
 it will not use this program in any manner prohibited above.
 ---------------------------------------------------------------
  

 Cite this work as:
 Gaussian 16, Revision A.03,
 M. J. Frisch, G. W. Trucks, H. B. Schlegel, G. E. Scuseria, 
 M. A. Robb, J. R. Cheeseman, G. Scalmani, V. Barone, 
 G. A. Petersson, H. Nakatsuji, X. Li, M. Caricato, A. V. Marenich, 
 J. Bloino, B. G. Janesko, R. Gomperts, B. Mennucci, H. P. Hratchian, 
 J. V. Ortiz, A. F. Izmaylov, J. L. Sonnenberg, D. Williams-Young, 
 F. Ding, F. Lipparini, F. Egidi, J. Goings, B. Peng, A. Petrone, 
 T. Henderson, D. Ranasinghe, V. G. Zakrzewski, J. Gao, N. Rega, 
 G. Zheng, W. Liang, M. Hada, M. Ehara, K. Toyota, R. Fukuda, 
 J. Hasegawa, M. Ishida, T. Nakajima, Y. Honda, O. Kitao, H. Nakai, 
 T. Vreven, K. Throssell, J. A. Montgomery, Jr., J. E. Peralta, 
 F. Ogliaro, M. J. Bearpark, J. J. Heyd, E. N. Brothers, K. N. Kudin, 
 V. N. Staroverov, T. A. Keith, R. Kobayashi, J. Normand, 
 K. Raghavachari, A. P. Rendell, J. C. Burant, S. S. Iyengar, 
 J. Tomasi, M. Cossi, J. M. Millam, M. Klene, C. Adamo, R. Cammi, 
 J. W. Ochterski, R. L. Martin, K. Morokuma, O. Farkas, 
 J. B. Foresman, and D. J. Fox, Gaussian, Inc., Wallingford CT, 2016.
 
 ******************************************
 Gaussian 16:  ES64L-G16RevA.03 25-Dec-2016
                22-May-2023 
 ******************************************
 %chk=CCCqCCCNrC1CCqCrCqCrC1.chk
 %NProcShared=20
 Will use up to   20 processors via shared memory.
 -----------------------------
 # opt freq b3lyp/6-31g(2df,p)
 -----------------------------
 1/18=20,19=15,26=3,38=1/1,3;
 2/9=110,12=2,17=6,18=5,40=1/2;
 3/5=1,6=6,7=104,11=2,25=1,30=1,71=1,74=-5/1,2,3;
 4//1;
 5/5=2,38=5/2;
 6/7=2,8=2,9=2,10=2,28=1/1;
 7//1,2,3,16;
 1/18=20,19=15,26=3/3(2);
 2/9=110/2;
 99//99;
 2/9=110/2;
 3/5=1,6=6,7=104,11=2,25=1,30=1,71=1,74=-5/1,2,3;
 4/5=5,16=3,69=1/1;
 5/5=2,38=5/2;
 7//1,2,3,16;
 1/18=20,19=15,26=3/3(-5);
 2/9=110/2;
 6/7=2,8=2,9=2,10=2,19=2,28=1/1;
 99/9=1/99;
 -------------------
 Title Card Required
 -------------------
 Symbolic Z-matrix:
 Charge =  0 Multiplicity = 1
 C                     0.86552   0.14325   0.29582 
 C                     2.35823   0.10237   0.00356 
 C                     2.88216  -0.96939  -0.99582 
 C                     2.43213  -0.73533  -2.46839 
 C                     0.92043  -0.79089  -2.65413 
 C                     0.41491  -0.48806  -4.05228 
 N                    -1.04407  -0.42233  -3.97902 
 C                     4.44337  -1.03806  -0.95749 
 C                     5.08195  -0.69906   0.39293 
 C                     6.49873  -1.24783   0.30872 
 C                     7.44538  -0.25036  -0.35635 
 C                     6.31272  -2.57426  -0.45198 
 C                     7.50618  -2.98163  -1.30393 
 C                     5.01556  -2.43028  -1.2774 
 H                     0.68643   0.65591   1.24482 
 H                     0.44311  -0.864     0.36127 
 H                     0.31146   0.73921  -0.4282 
 H                     2.79539  -0.09611   0.98617 
 H                     2.70755   1.09434  -0.30332 
 H                     2.48854  -1.94256  -0.67229 
 H                     2.89581  -1.48689  -3.12048 
 H                     2.80095   0.24238  -2.80401 
 H                     0.47961  -0.00152  -2.06521 
 H                     0.53051  -1.74696  -2.2831 
 H                     0.73733  -1.24318  -4.77235 
 H                     0.78925   0.49087  -4.37404 
 H                    -1.41747  -1.31605  -3.64723 
 H                    -1.44367  -0.2427   -4.88987 
 H                     4.84202  -0.33392  -1.70175 
 H                     4.55551  -1.20709   1.20926 
 H                     5.06867   0.37956   0.58605 
 H                     6.87204  -1.44028   1.32247 
 H                     7.14775  -0.03251  -1.38672 
 H                     8.46806  -0.64009  -0.37123 
 H                     7.46558   0.69477   0.19506 
 H                     6.14453  -3.36797   0.29061 
 H                     7.69823  -2.24961  -2.09543 
 H                     7.33188  -3.94682  -1.7868 
 H                     8.40731  -3.0646   -0.68721 
 H                     4.31835  -3.22383  -0.98135 
 H                     5.19131  -2.5461   -2.35238 
 

 GradGradGradGradGradGradGradGradGradGradGradGradGradGradGradGradGradGrad
 Berny optimization.
 Initialization pass.
                           ----------------------------
                           !    Initial Parameters    !
                           ! (Angstroms and Degrees)  !
 --------------------------                            --------------------------
 ! Name  Definition              Value          Derivative Info.                !
 --------------------------------------------------------------------------------
 ! R1    R(1,2)                  1.5216         estimate D2E/DX2                !
 ! R2    R(1,15)                 1.0934         estimate D2E/DX2                !
 ! R3    R(1,16)                 1.0942         estimate D2E/DX2                !
 ! R4    R(1,17)                 1.0892         estimate D2E/DX2                !
 ! R5    R(2,3)                  1.5563         estimate D2E/DX2                !
 ! R6    R(2,18)                 1.0936         estimate D2E/DX2                !
 ! R7    R(2,19)                 1.0955         estimate D2E/DX2                !
 ! R8    R(3,4)                  1.5575         estimate D2E/DX2                !
 ! R9    R(3,8)                  1.5632         estimate D2E/DX2                !
 ! R10   R(3,20)                 1.0985         estimate D2E/DX2                !
 ! R11   R(4,5)                  1.5241         estimate D2E/DX2                !
 ! R12   R(4,21)                 1.0978         estimate D2E/DX2                !
 ! R13   R(4,22)                 1.0975         estimate D2E/DX2                !
 ! R14   R(5,6)                  1.5173         estimate D2E/DX2                !
 ! R15   R(5,23)                 1.079          estimate D2E/DX2                !
 ! R16   R(5,24)                 1.0972         estimate D2E/DX2                !
 ! R17   R(6,7)                  1.4623         estimate D2E/DX2                !
 ! R18   R(6,25)                 1.0921         estimate D2E/DX2                !
 ! R19   R(6,26)                 1.0963         estimate D2E/DX2                !
 ! R20   R(7,27)                 1.0238         estimate D2E/DX2                !
 ! R21   R(7,28)                 1.0107         estimate D2E/DX2                !
 ! R22   R(8,9)                  1.5318         estimate D2E/DX2                !
 ! R23   R(8,14)                 1.5388         estimate D2E/DX2                !
 ! R24   R(8,29)                 1.0994         estimate D2E/DX2                !
 ! R25   R(9,10)                 1.5217         estimate D2E/DX2                !
 ! R26   R(9,30)                 1.0962         estimate D2E/DX2                !
 ! R27   R(9,31)                 1.0959         estimate D2E/DX2                !
 ! R28   R(10,11)                1.5276         estimate D2E/DX2                !
 ! R29   R(10,12)                1.5404         estimate D2E/DX2                !
 ! R30   R(10,32)                1.0973         estimate D2E/DX2                !
 ! R31   R(11,33)                1.0944         estimate D2E/DX2                !
 ! R32   R(11,34)                1.0945         estimate D2E/DX2                !
 ! R33   R(11,35)                1.0944         estimate D2E/DX2                !
 ! R34   R(12,13)                1.5219         estimate D2E/DX2                !
 ! R35   R(12,14)                1.5442         estimate D2E/DX2                !
 ! R36   R(12,36)                1.0999         estimate D2E/DX2                !
 ! R37   R(13,37)                1.0951         estimate D2E/DX2                !
 ! R38   R(13,38)                1.0932         estimate D2E/DX2                !
 ! R39   R(13,39)                1.0951         estimate D2E/DX2                !
 ! R40   R(14,40)                1.097          estimate D2E/DX2                !
 ! R41   R(14,41)                1.0954         estimate D2E/DX2                !
 ! A1    A(2,1,15)             109.8763         estimate D2E/DX2                !
 ! A2    A(2,1,16)             111.4367         estimate D2E/DX2                !
 ! A3    A(2,1,17)             112.709          estimate D2E/DX2                !
 ! A4    A(15,1,16)            108.4494         estimate D2E/DX2                !
 ! A5    A(15,1,17)            103.7143         estimate D2E/DX2                !
 ! A6    A(16,1,17)            110.3077         estimate D2E/DX2                !
 ! A7    A(1,2,3)              118.1717         estimate D2E/DX2                !
 ! A8    A(1,2,18)             102.9702         estimate D2E/DX2                !
 ! A9    A(1,2,19)             110.0158         estimate D2E/DX2                !
 ! A10   A(3,2,18)             108.5069         estimate D2E/DX2                !
 ! A11   A(3,2,19)             109.6543         estimate D2E/DX2                !
 ! A12   A(18,2,19)            106.7714         estimate D2E/DX2                !
 ! A13   A(2,3,4)              113.9779         estimate D2E/DX2                !
 ! A14   A(2,3,8)              110.5327         estimate D2E/DX2                !
 ! A15   A(2,3,20)             107.4783         estimate D2E/DX2                !
 ! A16   A(4,3,8)              108.5641         estimate D2E/DX2                !
 ! A17   A(4,3,20)             107.9426         estimate D2E/DX2                !
 ! A18   A(8,3,20)             108.1639         estimate D2E/DX2                !
 ! A19   A(3,4,5)              113.3499         estimate D2E/DX2                !
 ! A20   A(3,4,21)             109.6759         estimate D2E/DX2                !
 ! A21   A(3,4,22)             109.0199         estimate D2E/DX2                !
 ! A22   A(5,4,21)             108.7601         estimate D2E/DX2                !
 ! A23   A(5,4,22)             109.179          estimate D2E/DX2                !
 ! A24   A(21,4,22)            106.6365         estimate D2E/DX2                !
 ! A25   A(4,5,6)              115.8171         estimate D2E/DX2                !
 ! A26   A(4,5,23)             108.1821         estimate D2E/DX2                !
 ! A27   A(4,5,24)             110.0631         estimate D2E/DX2                !
 ! A28   A(6,5,23)             102.7571         estimate D2E/DX2                !
 ! A29   A(6,5,24)             111.5392         estimate D2E/DX2                !
 ! A30   A(23,5,24)            107.9223         estimate D2E/DX2                !
 ! A31   A(5,6,7)              107.1713         estimate D2E/DX2                !
 ! A32   A(5,6,25)             111.7908         estimate D2E/DX2                !
 ! A33   A(5,6,26)             109.5664         estimate D2E/DX2                !
 ! A34   A(7,6,25)             111.0189         estimate D2E/DX2                !
 ! A35   A(7,6,26)             108.3752         estimate D2E/DX2                !
 ! A36   A(25,6,26)            108.8493         estimate D2E/DX2                !
 ! A37   A(6,7,27)             109.9303         estimate D2E/DX2                !
 ! A38   A(6,7,28)             110.9343         estimate D2E/DX2                !
 ! A39   A(27,7,28)            107.637          estimate D2E/DX2                !
 ! A40   A(3,8,9)              115.3569         estimate D2E/DX2                !
 ! A41   A(3,8,14)             113.9543         estimate D2E/DX2                !
 ! A42   A(3,8,29)             108.5067         estimate D2E/DX2                !
 ! A43   A(9,8,14)             103.2082         estimate D2E/DX2                !
 ! A44   A(9,8,29)             107.6926         estimate D2E/DX2                !
 ! A45   A(14,8,29)            107.6915         estimate D2E/DX2                !
 ! A46   A(8,9,10)             105.0433         estimate D2E/DX2                !
 ! A47   A(8,9,30)             110.717          estimate D2E/DX2                !
 ! A48   A(8,9,31)             111.6011         estimate D2E/DX2                !
 ! A49   A(10,9,30)            108.7364         estimate D2E/DX2                !
 ! A50   A(10,9,31)            112.0861         estimate D2E/DX2                !
 ! A51   A(30,9,31)            108.6089         estimate D2E/DX2                !
 ! A52   A(9,10,11)            111.4446         estimate D2E/DX2                !
 ! A53   A(9,10,12)            103.0291         estimate D2E/DX2                !
 ! A54   A(9,10,32)            109.2006         estimate D2E/DX2                !
 ! A55   A(11,10,12)           114.9687         estimate D2E/DX2                !
 ! A56   A(11,10,32)           107.8136         estimate D2E/DX2                !
 ! A57   A(12,10,32)           110.2611         estimate D2E/DX2                !
 ! A58   A(10,11,33)           111.7994         estimate D2E/DX2                !
 ! A59   A(10,11,34)           110.6371         estimate D2E/DX2                !
 ! A60   A(10,11,35)           110.8542         estimate D2E/DX2                !
 ! A61   A(33,11,34)           108.191          estimate D2E/DX2                !
 ! A62   A(33,11,35)           107.9073         estimate D2E/DX2                !
 ! A63   A(34,11,35)           107.2839         estimate D2E/DX2                !
 ! A64   A(10,12,13)           114.3469         estimate D2E/DX2                !
 ! A65   A(10,12,14)           106.5659         estimate D2E/DX2                !
 ! A66   A(10,12,36)           107.846          estimate D2E/DX2                !
 ! A67   A(13,12,14)           112.6105         estimate D2E/DX2                !
 ! A68   A(13,12,36)           107.7408         estimate D2E/DX2                !
 ! A69   A(14,12,36)           107.4407         estimate D2E/DX2                !
 ! A70   A(12,13,37)           111.2974         estimate D2E/DX2                !
 ! A71   A(12,13,38)           111.0116         estimate D2E/DX2                !
 ! A72   A(12,13,39)           110.5067         estimate D2E/DX2                !
 ! A73   A(37,13,38)           107.3909         estimate D2E/DX2                !
 ! A74   A(37,13,39)           108.2626         estimate D2E/DX2                !
 ! A75   A(38,13,39)           108.243          estimate D2E/DX2                !
 ! A76   A(8,14,12)            106.593          estimate D2E/DX2                !
 ! A77   A(8,14,40)            111.2246         estimate D2E/DX2                !
 ! A78   A(8,14,41)            111.0594         estimate D2E/DX2                !
 ! A79   A(12,14,40)           108.794          estimate D2E/DX2                !
 ! A80   A(12,14,41)           112.3289         estimate D2E/DX2                !
 ! A81   A(40,14,41)           106.8773         estimate D2E/DX2                !
 ! D1    D(15,1,2,3)           159.182          estimate D2E/DX2                !
 ! D2    D(15,1,2,18)           39.6539         estimate D2E/DX2                !
 ! D3    D(15,1,2,19)          -73.8647         estimate D2E/DX2                !
 ! D4    D(16,1,2,3)            38.9521         estimate D2E/DX2                !
 ! D5    D(16,1,2,18)          -80.5761         estimate D2E/DX2                !
 ! D6    D(16,1,2,19)          165.9054         estimate D2E/DX2                !
 ! D7    D(17,1,2,3)           -85.6939         estimate D2E/DX2                !
 ! D8    D(17,1,2,18)          154.778          estimate D2E/DX2                !
 ! D9    D(17,1,2,19)           41.2595         estimate D2E/DX2                !
 ! D10   D(1,2,3,4)             68.3047         estimate D2E/DX2                !
 ! D11   D(1,2,3,8)           -169.1034         estimate D2E/DX2                !
 ! D12   D(1,2,3,20)           -51.2681         estimate D2E/DX2                !
 ! D13   D(18,2,3,4)          -175.0955         estimate D2E/DX2                !
 ! D14   D(18,2,3,8)           -52.5036         estimate D2E/DX2                !
 ! D15   D(18,2,3,20)           65.3317         estimate D2E/DX2                !
 ! D16   D(19,2,3,4)           -58.8214         estimate D2E/DX2                !
 ! D17   D(19,2,3,8)            63.7705         estimate D2E/DX2                !
 ! D18   D(19,2,3,20)         -178.3943         estimate D2E/DX2                !
 ! D19   D(2,3,4,5)            -62.1699         estimate D2E/DX2                !
 ! D20   D(2,3,4,21)           176.0686         estimate D2E/DX2                !
 ! D21   D(2,3,4,22)            59.6535         estimate D2E/DX2                !
 ! D22   D(8,3,4,5)            174.167          estimate D2E/DX2                !
 ! D23   D(8,3,4,21)            52.4056         estimate D2E/DX2                !
 ! D24   D(8,3,4,22)           -64.0095         estimate D2E/DX2                !
 ! D25   D(20,3,4,5)            57.1402         estimate D2E/DX2                !
 ! D26   D(20,3,4,21)          -64.6212         estimate D2E/DX2                !
 ! D27   D(20,3,4,22)          178.9637         estimate D2E/DX2                !
 ! D28   D(2,3,8,9)             30.5993         estimate D2E/DX2                !
 ! D29   D(2,3,8,14)           149.7579         estimate D2E/DX2                !
 ! D30   D(2,3,8,29)           -90.2834         estimate D2E/DX2                !
 ! D31   D(4,3,8,9)            156.3003         estimate D2E/DX2                !
 ! D32   D(4,3,8,14)           -84.5412         estimate D2E/DX2                !
 ! D33   D(4,3,8,29)            35.4176         estimate D2E/DX2                !
 ! D34   D(20,3,8,9)           -86.8148         estimate D2E/DX2                !
 ! D35   D(20,3,8,14)           32.3437         estimate D2E/DX2                !
 ! D36   D(20,3,8,29)          152.3025         estimate D2E/DX2                !
 ! D37   D(3,4,5,6)            176.4852         estimate D2E/DX2                !
 ! D38   D(3,4,5,23)            61.8343         estimate D2E/DX2                !
 ! D39   D(3,4,5,24)           -55.8614         estimate D2E/DX2                !
 ! D40   D(21,4,5,6)           -61.2429         estimate D2E/DX2                !
 ! D41   D(21,4,5,23)         -175.8938         estimate D2E/DX2                !
 ! D42   D(21,4,5,24)           66.4105         estimate D2E/DX2                !
 ! D43   D(22,4,5,6)            54.7507         estimate D2E/DX2                !
 ! D44   D(22,4,5,23)          -59.9002         estimate D2E/DX2                !
 ! D45   D(22,4,5,24)         -177.596          estimate D2E/DX2                !
 ! D46   D(4,5,6,7)           -172.815          estimate D2E/DX2                !
 ! D47   D(4,5,6,25)            65.3259         estimate D2E/DX2                !
 ! D48   D(4,5,6,26)           -55.4284         estimate D2E/DX2                !
 ! D49   D(23,5,6,7)           -55.1085         estimate D2E/DX2                !
 ! D50   D(23,5,6,25)         -176.9676         estimate D2E/DX2                !
 ! D51   D(23,5,6,26)           62.2781         estimate D2E/DX2                !
 ! D52   D(24,5,6,7)            60.2682         estimate D2E/DX2                !
 ! D53   D(24,5,6,25)          -61.5909         estimate D2E/DX2                !
 ! D54   D(24,5,6,26)          177.6547         estimate D2E/DX2                !
 ! D55   D(5,6,7,27)           -59.7883         estimate D2E/DX2                !
 ! D56   D(5,6,7,28)          -178.7206         estimate D2E/DX2                !
 ! D57   D(25,6,7,27)           62.5531         estimate D2E/DX2                !
 ! D58   D(25,6,7,28)          -56.3791         estimate D2E/DX2                !
 ! D59   D(26,6,7,27)         -177.9524         estimate D2E/DX2                !
 ! D60   D(26,6,7,28)           63.1154         estimate D2E/DX2                !
 ! D61   D(3,8,9,10)           162.7017         estimate D2E/DX2                !
 ! D62   D(3,8,9,30)            45.4916         estimate D2E/DX2                !
 ! D63   D(3,8,9,31)           -75.6189         estimate D2E/DX2                !
 ! D64   D(14,8,9,10)           37.7609         estimate D2E/DX2                !
 ! D65   D(14,8,9,30)          -79.4492         estimate D2E/DX2                !
 ! D66   D(14,8,9,31)          159.4404         estimate D2E/DX2                !
 ! D67   D(29,8,9,10)          -75.9746         estimate D2E/DX2                !
 ! D68   D(29,8,9,30)          166.8153         estimate D2E/DX2                !
 ! D69   D(29,8,9,31)           45.7049         estimate D2E/DX2                !
 ! D70   D(3,8,14,12)         -147.688          estimate D2E/DX2                !
 ! D71   D(3,8,14,40)          -29.2406         estimate D2E/DX2                !
 ! D72   D(3,8,14,41)           89.6594         estimate D2E/DX2                !
 ! D73   D(9,8,14,12)          -21.8411         estimate D2E/DX2                !
 ! D74   D(9,8,14,40)           96.6064         estimate D2E/DX2                !
 ! D75   D(9,8,14,41)         -144.4937         estimate D2E/DX2                !
 ! D76   D(29,8,14,12)          91.8952         estimate D2E/DX2                !
 ! D77   D(29,8,14,40)        -149.6573         estimate D2E/DX2                !
 ! D78   D(29,8,14,41)         -30.7574         estimate D2E/DX2                !
 ! D79   D(8,9,10,11)           85.1588         estimate D2E/DX2                !
 ! D80   D(8,9,10,12)          -38.6483         estimate D2E/DX2                !
 ! D81   D(8,9,10,32)         -155.8402         estimate D2E/DX2                !
 ! D82   D(30,9,10,11)        -156.2886         estimate D2E/DX2                !
 ! D83   D(30,9,10,12)          79.9043         estimate D2E/DX2                !
 ! D84   D(30,9,10,32)         -37.2876         estimate D2E/DX2                !
 ! D85   D(31,9,10,11)         -36.2037         estimate D2E/DX2                !
 ! D86   D(31,9,10,12)        -160.0108         estimate D2E/DX2                !
 ! D87   D(31,9,10,32)          82.7973         estimate D2E/DX2                !
 ! D88   D(9,10,11,33)         -61.7789         estimate D2E/DX2                !
 ! D89   D(9,10,11,34)         177.5629         estimate D2E/DX2                !
 ! D90   D(9,10,11,35)          58.6679         estimate D2E/DX2                !
 ! D91   D(12,10,11,33)         54.9704         estimate D2E/DX2                !
 ! D92   D(12,10,11,34)        -65.6878         estimate D2E/DX2                !
 ! D93   D(12,10,11,35)        175.4172         estimate D2E/DX2                !
 ! D94   D(32,10,11,33)        178.3966         estimate D2E/DX2                !
 ! D95   D(32,10,11,34)         57.7384         estimate D2E/DX2                !
 ! D96   D(32,10,11,35)        -61.1567         estimate D2E/DX2                !
 ! D97   D(9,10,12,13)         149.4898         estimate D2E/DX2                !
 ! D98   D(9,10,12,14)          24.3992         estimate D2E/DX2                !
 ! D99   D(9,10,12,36)         -90.7055         estimate D2E/DX2                !
 ! D100  D(11,10,12,13)         28.0433         estimate D2E/DX2                !
 ! D101  D(11,10,12,14)        -97.0473         estimate D2E/DX2                !
 ! D102  D(11,10,12,36)        147.848          estimate D2E/DX2                !
 ! D103  D(32,10,12,13)        -94.0707         estimate D2E/DX2                !
 ! D104  D(32,10,12,14)        140.8386         estimate D2E/DX2                !
 ! D105  D(32,10,12,36)         25.734          estimate D2E/DX2                !
 ! D106  D(10,12,13,37)        -62.6791         estimate D2E/DX2                !
 ! D107  D(10,12,13,38)        177.7579         estimate D2E/DX2                !
 ! D108  D(10,12,13,39)         57.6458         estimate D2E/DX2                !
 ! D109  D(14,12,13,37)         59.155          estimate D2E/DX2                !
 ! D110  D(14,12,13,38)        -60.408          estimate D2E/DX2                !
 ! D111  D(14,12,13,39)        179.4799         estimate D2E/DX2                !
 ! D112  D(36,12,13,37)        177.4573         estimate D2E/DX2                !
 ! D113  D(36,12,13,38)         57.8943         estimate D2E/DX2                !
 ! D114  D(36,12,13,39)        -62.2178         estimate D2E/DX2                !
 ! D115  D(10,12,14,8)          -1.5019         estimate D2E/DX2                !
 ! D116  D(10,12,14,40)       -121.5307         estimate D2E/DX2                !
 ! D117  D(10,12,14,41)        120.3503         estimate D2E/DX2                !
 ! D118  D(13,12,14,8)        -127.6454         estimate D2E/DX2                !
 ! D119  D(13,12,14,40)        112.3258         estimate D2E/DX2                !
 ! D120  D(13,12,14,41)         -5.7932         estimate D2E/DX2                !
 ! D121  D(36,12,14,8)         113.8763         estimate D2E/DX2                !
 ! D122  D(36,12,14,40)         -6.1526         estimate D2E/DX2                !
 ! D123  D(36,12,14,41)       -124.2716         estimate D2E/DX2                !
 --------------------------------------------------------------------------------
 Trust Radius=3.00D-01 FncErr=1.00D-07 GrdErr=1.00D-06 EigMax=2.50D+02 EigMin=1.00D-04
 Number of steps in this run=    246 maximum allowed number of steps=    246.
 GradGradGradGradGradGradGradGradGradGradGradGradGradGradGradGradGradGrad

                          Input orientation:                          
 ---------------------------------------------------------------------
 Center     Atomic      Atomic             Coordinates (Angstroms)
 Number     Number       Type             X           Y           Z
 ---------------------------------------------------------------------
      1          6           0        0.865520    0.143250    0.295820
      2          6           0        2.358230    0.102370    0.003560
      3          6           0        2.882160   -0.969390   -0.995820
      4          6           0        2.432130   -0.735330   -2.468390
      5          6           0        0.920430   -0.790890   -2.654130
      6          6           0        0.414910   -0.488060   -4.052280
      7          7           0       -1.044070   -0.422330   -3.979020
      8          6           0        4.443370   -1.038060   -0.957490
      9          6           0        5.081950   -0.699060    0.392930
     10          6           0        6.498730   -1.247830    0.308720
     11          6           0        7.445380   -0.250360   -0.356350
     12          6           0        6.312720   -2.574260   -0.451980
     13          6           0        7.506180   -2.981630   -1.303930
     14          6           0        5.015560   -2.430280   -1.277400
     15          1           0        0.686430    0.655910    1.244820
     16          1           0        0.443110   -0.864000    0.361270
     17          1           0        0.311460    0.739210   -0.428200
     18          1           0        2.795390   -0.096110    0.986170
     19          1           0        2.707550    1.094340   -0.303320
     20          1           0        2.488540   -1.942560   -0.672290
     21          1           0        2.895810   -1.486890   -3.120480
     22          1           0        2.800950    0.242380   -2.804010
     23          1           0        0.479610   -0.001520   -2.065210
     24          1           0        0.530510   -1.746960   -2.283100
     25          1           0        0.737330   -1.243180   -4.772350
     26          1           0        0.789250    0.490870   -4.374040
     27          1           0       -1.417470   -1.316050   -3.647230
     28          1           0       -1.443670   -0.242700   -4.889870
     29          1           0        4.842020   -0.333920   -1.701750
     30          1           0        4.555510   -1.207090    1.209260
     31          1           0        5.068670    0.379560    0.586050
     32          1           0        6.872040   -1.440280    1.322470
     33          1           0        7.147750   -0.032510   -1.386720
     34          1           0        8.468060   -0.640090   -0.371230
     35          1           0        7.465580    0.694770    0.195060
     36          1           0        6.144530   -3.367970    0.290610
     37          1           0        7.698230   -2.249610   -2.095430
     38          1           0        7.331880   -3.946820   -1.786800
     39          1           0        8.407310   -3.064600   -0.687210
     40          1           0        4.318350   -3.223830   -0.981350
     41          1           0        5.191310   -2.546100   -2.352380
 ---------------------------------------------------------------------
                    Distance matrix (angstroms):
                    1          2          3          4          5
     1  C    0.000000
     2  C    1.521601   0.000000
     3  C    2.640670   1.556256   0.000000
     4  C    3.296517   2.611080   1.557489   0.000000
     5  C    3.094808   3.150952   2.574925   1.524081   0.000000
     6  C    4.416738   4.535961   3.957392   2.576631   1.517261
     7  N    4.716002   5.264209   4.961254   3.803148   2.398005
     8  C    3.970805   2.563593   1.563190   2.533683   3.918008
     9  C    4.300837   2.865755   2.615489   3.900002   5.158610
    10  C    5.802441   4.365765   3.854729   4.950983   6.332828
    11  C    6.623806   5.112049   4.663572   5.461555   6.938799
    12  C    6.133193   4.796859   3.826240   4.744107   6.091524
    13  C    7.511487   6.141822   5.052287   5.669904   7.070678
    14  C    5.130391   3.888004   2.600939   3.311408   4.620939
    15  H    1.093387   2.154541   3.533171   4.332545   4.165309
    16  H    1.094197   2.174744   2.793164   3.461175   3.053820
    17  H    1.089200   2.186607   3.138472   3.291487   2.768901
    18  H    2.063559   1.093630   2.167587   3.531932   4.153309
    19  H    2.157919   1.095538   2.183810   2.847995   3.503455
    20  H    2.814611   2.157659   1.098485   2.164847   2.777229
    21  H    4.295409   3.546035   2.186818   1.097754   2.145699
    22  H    3.655771   2.845708   2.178195   1.097536   2.150922
    23  H    2.396737   2.796393   2.802252   2.124468   1.079006
    24  H    3.214958   3.462571   2.791409   2.161917   1.097165
    25  H    5.255946   5.219879   4.351716   2.904908   2.173695
    26  H    4.683401   4.666477   4.233793   2.798950   2.149001
    27  H    4.784270   5.440229   5.063296   4.067717   2.593804
    28  H    5.689701   6.206382   5.865536   4.596529   3.299699
    29  H    4.475548   3.044281   2.177891   2.560554   4.061369
    30  H    4.034082   2.827797   2.778305   4.272752   5.320978
    31  H    4.219780   2.786147   3.017085   4.186159   5.392274
    32  H    6.296019   4.949118   4.638464   5.880508   7.187261
    33  H    6.506016   4.989045   4.384724   4.888869   6.400077
    34  H    7.671844   6.166177   5.630349   6.390587   7.886767
    35  H    6.623830   5.145156   5.019498   5.871522   7.291369
    36  H    6.340082   5.144096   4.248664   5.322104   6.527178
    37  H    7.624289   6.201062   5.103199   5.492172   6.955471
    38  H    7.929678   6.658718   5.412093   5.897947   7.198531
    39  H    8.254408   6.862815   5.917130   6.655890   8.067955
    40  H    4.989031   3.984435   2.673079   3.458576   4.501472
    41  H    5.740908   4.537752   3.107804   3.302336   4.627335
                    6          7          8          9         10
     6  C    0.000000
     7  N    1.462296   0.000000
     8  C    5.109669   6.294503   0.000000
     9  C    6.448696   7.531178   1.531777   0.000000
    10  C    7.523858   8.715503   2.423179   1.521678   0.000000
    11  C    7.946314   9.231689   3.161314   2.519634   1.527551
    12  C    7.217933   8.437605   2.471825   2.396882   1.540351
    13  C    8.003589   9.317344   3.643939   3.737158   2.573258
    14  C    5.712982   6.931791   1.538837   2.406560   2.472601
    15  H    5.426017   5.607650   4.672719   4.677847   6.187353
    16  H    4.429622   4.609218   4.215626   4.641879   6.068000
    17  H    3.827643   3.974287   4.528964   5.049797   6.540160
    18  H    5.586259   6.284981   2.716785   2.437999   3.937020
    19  H    4.670641   5.466783   2.826330   3.055949   4.498155
    20  H    4.223724   5.071972   2.172745   3.067044   4.186485
    21  H    2.832098   4.170496   2.697205   4.212355   4.979718
    22  H    2.790145   4.075128   2.783291   4.038526   5.058003
    23  H    2.046791   2.482207   4.244155   5.264081   6.589282
    24  H    2.174440   2.666475   4.191689   5.382828   6.525819
    25  H    1.092091   2.115787   5.322590   6.771404   7.681863
    26  H    1.096341   2.085914   5.230969   6.524355   7.586137
    27  H    2.051158   1.023840   6.454566   7.677632   8.849882
    28  H    2.053309   1.010740   7.124146   8.408327   9.545540
    29  H    5.014783   6.311880   1.099390   2.139761   2.760781
    30  H    6.733898   7.673943   2.176224   1.096188   2.142134
    31  H    6.627545   7.671276   2.187044   1.095853   2.184120
    32  H    8.455128   9.581587   3.355359   2.148924   1.097309
    33  H    7.255610   8.601040   2.917026   2.806951   2.184662
    34  H    8.855872  10.175666   4.086589   3.471766   2.170240
    35  H    8.315704   9.543846   3.669445   2.768322   2.172881
    36  H    7.744877   8.864677   3.143275   2.874478   2.149600
    37  H    7.744616   9.127687   3.654706   3.929512   2.867455
    38  H    8.058529   9.347962   4.182359   4.512356   3.517085
    39  H    9.046586  10.351144   4.460127   4.221434   2.816950
    40  H    5.670264   6.752035   2.189472   2.974255   3.212929
    41  H    5.471671   6.785007   2.186165   3.310626   3.236712
                   11         12         13         14         15
    11  C    0.000000
    12  C    2.587001   0.000000
    13  C    2.891616   1.521879   0.000000
    14  C    3.391815   1.544238   2.551054   0.000000
    15  H    7.004889   6.705838   8.138600   5.884516   0.000000
    16  H    7.065643   6.167551   7.559379   5.103506   1.774822
    17  H    7.202585   6.855273   8.147119   5.735448   1.716548
    18  H    4.842371   4.536641   5.980161   3.937163   2.253918
    19  H    4.925248   5.145676   6.375077   4.324198   2.583386
    20  H    5.247249   3.882259   5.162882   2.643834   3.697967
    21  H    5.465163   4.469736   5.175868   2.963152   5.341235
    22  H    5.273003   5.079177   5.897768   3.791853   4.586418
    23  H    7.176634   6.576220   7.670286   5.205225   3.381019
    24  H    7.332640   6.121387   7.151444   4.646938   4.271336
    25  H    8.092261   7.177907   7.801889   5.650410   6.309950
    26  H    7.809950   7.435476   8.160942   5.998666   5.622224
    27  H    9.513974   8.458638   9.375326   6.945609   5.678660
    28  H    9.978380   9.235401  10.022999   7.717325   6.555856
    29  H    2.931649   2.957027   3.777086   2.145906   5.189505
    30  H    3.423130   2.777888   4.262812   2.809149   4.294393
    31  H    2.633186   3.369009   4.561916   3.372012   4.440087
    32  H    2.136133   2.178858   3.110606   3.344539   6.531601
    33  H    1.094397   2.833991   2.971975   3.210527   7.010534
    34  H    1.094525   2.897072   2.697768   3.993204   8.052639
    35  H    1.094409   3.526231   3.970458   4.235171   6.860057
    36  H    3.439515   1.099865   2.132113   2.147671   6.847845
    37  H    2.661829   2.173928   1.095084   2.810433   8.292446
    38  H    3.965209   2.168952   1.093223   2.815088   8.633531
    39  H    2.992445   2.164041   1.095109   3.500665   8.785609
    40  H    4.360099   2.163258   3.213251   1.097027   5.761862
    41  H    3.786210   2.206779   2.578286   1.095392   6.594442
                   16         17         18         19         20
    16  H    0.000000
    17  H    1.791892   0.000000
    18  H    2.552132   2.977937   0.000000
    19  H    3.066670   2.425481   1.757177   0.000000
    20  H    2.532849   3.462824   2.500805   3.067061   0.000000
    21  H    4.304220   4.345430   4.336926   3.825517   2.523319
    22  H    4.099083   3.476906   3.805269   2.643484   3.068516
    23  H    2.575463   1.804649   3.831802   3.044484   3.121484
    24  H    2.789256   3.109611   4.306172   4.090479   2.543000
    25  H    5.156006   4.794046   6.221891   5.414609   4.512910
    26  H    4.937474   3.982413   5.753346   4.540354   4.744694
    27  H    4.442317   4.192308   6.380034   5.831595   4.949717
    28  H    5.614305   4.893989   7.246997   6.329040   6.011637
    29  H    4.887478   4.826957   3.386763   2.924294   3.030904
    30  H    4.212912   4.947860   2.093339   3.316540   2.890244
    31  H    4.795078   4.877407   2.356727   2.622361   3.692253
    32  H    6.525883   7.131356   4.305690   5.139112   4.842151
    33  H    6.978470   6.946162   4.957589   4.707326   5.085955
    34  H    8.061421   8.272596   5.858125   6.016339   6.127130
    35  H    7.195309   7.181355   4.802293   4.800717   5.699012
    36  H    6.227443   7.170099   4.733456   5.663726   4.040450
    37  H    7.784090   8.141073   6.178322   6.269015   5.409295
    38  H    7.846855   8.549326   6.564836   6.999888   5.358837
    39  H    8.328891   8.948678   6.565499   7.066217   6.024204
    40  H    4.731692   5.662758   3.996645   4.658433   2.255078
    41  H    5.721779   6.189400   4.784224   4.860094   3.239125
                   21         22         23         24         25
    21  H    0.000000
    22  H    1.760547   0.000000
    23  H    3.026209   2.448251   0.000000
    24  H    2.522595   3.063286   1.759724   0.000000
    25  H    2.728938   3.215553   2.989439   2.548124   0.000000
    26  H    3.149689   2.563919   2.380971   3.073574   1.779965
    27  H    4.348682   4.575455   2.798158   2.416849   2.431947
    28  H    4.848694   4.754252   3.425767   3.599366   2.402401
    29  H    2.670181   2.390202   4.390127   4.574251   5.206133
    30  H    4.645378   4.613652   5.365493   5.356180   7.096440
    31  H    4.684370   4.080916   5.313556   5.774860   7.078576
    32  H    5.962582   6.035972   7.376284   7.301314   8.649875
    33  H    4.816652   4.580278   6.702641   6.894251   7.349945
    34  H    6.270998   6.230033   8.191012   8.239242   8.916152
    35  H    6.052705   5.563978   7.375460   7.758770   8.584880
    36  H    5.072295   5.812988   6.998156   6.385051   7.706238
    37  H    4.969478   5.540348   7.560641   7.187773   7.525485
    38  H    5.244871   6.254074   7.911796   7.165496   7.727307
    39  H    6.227889   6.844577   8.609865   8.144140   8.878881
    40  H    3.101041   4.199905   5.127764   4.268891   5.578383
    41  H    2.642201   3.700461   5.362599   4.729321   5.233717
                   26         27         28         29         30
    26  H    0.000000
    27  H    2.943268   0.000000
    28  H    2.406270   1.642230   0.000000
    29  H    4.924059   6.628023   7.048569   0.000000
    30  H    6.945576   7.698952   8.609274   3.052621   0.000000
    31  H    6.551971   7.928793   8.531323   2.407167   1.780220
    32  H    8.554525   9.665885  10.448847   3.806694   2.330988
    33  H    7.044752   8.950998   9.280557   2.346590   3.852072
    34  H    8.733022  10.436130  10.900386   3.874557   4.257638
    35  H    8.092690   9.885098  10.300976   3.396934   3.621351
    36  H    8.082613   8.769310   9.704920   3.856357   2.835190
    37  H    7.774079   9.293848   9.767851   3.461616   4.678089
    38  H    8.318228   9.323802  10.017975   4.388586   4.918407
    39  H    9.179810  10.408912  11.075526   4.604041   4.677960
    40  H    6.145233   6.606525   7.573938   3.024035   2.987015
    41  H    5.717379   6.845848   7.467762   2.332180   3.857780
                   31         32         33         34         35
    31  H    0.000000
    32  H    2.665760   0.000000
    33  H    2.895548   3.065541   0.000000
    34  H    3.675857   2.460936   1.773018   0.000000
    35  H    2.448961   2.486319   1.769740   1.762811   0.000000
    36  H    3.910082   2.304343   3.865900   3.643920   4.273191
    37  H    4.584480   3.608275   2.391826   2.481141   3.737625
    38  H    5.428637   4.020169   3.939009   3.772162   5.048762
    39  H    4.962857   3.005708   3.356989   2.445768   3.974685
    40  H    4.000518   3.874270   4.284198   4.926261   5.161824
    41  H    4.148361   4.189536   3.328407   4.277256   4.707971
                   36         37         38         39         40
    36  H    0.000000
    37  H    3.059068   0.000000
    38  H    2.461808   1.763515   0.000000
    39  H    2.483614   1.774848   1.773122   0.000000
    40  H    2.230155   3.689698   3.202004   4.102617   0.000000
    41  H    2.927370   2.537435   2.619912   3.658455   1.760994
                   41
    41  H    0.000000
 Stoichiometry    C13H27N
 Framework group  C1[X(C13H27N)]
 Deg. of freedom   117
 Full point group                 C1      NOp   1
 Largest Abelian subgroup         C1      NOp   1
 Largest concise Abelian subgroup C1      NOp   1
                         Standard orientation:                         
 ---------------------------------------------------------------------
 Center     Atomic      Atomic             Coordinates (Angstroms)
 Number     Number       Type             X           Y           Z
 ---------------------------------------------------------------------
      1          6           0        2.195354    2.496043   -0.541045
      2          6           0        0.912488    1.903059    0.022777
      3          6           0        0.578686    0.420583   -0.313038
      4          6           0        1.541222   -0.610271    0.347748
      5          6           0        2.988199   -0.463970   -0.107970
      6          6           0        3.988779   -1.386227    0.563120
      7          7           0        5.320218   -0.973415    0.121342
      8          6           0       -0.885806    0.078236    0.113135
      9          6           0       -1.876512    1.244901    0.052041
     10          6           0       -3.252697    0.595903    0.072580
     11          6           0       -3.716451    0.315046    1.500678
     12          6           0       -3.060170   -0.654381   -0.806286
     13          6           0       -3.941443   -1.833826   -0.421083
     14          6           0       -1.555275   -0.997631   -0.759988
     15          1           0        2.127460    3.587274   -0.551081
     16          1           0        2.379964    2.151170   -1.562930
     17          1           0        3.062336    2.297026    0.087516
     18          1           0        0.136413    2.540336   -0.410365
     19          1           0        0.875340    2.052539    1.107434
     20          1           0        0.654351    0.304036   -1.402699
     21          1           0        1.201690   -1.629739    0.123104
     22          1           0        1.493386   -0.496295    1.438302
     23          1           0        3.335184    0.515639    0.182236
     24          1           0        3.047245   -0.532851   -1.201377
     25          1           0        3.802129   -2.433979    0.318094
     26          1           0        3.931319   -1.261156    1.650787
     27          1           0        5.388787   -1.048561   -0.897431
     28          1           0        6.033635   -1.567512    0.520942
     29          1           0       -0.870382   -0.293164    1.147776
     30          1           0       -1.763409    1.800969   -0.885843
     31          1           0       -1.735395    1.938240    0.888856
     32          1           0       -3.979520    1.276378   -0.388687
     33          1           0       -3.049079   -0.383584    2.014716
     34          1           0       -4.724427   -0.111530    1.502087
     35          1           0       -3.753315    1.238391    2.087029
     36          1           0       -3.303634   -0.378541   -1.842790
     37          1           0       -3.714346   -2.186346    0.590532
     38          1           0       -3.789704   -2.675422   -1.102132
     39          1           0       -4.998663   -1.550463   -0.456496
     40          1           0       -1.157871   -0.983230   -1.782402
     41          1           0       -1.369263   -2.000508   -0.360587
 ---------------------------------------------------------------------
 Rotational constants (GHZ):           1.2200592           0.2753276           0.2442754
 Standard basis: 6-31G(2df,p) (6D, 7F)
 There are   569 symmetry adapted cartesian basis functions of A   symmetry.
 There are   527 symmetry adapted basis functions of A   symmetry.
   527 basis functions,   805 primitive gaussians,   569 cartesian basis functions
    56 alpha electrons       56 beta electrons
       nuclear repulsion energy       965.3297342653 Hartrees.
 NAtoms=   41 NActive=   41 NUniq=   41 SFac= 1.00D+00 NAtFMM=   60 NAOKFM=F Big=F
 Integral buffers will be    131072 words long.
 Raffenetti 2 integral format.
 Two-electron integral symmetry is turned on.
 One-electron integrals computed using PRISM.
 PrsmSu:  requested number of processors reduced to:  12 ShMem   1 Linda.
 NBasis=   527 RedAO= T EigKep=  3.91D-04  NBF=   527
 NBsUse=   527 1.00D-06 EigRej= -1.00D+00 NBFU=   527
 ExpMin= 1.61D-01 ExpMax= 4.17D+03 ExpMxC= 6.27D+02 IAcc=3 IRadAn=         5 AccDes= 0.00D+00
 Harris functional with IExCor=  402 and IRadAn=       5 diagonalized for initial guess.
 HarFok:  IExCor=  402 AccDes= 0.00D+00 IRadAn=         5 IDoV= 1 UseB2=F ITyADJ=14
 ICtDFT=  3500011 ScaDFX=  1.000000  1.000000  1.000000  1.000000
 FoFCou: FMM=F IPFlag=           0 FMFlag=      100000 FMFlg1=           0
         NFxFlg=           0 DoJE=T BraDBF=F KetDBF=T FulRan=T
         wScrn=  0.000000 ICntrl=       500 IOpCl=  0 I1Cent=   200000004 NGrid=           0
         NMat0=    1 NMatS0=      1 NMatT0=    0 NMatD0=    1 NMtDS0=    0 NMtDT0=    0
 Petite list used in FoFCou.
 Requested convergence on RMS density matrix=1.00D-08 within 128 cycles.
 Requested convergence on MAX density matrix=1.00D-06.
 Requested convergence on             energy=1.00D-06.
 No special actions if energy rises.
 Integral accuracy reduced to 1.0D-05 until final iterations.
 Initial convergence to 1.0D-05 achieved.  Increase integral accuracy.
 SCF Done:  E(RB3LYP) =  -566.431934765     A.U. after   12 cycles
            NFock= 12  Conv=0.38D-08     -V/T= 2.0084

 **********************************************************************

            Population analysis using the SCF density.

 **********************************************************************

 Orbital symmetries:
       Occupied  (A) (A) (A) (A) (A) (A) (A) (A) (A) (A) (A) (A)
                 (A) (A) (A) (A) (A) (A) (A) (A) (A) (A) (A) (A)
                 (A) (A) (A) (A) (A) (A) (A) (A) (A) (A) (A) (A)
                 (A) (A) (A) (A) (A) (A) (A) (A) (A) (A) (A) (A)
                 (A) (A) (A) (A) (A) (A) (A) (A)
       Virtual   (A) (A) (A) (A) (A) (A) (A) (A) (A) (A) (A) (A)
                 (A) (A) (A) (A) (A) (A) (A) (A) (A) (A) (A) (A)
                 (A) (A) (A) (A) (A) (A) (A) (A) (A) (A) (A) (A)
                 (A) (A) (A) (A) (A) (A) (A) (A) (A) (A) (A) (A)
                 (A) (A) (A) (A) (A) (A) (A) (A) (A) (A) (A) (A)
                 (A) (A) (A) (A) (A) (A) (A) (A) (A) (A) (A) (A)
                 (A) (A) (A) (A) (A) (A) (A) (A) (A) (A) (A) (A)
                 (A) (A) (A) (A) (A) (A) (A) (A) (A) (A) (A) (A)
                 (A) (A) (A) (A) (A) (A) (A) (A) (A) (A) (A) (A)
                 (A) (A) (A) (A) (A) (A) (A) (A) (A) (A) (A) (A)
                 (A) (A) (A) (A) (A) (A) (A) (A) (A) (A) (A) (A)
                 (A) (A) (A) (A) (A) (A) (A) (A) (A) (A) (A) (A)
                 (A) (A) (A) (A) (A) (A) (A) (A) (A) (A) (A) (A)
                 (A) (A) (A) (A) (A) (A) (A) (A) (A) (A) (A) (A)
                 (A) (A) (A) (A) (A) (A) (A) (A) (A) (A) (A) (A)
                 (A) (A) (A) (A) (A) (A) (A) (A) (A) (A) (A) (A)
                 (A) (A) (A) (A) (A) (A) (A) (A) (A) (A) (A) (A)
                 (A) (A) (A) (A) (A) (A) (A) (A) (A) (A) (A) (A)
                 (A) (A) (A) (A) (A) (A) (A) (A) (A) (A) (A) (A)
                 (A) (A) (A) (A) (A) (A) (A) (A) (A) (A) (A) (A)
                 (A) (A) (A) (A) (A) (A) (A) (A) (A) (A) (A) (A)
                 (A) (A) (A) (A) (A) (A) (A) (A) (A) (A) (A) (A)
                 (A) (A) (A) (A) (A) (A) (A) (A) (A) (A) (A) (A)
                 (A) (A) (A) (A) (A) (A) (A) (A) (A) (A) (A) (A)
                 (A) (A) (A) (A) (A) (A) (A) (A) (A) (A) (A) (A)
                 (A) (A) (A) (A) (A) (A) (A) (A) (A) (A) (A) (A)
                 (A) (A) (A) (A) (A) (A) (A) (A) (A) (A) (A) (A)
                 (A) (A) (A) (A) (A) (A) (A) (A) (A) (A) (A) (A)
                 (A) (A) (A) (A) (A) (A) (A) (A) (A) (A) (A) (A)
                 (A) (A) (A) (A) (A) (A) (A) (A) (A) (A) (A) (A)
                 (A) (A) (A) (A) (A) (A) (A) (A) (A) (A) (A) (A)
                 (A) (A) (A) (A) (A) (A) (A) (A) (A) (A) (A) (A)
                 (A) (A) (A) (A) (A) (A) (A) (A) (A) (A) (A) (A)
                 (A) (A) (A) (A) (A) (A) (A) (A) (A) (A) (A) (A)
                 (A) (A) (A) (A) (A) (A) (A) (A) (A) (A) (A) (A)
                 (A) (A) (A) (A) (A) (A) (A) (A) (A) (A) (A) (A)
                 (A) (A) (A) (A) (A) (A) (A) (A) (A) (A) (A) (A)
                 (A) (A) (A) (A) (A) (A) (A) (A) (A) (A) (A) (A)
                 (A) (A) (A) (A) (A) (A) (A) (A) (A) (A) (A) (A)
                 (A) (A) (A)
 The electronic state is 1-A.
 Alpha  occ. eigenvalues --  -14.29660 -10.19269 -10.17821 -10.17301 -10.17155
 Alpha  occ. eigenvalues --  -10.17116 -10.16996 -10.16851 -10.16531 -10.16467
 Alpha  occ. eigenvalues --  -10.16434 -10.16261 -10.16233 -10.16123  -0.87053
 Alpha  occ. eigenvalues --   -0.84447  -0.79904  -0.74796  -0.73787  -0.73507
 Alpha  occ. eigenvalues --   -0.68722  -0.65971  -0.63864  -0.61624  -0.58083
 Alpha  occ. eigenvalues --   -0.56330  -0.54165  -0.52241  -0.48265  -0.47692
 Alpha  occ. eigenvalues --   -0.46829  -0.45500  -0.43950  -0.43116  -0.42809
 Alpha  occ. eigenvalues --   -0.41226  -0.40633  -0.39584  -0.39046  -0.38119
 Alpha  occ. eigenvalues --   -0.37310  -0.37046  -0.36185  -0.35415  -0.34937
 Alpha  occ. eigenvalues --   -0.34318  -0.33338  -0.32167  -0.31648  -0.30824
 Alpha  occ. eigenvalues --   -0.30215  -0.29830  -0.29485  -0.28414  -0.28136
 Alpha  occ. eigenvalues --   -0.22389
 Alpha virt. eigenvalues --    0.07740   0.08689   0.08850   0.09620   0.11181
 Alpha virt. eigenvalues --    0.11993   0.12218   0.13293   0.14023   0.14496
 Alpha virt. eigenvalues --    0.14857   0.15506   0.15901   0.16119   0.16814
 Alpha virt. eigenvalues --    0.17039   0.17693   0.18222   0.18897   0.19420
 Alpha virt. eigenvalues --    0.19709   0.20266   0.21035   0.21397   0.21696
 Alpha virt. eigenvalues --    0.22216   0.22347   0.22687   0.24033   0.24732
 Alpha virt. eigenvalues --    0.24782   0.25380   0.27588   0.27964   0.28977
 Alpha virt. eigenvalues --    0.29776   0.30339   0.31647   0.32305   0.34035
 Alpha virt. eigenvalues --    0.35624   0.43786   0.44463   0.45830   0.47363
 Alpha virt. eigenvalues --    0.48280   0.49017   0.49847   0.50061   0.51522
 Alpha virt. eigenvalues --    0.52819   0.53115   0.54700   0.55199   0.55431
 Alpha virt. eigenvalues --    0.55749   0.56849   0.58106   0.58323   0.59323
 Alpha virt. eigenvalues --    0.60687   0.61206   0.61805   0.62362   0.63083
 Alpha virt. eigenvalues --    0.63810   0.65394   0.65598   0.66104   0.66927
 Alpha virt. eigenvalues --    0.68096   0.68643   0.69475   0.70465   0.70848
 Alpha virt. eigenvalues --    0.71799   0.72399   0.73012   0.73474   0.74530
 Alpha virt. eigenvalues --    0.75199   0.75568   0.75881   0.76748   0.77396
 Alpha virt. eigenvalues --    0.78021   0.78343   0.78917   0.79150   0.79514
 Alpha virt. eigenvalues --    0.80153   0.80318   0.81083   0.81708   0.82272
 Alpha virt. eigenvalues --    0.83166   0.83473   0.83725   0.84432   0.84865
 Alpha virt. eigenvalues --    0.85407   0.86063   0.86435   0.87168   0.88792
 Alpha virt. eigenvalues --    0.89310   0.90437   0.91411   0.92078   0.93913
 Alpha virt. eigenvalues --    0.94791   0.99229   1.02449   1.03455   1.04886
 Alpha virt. eigenvalues --    1.05539   1.06172   1.10239   1.11183   1.12012
 Alpha virt. eigenvalues --    1.13720   1.14973   1.15475   1.16051   1.19142
 Alpha virt. eigenvalues --    1.19707   1.22360   1.23621   1.25436   1.26438
 Alpha virt. eigenvalues --    1.27821   1.30000   1.31511   1.32317   1.32666
 Alpha virt. eigenvalues --    1.35050   1.35704   1.36381   1.37904   1.40628
 Alpha virt. eigenvalues --    1.41844   1.42554   1.43356   1.44503   1.46057
 Alpha virt. eigenvalues --    1.47985   1.48804   1.50205   1.51829   1.52735
 Alpha virt. eigenvalues --    1.53259   1.55596   1.55654   1.57132   1.58133
 Alpha virt. eigenvalues --    1.58267   1.58758   1.60184   1.61435   1.62313
 Alpha virt. eigenvalues --    1.62737   1.64651   1.65737   1.67697   1.68348
 Alpha virt. eigenvalues --    1.68970   1.70709   1.71357   1.74276   1.75207
 Alpha virt. eigenvalues --    1.76857   1.78443   1.79863   1.80561   1.81021
 Alpha virt. eigenvalues --    1.83954   1.84419   1.85503   1.86070   1.87328
 Alpha virt. eigenvalues --    1.88915   1.91382   1.92093   1.92852   1.93870
 Alpha virt. eigenvalues --    1.96041   1.97482   1.98210   1.98507   2.00451
 Alpha virt. eigenvalues --    2.01103   2.02198   2.04683   2.07453   2.07667
 Alpha virt. eigenvalues --    2.09812   2.15852   2.17659   2.19318   2.21921
 Alpha virt. eigenvalues --    2.22372   2.22922   2.25992   2.27120   2.28035
 Alpha virt. eigenvalues --    2.29830   2.30428   2.31239   2.32624   2.33447
 Alpha virt. eigenvalues --    2.34125   2.35151   2.36112   2.36863   2.38625
 Alpha virt. eigenvalues --    2.39335   2.40777   2.43323   2.45460   2.46590
 Alpha virt. eigenvalues --    2.48434   2.49371   2.50684   2.51346   2.53644
 Alpha virt. eigenvalues --    2.55840   2.57281   2.58976   2.59253   2.62750
 Alpha virt. eigenvalues --    2.65874   2.67473   2.68569   2.70135   2.70509
 Alpha virt. eigenvalues --    2.72207   2.73560   2.75381   2.75853   2.77470
 Alpha virt. eigenvalues --    2.77879   2.79223   2.79497   2.80807   2.81764
 Alpha virt. eigenvalues --    2.81809   2.83324   2.84036   2.84935   2.86010
 Alpha virt. eigenvalues --    2.87245   2.87526   2.87705   2.89480   2.90180
 Alpha virt. eigenvalues --    2.90307   2.91184   2.91880   2.92694   2.93123
 Alpha virt. eigenvalues --    2.94315   2.94783   2.95145   2.96421   2.96610
 Alpha virt. eigenvalues --    2.97542   2.97781   2.99811   3.00538   3.01755
 Alpha virt. eigenvalues --    3.03124   3.05448   3.05891   3.06527   3.07394
 Alpha virt. eigenvalues --    3.08541   3.09364   3.11831   3.13652   3.14872
 Alpha virt. eigenvalues --    3.16634   3.18818   3.20560   3.22088   3.22274
 Alpha virt. eigenvalues --    3.22693   3.23601   3.28088   3.28596   3.30567
 Alpha virt. eigenvalues --    3.33425   3.34738   3.35126   3.36691   3.37559
 Alpha virt. eigenvalues --    3.38080   3.39349   3.40862   3.41937   3.42687
 Alpha virt. eigenvalues --    3.44512   3.45145   3.45879   3.47571   3.50037
 Alpha virt. eigenvalues --    3.50870   3.51247   3.54491   3.55334   3.55730
 Alpha virt. eigenvalues --    3.57615   3.58147   3.58754   3.59950   3.61139
 Alpha virt. eigenvalues --    3.62439   3.63122   3.64624   3.65903   3.66658
 Alpha virt. eigenvalues --    3.69206   3.69921   3.71928   3.72786   3.74165
 Alpha virt. eigenvalues --    3.75626   3.77224   3.77791   3.79636   3.82664
 Alpha virt. eigenvalues --    3.83360   3.84612   3.85984   3.87759   3.88502
 Alpha virt. eigenvalues --    3.89920   3.91858   3.93434   3.94922   3.97047
 Alpha virt. eigenvalues --    3.98399   4.01654   4.02131   4.03934   4.08238
 Alpha virt. eigenvalues --    4.09530   4.13464   4.16438   4.17959   4.20189
 Alpha virt. eigenvalues --    4.22651   4.25763   4.26278   4.29760   4.30573
 Alpha virt. eigenvalues --    4.32665   4.33575   4.34425   4.38908   4.40754
 Alpha virt. eigenvalues --    4.43623   4.44167   4.45407   4.46007   4.47593
 Alpha virt. eigenvalues --    4.47752   4.49082   4.50197   4.51282   4.52187
 Alpha virt. eigenvalues --    4.53420   4.54922   4.56248   4.56552   4.57138
 Alpha virt. eigenvalues --    4.57878   4.58142   4.59648   4.60643   4.61663
 Alpha virt. eigenvalues --    4.63276   4.64049   4.65087   4.65534   4.66603
 Alpha virt. eigenvalues --    4.67278   4.67824   4.69213   4.69436   4.69872
 Alpha virt. eigenvalues --    4.70504   4.71430   4.72835   4.73057   4.74161
 Alpha virt. eigenvalues --    4.75697   4.76066   4.76263   4.77760   4.78431
 Alpha virt. eigenvalues --    4.79699   4.81028   4.81679   4.81985   4.84011
 Alpha virt. eigenvalues --    4.84447   4.85120   4.86122   4.86680   4.87985
 Alpha virt. eigenvalues --    4.88522   4.89506   4.90444   4.92036   4.92607
 Alpha virt. eigenvalues --    4.95135   4.95556   4.96211   4.96459   4.97800
 Alpha virt. eigenvalues --    4.99281   5.00734   5.01957   5.04153   5.05263
 Alpha virt. eigenvalues --    5.07489   5.08623   5.10900   5.13887   5.14985
 Alpha virt. eigenvalues --    5.17157   5.21307   5.24418   5.28205   5.31370
 Alpha virt. eigenvalues --    5.32660   5.36187   5.36460   5.41119   5.43652
 Alpha virt. eigenvalues --    5.44848   5.47816   5.49171   5.52740   5.53057
 Alpha virt. eigenvalues --    5.59025   5.62167   5.67413   5.70942   5.75388
 Alpha virt. eigenvalues --    5.82660   5.85367   6.05510   6.17250   6.87431
 Alpha virt. eigenvalues --    7.47692   9.63247  11.15275  11.37699  11.44359
 Alpha virt. eigenvalues --   11.71124  11.72461  11.83137  11.98147  12.29673
 Alpha virt. eigenvalues --   12.33420  12.40128  12.68092  12.77241  13.04073
 Alpha virt. eigenvalues --   13.24630
          Condensed to atoms (all electrons):
               1          2          3          4          5          6
     1  C    5.013097   0.394160  -0.025527  -0.000989  -0.006811   0.000063
     2  C    0.394160   4.806694   0.414600  -0.023754  -0.003256   0.000230
     3  C   -0.025527   0.414600   4.699088   0.417975  -0.029118   0.001845
     4  C   -0.000989  -0.023754   0.417975   4.887591   0.395074  -0.030133
     5  C   -0.006811  -0.003256  -0.029118   0.395074   4.832844   0.407953
     6  C    0.000063   0.000230   0.001845  -0.030133   0.407953   4.857310
     7  N   -0.000070   0.000001  -0.000039   0.002841  -0.047472   0.386351
     8  C    0.003202  -0.031411   0.422422  -0.024083   0.001774  -0.000100
     9  C   -0.000031  -0.009893  -0.025430   0.001837  -0.000143   0.000001
    10  C   -0.000026   0.000753   0.001400  -0.000084   0.000001  -0.000000
    11  C    0.000000  -0.000032   0.000365  -0.000001   0.000000   0.000000
    12  C    0.000003  -0.000186   0.002017   0.000161   0.000000  -0.000000
    13  C   -0.000000   0.000001  -0.000040  -0.000000   0.000000   0.000000
    14  C   -0.000095   0.002637  -0.019707   0.000565   0.000052   0.000002
    15  H    0.365853  -0.024473   0.002962   0.000019   0.000461  -0.000014
    16  H    0.375347  -0.025844  -0.007204  -0.000635  -0.000232   0.000024
    17  H    0.378479  -0.023667  -0.000331   0.000205  -0.007196   0.000436
    18  H   -0.043886   0.371639  -0.024291   0.003929   0.000053   0.000003
    19  H   -0.042494   0.363722  -0.029640  -0.008748  -0.000105  -0.000015
    20  H   -0.007236  -0.046254   0.342150  -0.048763  -0.005496   0.000037
    21  H   -0.000089   0.004365  -0.027227   0.355401  -0.034767  -0.004092
    22  H   -0.000148  -0.008427  -0.026649   0.354353  -0.033164  -0.004770
    23  H   -0.001990  -0.000436  -0.003585  -0.027705   0.356955  -0.037154
    24  H    0.000649  -0.001123  -0.001885  -0.033417   0.370503  -0.044508
    25  H   -0.000013  -0.000003  -0.000003   0.003264  -0.044801   0.370327
    26  H    0.000044  -0.000022   0.000064  -0.006315  -0.011783   0.350128
    27  H    0.000010  -0.000000  -0.000001  -0.000261  -0.001798  -0.054257
    28  H    0.000000   0.000000   0.000001  -0.000290   0.005253  -0.042912
    29  H   -0.000114  -0.000714  -0.042584  -0.012277   0.000331  -0.000009
    30  H   -0.000060  -0.004719  -0.005214   0.000025   0.000007   0.000000
    31  H    0.000050   0.000998  -0.002441  -0.000047   0.000001  -0.000000
    32  H   -0.000000   0.000014  -0.000203   0.000000  -0.000000   0.000000
    33  H   -0.000000   0.000005  -0.000035  -0.000013  -0.000000   0.000000
    34  H   -0.000000   0.000000  -0.000004  -0.000000   0.000000  -0.000000
    35  H    0.000000  -0.000001  -0.000020   0.000000   0.000000  -0.000000
    36  H   -0.000000  -0.000002   0.000068  -0.000001  -0.000000   0.000000
    37  H   -0.000000   0.000000  -0.000004  -0.000001  -0.000000   0.000000
    38  H    0.000000   0.000000   0.000001  -0.000000   0.000000  -0.000000
    39  H    0.000000  -0.000000   0.000000   0.000000  -0.000000  -0.000000
    40  H   -0.000017   0.000502  -0.013118  -0.000301  -0.000006   0.000000
    41  H    0.000002  -0.000070   0.002684  -0.000853  -0.000042  -0.000000
               7          8          9         10         11         12
     1  C   -0.000070   0.003202  -0.000031  -0.000026   0.000000   0.000003
     2  C    0.000001  -0.031411  -0.009893   0.000753  -0.000032  -0.000186
     3  C   -0.000039   0.422422  -0.025430   0.001400   0.000365   0.002017
     4  C    0.002841  -0.024083   0.001837  -0.000084  -0.000001   0.000161
     5  C   -0.047472   0.001774  -0.000143   0.000001   0.000000   0.000000
     6  C    0.386351  -0.000100   0.000001  -0.000000   0.000000  -0.000000
     7  N    6.550893   0.000000  -0.000000   0.000000  -0.000000   0.000000
     8  C    0.000000   4.640208   0.396663  -0.025100  -0.002285  -0.049632
     9  C   -0.000000   0.396663   4.977466   0.397100  -0.029877  -0.049227
    10  C    0.000000  -0.025100   0.397100   4.685247   0.399672   0.432688
    11  C   -0.000000  -0.002285  -0.029877   0.399672   5.004700  -0.026143
    12  C    0.000000  -0.049632  -0.049227   0.432688  -0.026143   4.648272
    13  C   -0.000000   0.003210   0.002501  -0.031915  -0.016004   0.394164
    14  C   -0.000000   0.402915  -0.063783  -0.048060  -0.003373   0.401121
    15  H   -0.000000  -0.000077  -0.000000  -0.000000   0.000000  -0.000000
    16  H    0.000008   0.000143   0.000037   0.000001   0.000000  -0.000000
    17  H    0.000004  -0.000162   0.000015   0.000000  -0.000000  -0.000000
    18  H   -0.000000  -0.011981   0.004327   0.000237   0.000006  -0.000007
    19  H    0.000000  -0.002017   0.000137   0.000066   0.000002  -0.000002
    20  H    0.000002  -0.029382   0.000433   0.000155  -0.000001   0.000180
    21  H    0.000005  -0.003895   0.000204  -0.000002  -0.000000  -0.000008
    22  H    0.000089  -0.004697   0.000253   0.000007  -0.000003  -0.000011
    23  H    0.009173   0.000085   0.000005   0.000000  -0.000000   0.000000
    24  H   -0.002283   0.000284   0.000002   0.000000  -0.000000  -0.000000
    25  H   -0.044089   0.000007   0.000000   0.000000   0.000000  -0.000000
    26  H   -0.023126   0.000004  -0.000000   0.000000   0.000000   0.000000
    27  H    0.340016   0.000000  -0.000000  -0.000000   0.000000   0.000000
    28  H    0.336687  -0.000000   0.000000  -0.000000  -0.000000  -0.000000
    29  H    0.000000   0.356259  -0.051937   0.002429  -0.000321   0.002124
    30  H    0.000000  -0.029561   0.351096  -0.025193   0.005410   0.001550
    31  H    0.000000  -0.021455   0.359422  -0.032019  -0.008747   0.004464
    32  H   -0.000000   0.003209  -0.036040   0.359684  -0.054545  -0.040574
    33  H   -0.000000   0.000381  -0.005718  -0.024125   0.372366  -0.007499
    34  H    0.000000   0.000006   0.003832  -0.020526   0.371596  -0.006623
    35  H    0.000000  -0.000402  -0.004546  -0.023689   0.371948   0.004314
    36  H   -0.000000   0.002605   0.004876  -0.041346   0.006449   0.361052
    37  H   -0.000000   0.000256   0.000417  -0.010760   0.005007  -0.021277
    38  H   -0.000000   0.000068  -0.000146   0.004400   0.000278  -0.019603
    39  H    0.000000  -0.000183   0.000057  -0.003110  -0.001125  -0.022922
    40  H   -0.000000  -0.027626  -0.000477   0.003803  -0.000135  -0.019294
    41  H   -0.000000  -0.020270   0.007162   0.001757   0.000407  -0.031925
              13         14         15         16         17         18
     1  C   -0.000000  -0.000095   0.365853   0.375347   0.378479  -0.043886
     2  C    0.000001   0.002637  -0.024473  -0.025844  -0.023667   0.371639
     3  C   -0.000040  -0.019707   0.002962  -0.007204  -0.000331  -0.024291
     4  C   -0.000000   0.000565   0.000019  -0.000635   0.000205   0.003929
     5  C    0.000000   0.000052   0.000461  -0.000232  -0.007196   0.000053
     6  C    0.000000   0.000002  -0.000014   0.000024   0.000436   0.000003
     7  N   -0.000000  -0.000000  -0.000000   0.000008   0.000004  -0.000000
     8  C    0.003210   0.402915  -0.000077   0.000143  -0.000162  -0.011981
     9  C    0.002501  -0.063783  -0.000000   0.000037   0.000015   0.004327
    10  C   -0.031915  -0.048060  -0.000000   0.000001   0.000000   0.000237
    11  C   -0.016004  -0.003373   0.000000   0.000000  -0.000000   0.000006
    12  C    0.394164   0.401121  -0.000000  -0.000000  -0.000000  -0.000007
    13  C    5.031841  -0.034603   0.000000  -0.000000   0.000000  -0.000000
    14  C   -0.034603   4.979499   0.000002  -0.000004   0.000000   0.000352
    15  H    0.000000   0.000002   0.630546  -0.032148  -0.033509  -0.010522
    16  H   -0.000000  -0.000004  -0.032148   0.601516  -0.033439  -0.000658
    17  H    0.000000   0.000000  -0.033509  -0.033439   0.582834   0.005772
    18  H   -0.000000   0.000352  -0.010522  -0.000658   0.005772   0.639946
    19  H   -0.000000  -0.000019   0.000937   0.005770  -0.007490  -0.039302
    20  H    0.000001  -0.014313  -0.000022   0.006587  -0.000077  -0.002893
    21  H   -0.000004   0.000964   0.000007  -0.000035  -0.000040  -0.000208
    22  H   -0.000000  -0.000297  -0.000007   0.000094   0.000101  -0.000053
    23  H   -0.000000  -0.000004   0.000120   0.000374   0.006085  -0.000030
    24  H   -0.000000  -0.000020  -0.000007   0.000835   0.000134  -0.000020
    25  H   -0.000000  -0.000001   0.000000   0.000000  -0.000009  -0.000000
    26  H   -0.000000   0.000000   0.000000   0.000000   0.000028  -0.000000
    27  H   -0.000000   0.000000   0.000000  -0.000002   0.000009  -0.000000
    28  H    0.000000   0.000000  -0.000000  -0.000000  -0.000000   0.000000
    29  H    0.000332  -0.044596   0.000004   0.000006   0.000003  -0.000071
    30  H   -0.000015  -0.004194   0.000016   0.000016  -0.000001   0.003739
    31  H   -0.000241   0.006843   0.000007   0.000004  -0.000004   0.000522
    32  H    0.003885   0.007854   0.000000   0.000000   0.000000   0.000001
    33  H    0.000092   0.002814   0.000000   0.000000   0.000000  -0.000002
    34  H    0.002948  -0.000138  -0.000000  -0.000000   0.000000  -0.000000
    35  H    0.000247   0.000065   0.000000  -0.000000  -0.000000   0.000000
    36  H   -0.053264  -0.039063   0.000000   0.000000   0.000000  -0.000001
    37  H    0.371689  -0.006127   0.000000  -0.000000   0.000000  -0.000000
    38  H    0.370009  -0.003769   0.000000  -0.000000  -0.000000   0.000000
    39  H    0.368283   0.004544  -0.000000   0.000000  -0.000000  -0.000000
    40  H    0.004979   0.348959   0.000000  -0.000002   0.000000   0.000017
    41  H   -0.013756   0.355775  -0.000000   0.000000  -0.000000  -0.000011
              19         20         21         22         23         24
     1  C   -0.042494  -0.007236  -0.000089  -0.000148  -0.001990   0.000649
     2  C    0.363722  -0.046254   0.004365  -0.008427  -0.000436  -0.001123
     3  C   -0.029640   0.342150  -0.027227  -0.026649  -0.003585  -0.001885
     4  C   -0.008748  -0.048763   0.355401   0.354353  -0.027705  -0.033417
     5  C   -0.000105  -0.005496  -0.034767  -0.033164   0.356955   0.370503
     6  C   -0.000015   0.000037  -0.004092  -0.004770  -0.037154  -0.044508
     7  N    0.000000   0.000002   0.000005   0.000089   0.009173  -0.002283
     8  C   -0.002017  -0.029382  -0.003895  -0.004697   0.000085   0.000284
     9  C    0.000137   0.000433   0.000204   0.000253   0.000005   0.000002
    10  C    0.000066   0.000155  -0.000002   0.000007   0.000000   0.000000
    11  C    0.000002  -0.000001  -0.000000  -0.000003  -0.000000  -0.000000
    12  C   -0.000002   0.000180  -0.000008  -0.000011   0.000000  -0.000000
    13  C   -0.000000   0.000001  -0.000004  -0.000000  -0.000000  -0.000000
    14  C   -0.000019  -0.014313   0.000964  -0.000297  -0.000004  -0.000020
    15  H    0.000937  -0.000022   0.000007  -0.000007   0.000120  -0.000007
    16  H    0.005770   0.006587  -0.000035   0.000094   0.000374   0.000835
    17  H   -0.007490  -0.000077  -0.000040   0.000101   0.006085   0.000134
    18  H   -0.039302  -0.002893  -0.000208  -0.000053  -0.000030  -0.000020
    19  H    0.655518   0.006930  -0.000034   0.005027   0.000253   0.000075
    20  H    0.006930   0.709707  -0.003329   0.006583  -0.000206   0.005499
    21  H   -0.000034  -0.003329   0.655928  -0.041853   0.006355  -0.004866
    22  H    0.005027   0.006583  -0.041853   0.652900  -0.006225   0.006545
    23  H    0.000253  -0.000206   0.006355  -0.006225   0.620683  -0.043571
    24  H    0.000075   0.005499  -0.004866   0.006545  -0.043571   0.663848
    25  H    0.000001   0.000007   0.004353  -0.000530   0.008521  -0.006928
    26  H   -0.000005   0.000008  -0.000512   0.005243  -0.009147   0.006330
    27  H   -0.000000  -0.000002   0.000010   0.000021  -0.001190   0.006549
    28  H   -0.000000   0.000000   0.000005   0.000004  -0.000105   0.000027
    29  H    0.002432   0.007367   0.000700   0.006869   0.000011   0.000026
    30  H    0.000362   0.002967   0.000004   0.000015  -0.000000   0.000000
    31  H    0.001099  -0.000141  -0.000004  -0.000006  -0.000000   0.000000
    32  H    0.000001   0.000004  -0.000000  -0.000000   0.000000   0.000000
    33  H    0.000003   0.000002  -0.000001  -0.000004  -0.000000  -0.000000
    34  H   -0.000000   0.000000  -0.000000   0.000000   0.000000   0.000000
    35  H   -0.000001   0.000000   0.000000   0.000000   0.000000   0.000000
    36  H   -0.000000  -0.000045   0.000003   0.000000  -0.000000   0.000000
    37  H   -0.000000  -0.000001   0.000001   0.000000  -0.000000   0.000000
    38  H    0.000000   0.000001   0.000000   0.000000  -0.000000   0.000000
    39  H    0.000000   0.000000  -0.000000   0.000000   0.000000   0.000000
    40  H    0.000015   0.010262   0.000463   0.000042   0.000001   0.000000
    41  H    0.000004   0.000065   0.001817   0.000124   0.000000   0.000004
              25         26         27         28         29         30
     1  C   -0.000013   0.000044   0.000010   0.000000  -0.000114  -0.000060
     2  C   -0.000003  -0.000022  -0.000000   0.000000  -0.000714  -0.004719
     3  C   -0.000003   0.000064  -0.000001   0.000001  -0.042584  -0.005214
     4  C    0.003264  -0.006315  -0.000261  -0.000290  -0.012277   0.000025
     5  C   -0.044801  -0.011783  -0.001798   0.005253   0.000331   0.000007
     6  C    0.370327   0.350128  -0.054257  -0.042912  -0.000009   0.000000
     7  N   -0.044089  -0.023126   0.340016   0.336687   0.000000   0.000000
     8  C    0.000007   0.000004   0.000000  -0.000000   0.356259  -0.029561
     9  C    0.000000  -0.000000  -0.000000   0.000000  -0.051937   0.351096
    10  C    0.000000   0.000000  -0.000000  -0.000000   0.002429  -0.025193
    11  C    0.000000   0.000000   0.000000  -0.000000  -0.000321   0.005410
    12  C   -0.000000   0.000000   0.000000  -0.000000   0.002124   0.001550
    13  C   -0.000000  -0.000000  -0.000000   0.000000   0.000332  -0.000015
    14  C   -0.000001   0.000000   0.000000   0.000000  -0.044596  -0.004194
    15  H    0.000000   0.000000   0.000000  -0.000000   0.000004   0.000016
    16  H    0.000000   0.000000  -0.000002  -0.000000   0.000006   0.000016
    17  H   -0.000009   0.000028   0.000009  -0.000000   0.000003  -0.000001
    18  H   -0.000000  -0.000000  -0.000000   0.000000  -0.000071   0.003739
    19  H    0.000001  -0.000005  -0.000000  -0.000000   0.002432   0.000362
    20  H    0.000007   0.000008  -0.000002   0.000000   0.007367   0.002967
    21  H    0.004353  -0.000512   0.000010   0.000005   0.000700   0.000004
    22  H   -0.000530   0.005243   0.000021   0.000004   0.006869   0.000015
    23  H    0.008521  -0.009147  -0.001190  -0.000105   0.000011  -0.000000
    24  H   -0.006928   0.006330   0.006549   0.000027   0.000026   0.000000
    25  H    0.699639  -0.052800  -0.004739  -0.004190   0.000002  -0.000000
    26  H   -0.052800   0.639760   0.006793  -0.001536  -0.000001  -0.000000
    27  H   -0.004739   0.006793   0.520923  -0.031090  -0.000000  -0.000000
    28  H   -0.004190  -0.001536  -0.031090   0.518186  -0.000000   0.000000
    29  H    0.000002  -0.000001  -0.000000  -0.000000   0.711618   0.007054
    30  H   -0.000000  -0.000000  -0.000000   0.000000   0.007054   0.657562
    31  H   -0.000000   0.000000   0.000000  -0.000000  -0.007179  -0.042419
    32  H    0.000000   0.000000  -0.000000   0.000000  -0.000033  -0.008607
    33  H   -0.000000   0.000000  -0.000000   0.000000   0.003638  -0.000007
    34  H    0.000000  -0.000000   0.000000  -0.000000  -0.000116  -0.000226
    35  H    0.000000  -0.000000  -0.000000  -0.000000   0.000301   0.000107
    36  H   -0.000000   0.000000  -0.000000   0.000000  -0.000234   0.001215
    37  H   -0.000000   0.000000  -0.000000   0.000000  -0.000158   0.000000
    38  H   -0.000000  -0.000000  -0.000000  -0.000000   0.000017   0.000004
    39  H    0.000000  -0.000000  -0.000000  -0.000000  -0.000003  -0.000002
    40  H    0.000000  -0.000000  -0.000000   0.000000   0.006738   0.001716
    41  H   -0.000000   0.000000   0.000000   0.000000  -0.011218  -0.000093
              31         32         33         34         35         36
     1  C    0.000050  -0.000000  -0.000000  -0.000000   0.000000  -0.000000
     2  C    0.000998   0.000014   0.000005   0.000000  -0.000001  -0.000002
     3  C   -0.002441  -0.000203  -0.000035  -0.000004  -0.000020   0.000068
     4  C   -0.000047   0.000000  -0.000013  -0.000000   0.000000  -0.000001
     5  C    0.000001  -0.000000  -0.000000   0.000000   0.000000  -0.000000
     6  C   -0.000000   0.000000   0.000000  -0.000000  -0.000000   0.000000
     7  N    0.000000  -0.000000  -0.000000   0.000000   0.000000  -0.000000
     8  C   -0.021455   0.003209   0.000381   0.000006  -0.000402   0.002605
     9  C    0.359422  -0.036040  -0.005718   0.003832  -0.004546   0.004876
    10  C   -0.032019   0.359684  -0.024125  -0.020526  -0.023689  -0.041346
    11  C   -0.008747  -0.054545   0.372366   0.371596   0.371948   0.006449
    12  C    0.004464  -0.040574  -0.007499  -0.006623   0.004314   0.361052
    13  C   -0.000241   0.003885   0.000092   0.002948   0.000247  -0.053264
    14  C    0.006843   0.007854   0.002814  -0.000138   0.000065  -0.039063
    15  H    0.000007   0.000000   0.000000  -0.000000   0.000000   0.000000
    16  H    0.000004   0.000000   0.000000  -0.000000  -0.000000   0.000000
    17  H   -0.000004   0.000000   0.000000   0.000000  -0.000000   0.000000
    18  H    0.000522   0.000001  -0.000002  -0.000000   0.000000  -0.000001
    19  H    0.001099   0.000001   0.000003  -0.000000  -0.000001  -0.000000
    20  H   -0.000141   0.000004   0.000002   0.000000   0.000000  -0.000045
    21  H   -0.000004  -0.000000  -0.000001  -0.000000   0.000000   0.000003
    22  H   -0.000006  -0.000000  -0.000004   0.000000   0.000000   0.000000
    23  H   -0.000000   0.000000  -0.000000   0.000000   0.000000  -0.000000
    24  H    0.000000   0.000000  -0.000000   0.000000   0.000000   0.000000
    25  H   -0.000000   0.000000  -0.000000   0.000000   0.000000  -0.000000
    26  H    0.000000   0.000000   0.000000  -0.000000  -0.000000   0.000000
    27  H    0.000000  -0.000000  -0.000000   0.000000  -0.000000  -0.000000
    28  H   -0.000000   0.000000   0.000000  -0.000000  -0.000000   0.000000
    29  H   -0.007179  -0.000033   0.003638  -0.000116   0.000301  -0.000234
    30  H   -0.042419  -0.008607  -0.000007  -0.000226   0.000107   0.001215
    31  H    0.646908   0.002567   0.000457   0.000021   0.004561  -0.000212
    32  H    0.002567   0.720383   0.006635  -0.003570  -0.002911  -0.013421
    33  H    0.000457   0.006635   0.601273  -0.033245  -0.032773  -0.000107
    34  H    0.000021  -0.003570  -0.033245   0.605003  -0.032559  -0.000027
    35  H    0.004561  -0.002911  -0.032773  -0.032559   0.609261  -0.000160
    36  H   -0.000212  -0.013421  -0.000107  -0.000027  -0.000160   0.717248
    37  H   -0.000006  -0.000149   0.001833   0.000353  -0.000074   0.006582
    38  H    0.000004  -0.000162  -0.000040  -0.000018  -0.000009  -0.003925
    39  H   -0.000000   0.001356   0.000222   0.002061  -0.000043  -0.002940
    40  H   -0.000136  -0.000237  -0.000025  -0.000001   0.000005  -0.015426
    41  H   -0.000216  -0.000175  -0.000355  -0.000007   0.000003   0.006452
              37         38         39         40         41
     1  C   -0.000000   0.000000   0.000000  -0.000017   0.000002
     2  C    0.000000   0.000000  -0.000000   0.000502  -0.000070
     3  C   -0.000004   0.000001   0.000000  -0.013118   0.002684
     4  C   -0.000001  -0.000000   0.000000  -0.000301  -0.000853
[...]
 077054,-0.00050866,0.00034102,-0.00001615,-0.00006588,0.00296928,-0.00
 046489,-0.00213036,0.10155235,0.16953810,-0.00000040,0.00000112,-0.000
 00306,-0.00000682,0.00000906,0.00000510,-0.00000663,0.00003441,0.00002
 415,-0.00001285,-0.00001112,0.00000873,-0.00000357,0.00000418,-0.00000
 158,-0.00000909,-0.00000183,-0.00000651,0.00001066,0.00000043,0.000003
 44,-0.00015810,0.00003612,0.00004367,-0.00004513,-0.00016748,0.0000598
 0,0.00044957,0.00130844,0.00031767,0.00060286,-0.00024770,0.00001947,0
 .00998739,0.01163774,-0.01036346,0.07457106,0.08820945,-0.11798884,-0.
 00138032,-0.00010050,0.00052656,0.00000337,-0.00000244,-0.00000378,-0.
 00000325,-0.00000137,0.00000120,-0.00000160,0.00000093,0.00000099,0.00
 000006,0.00000106,-0.00000672,0.00000197,-0.00000915,0.00000069,-0.000
 03010,-0.00001360,0.00000479,-0.00000113,0.00000636,-0.00001607,0.0000
 1126,-0.00000902,-0.00000052,0.00000343,0.00000122,0.00000022,-0.00000
 183,-0.00000767,-0.00000158,0.00000212,0.00000106,-0.00000126,0.000002
 43,-0.00000229,0.00000129,-0.00000185,-0.00000060,-0.00000167,-0.00000
 164,0.00000190,0.00000294,0.00004881,-0.00008709,0.00001357,-0.0002447
 4,-0.00000937,0.00006138,0.00002731,-0.00015018,-0.00002285,-0.0000288
 3,-0.00008505,0.00011577,0.00008837,-0.00028301,0.00007578,-0.00091417
 ,-0.00033984,-0.00065418,-0.00042187,0.00013933,0.00029528,0.00258265,
 -0.00230217,-0.00115110,-0.08514342,-0.09645382,0.12713036,-0.00000069
 ,-0.00000834,-0.00002524,0.00003053,-0.00000072,0.00004463,-0.00002117
 ,-0.00000791,-0.00007673,-0.00003276,-0.00000689,0.00000673,-0.0000080
 6,0.00002290,-0.00000725,-0.00000921,-0.00000782,-0.00001024,0.0000110
 2,0.00000260,0.00000436,0.00020030,-0.00020622,0.00026897,0.00058799,0
 .00103376,0.00099661,-0.00421721,0.00145122,0.00121692,-0.00077138,-0.
 00023290,-0.00014055,0.01050446,0.01769442,0.01723176,-0.08906968,-0.0
 7003069,-0.06802195,0.00126449,-0.00032968,-0.00003278,0.00000703,-0.0
 0000279,-0.00000313,-0.00000131,0.00000019,0.00000193,-0.00000896,0.00
 000194,-0.00000012,0.00000864,0.00000183,-0.00003372,0.00000163,-0.000
 00236,-0.00000033,-0.00000330,0.00000073,0.00000969,0.00000022,0.00000
 881,-0.00001999,0.00000683,-0.00000796,-0.00000474,0.00000614,-0.00000
 357,0.00000112,-0.00000524,-0.00001423,0.00000116,0.00000091,0.0000021
 0,-0.00000154,0.00000302,-0.00000275,0.00000300,-0.00000429,-0.0000005
 3,-0.00000378,-0.00000086,0.00000037,0.00000258,0.00000596,-0.00004611
 ,-0.00007004,0.00001009,-0.00002095,0.00001493,-0.00049287,0.00030284,
 0.00016480,0.00003248,0.00001680,0.00021107,0.00003183,0.00006913,-0.0
 0004031,0.00055974,-0.00007505,-0.00001014,0.00027032,-0.00004071,-0.0
 0010197,0.00123800,-0.00055573,-0.00058808,-0.00772734,-0.01051269,-0.
 01164097,0.09618993,-0.00000581,0.00000542,0.00002403,-0.00002012,-0.0
 0000023,-0.00004199,-0.00000970,0.00002777,0.00008658,0.00005755,-0.00
 000152,-0.00003943,-0.00000034,-0.00004391,0.00002090,0.00003039,0.000
 00586,-0.00003158,-0.00001190,0.00000013,0.00002223,-0.00000843,-0.000
 06125,-0.00022921,-0.00046683,-0.00047745,-0.00067205,0.00273400,0.000
 17851,-0.00023212,0.00016671,0.00039311,-0.00016513,-0.00684076,-0.011
 02217,-0.00946104,-0.06945940,-0.15844240,-0.10809833,-0.00075687,0.00
 073969,0.00008106,-0.00000093,0.00000092,0.00000108,0.00000314,0.00000
 254,-0.00000419,0.00001836,-0.00000630,0.00000460,-0.00000789,0.000004
 20,0.00005540,-0.00000150,0.00000583,-0.00000206,0.00000871,-0.0000056
 7,-0.00001200,-0.00001180,-0.00001305,0.00001498,-0.00000108,0.0000071
 8,0.00001348,-0.00001107,0.00000656,0.00000300,0.00000822,0.00002090,-
 0.00000807,-0.00001015,-0.00000455,0.00001784,-0.00000792,0.00000745,0
 .00000195,0.00000946,0.00000392,-0.00000435,0.00000980,0.00000034,0.00
 000089,-0.00001024,0.00006298,0.00005470,0.00007693,-0.00000305,-0.000
 00879,0.00034692,-0.00016206,-0.00000200,0.00000290,-0.00010235,-0.000
 37862,-0.00009520,0.00010404,0.00006987,0.00022021,-0.00009145,0.00014
 838,0.00010897,-0.00006114,-0.00010276,0.00026331,0.00096399,0.0003224
 0,-0.00845717,-0.01401256,-0.01373971,0.07499218,0.17091145,-0.0000092
 2,-0.00000809,0.00002092,0.00000341,0.00001745,-0.00003494,-0.00003231
 ,-0.00003315,0.00007742,0.00002983,0.00000594,-0.00001227,-0.00000039,
 -0.00005182,0.00001786,-0.00000839,0.00000153,-0.00002169,0.00002138,0
 .00000776,0.00001361,0.00007351,0.00000075,-0.00039585,-0.00068560,-0.
 00085932,-0.00057644,0.00380643,-0.00046303,0.00028834,0.00039715,0.00
 041756,0.00020126,-0.00717978,-0.01115945,-0.01212206,-0.06762038,-0.1
 0805126,-0.15145122,-0.00026158,0.00065085,0.00056071,0.00000585,-0.00
 000274,-0.00000462,0.00000546,0.00000554,-0.00000380,0.00001796,-0.000
 00287,0.00000485,-0.00000998,0.00000055,0.00004980,-0.00000095,0.00000
 548,-0.00000138,0.00001130,0.00000777,-0.00001350,-0.00000002,0.000001
 36,-0.00000951,0.00001333,-0.00000028,0.00000388,-0.00000004,0.0000045
 4,-0.00000065,-0.00000143,0.00001598,0.00000056,0.00000307,-0.00000072
 ,0.00000322,-0.00000185,0.00000530,-0.00000187,-0.00000115,-0.00000038
 ,0.00000382,0.00000313,0.00000326,0.00000516,0.00000245,0.00002231,0.0
 0007091,0.00002181,0.00004252,-0.00002958,0.00041013,-0.00026145,-0.00
 002109,-0.00007679,0.00018748,0.00016840,0.00006370,-0.00021049,0.0000
 4604,-0.00016083,0.00018258,-0.00009989,-0.00016682,-0.00003634,0.0000
 9214,-0.00031834,0.00054184,0.00018090,0.00708414,0.01172913,0.0115938
 8,0.07212799,0.12119138,0.16404992,0.00001747,0.00005799,0.00006363,-0
 .00019666,-0.00005764,-0.00006949,0.00014157,0.00033151,0.00022539,0.0
 0005330,0.00000561,0.00002056,0.00001957,0.00001754,-0.00000650,0.0000
 3167,0.00000408,0.00003990,-0.00005280,-0.00001152,-0.00002124,-0.0006
 3705,0.00021684,-0.00127580,-0.00015558,-0.00018376,-0.00016350,0.0007
 6869,-0.00066173,-0.00052403,0.00020293,0.00006727,0.00032376,-0.01473
 979,0.01166967,-0.01604223,-0.14021964,0.07691801,-0.09672302,-0.00174
 695,0.00186756,0.00448261,-0.00004212,0.00001422,0.00001882,-0.0000067
 4,-0.00001017,-0.00000163,0.00000028,-0.00000417,-0.00000765,0.0000079
 9,-0.00000271,0.00001748,0.00000374,-0.00000218,-0.00000446,-0.0000076
 2,-0.00003031,-0.00000153,0.00001200,-0.00003446,0.00006985,-0.0000368
 2,0.00001979,0.00000707,-0.00001629,0.00000266,-0.00000015,0.00001284,
 0.00001098,-0.00000551,-0.00000730,-0.00000376,0.00000264,-0.00000675,
 0.00000343,-0.00000223,0.00001118,0.00000360,0.00000179,0.00000322,-0.
 00000660,-0.00001129,-0.00011413,0.00029664,0.00017005,-0.00002834,-0.
 00001686,0.00003351,0.00009785,-0.00002427,0.00009945,0.00015293,0.000
 22909,0.00063440,-0.00003291,-0.00008081,-0.00004286,0.00006117,0.0001
 1295,-0.00004133,0.00000908,0.00006183,-0.00004929,0.00044364,-0.00075
 286,-0.00021016,0.01158104,-0.00889127,0.01157227,-0.00838345,0.006722
 70,-0.00813067,0.15256365,-0.00000810,-0.00004393,-0.00004940,0.000149
 75,0.00003390,0.00006343,-0.00005096,-0.00027815,-0.00022989,-0.000056
 31,-0.00000504,-0.00001203,-0.00001305,-0.00001215,-0.00000028,-0.0000
 1785,-0.00000339,-0.00002597,0.00002996,0.00000607,0.00001433,0.000701
 62,0.00014315,0.00057874,0.00010920,0.00008004,0.00007871,-0.00008783,
 0.00050182,0.00099922,0.00035646,-0.00032797,0.00003491,0.00860083,-0.
 00885336,0.01047387,0.07688659,-0.11108700,0.08076489,0.00175289,-0.00
 039511,-0.00226909,0.00003005,-0.00000911,-0.00001259,0.00000173,0.000
 00578,0.00000176,-0.00000357,0.00000279,0.00000455,-0.00000286,0.00000
 289,-0.00002069,-0.00000197,-0.00000580,0.00000194,-0.00001199,0.00000
 853,0.00000211,-0.00000798,0.00002403,-0.00004720,0.00002353,-0.000011
 96,-0.00000521,0.00001077,0.00000093,0.00000071,-0.00000831,-0.0000071
 5,0.00000043,0.00000407,0.00000071,-0.00000057,0.00000320,-0.00000134,
 0.00000248,-0.00000420,-0.00000163,-0.00000246,-0.00000169,0.00000405,
 0.00000694,0.00003079,-0.00011495,-0.00003882,-0.00003744,0.00000430,-
 0.00000549,-0.00007454,0.00000226,-0.00007164,-0.00004062,-0.00004213,
 -0.00052691,-0.00006038,0.00026622,-0.00011162,-0.00040221,-0.00028372
 ,0.00009864,-0.00019908,0.00009903,-0.00006914,-0.00027741,0.00067733,
 -0.00038270,0.01321967,-0.01049036,0.01291270,-0.01325256,0.01145629,-
 0.01363943,-0.08770078,0.11859078,0.00000238,-0.00000864,-0.00002311,0
 .00005955,0.00000042,0.00000405,-0.00002679,-0.00016041,-0.00003513,-0
 .00000013,-0.00001894,-0.00003267,-0.00000326,-0.00001042,0.00000311,0
 .00002278,0.00000410,-0.00000974,-0.00001823,-0.00000371,0.00000733,0.
 00062272,-0.00056282,0.00049842,0.00012574,0.00033316,0.00025274,-0.00
 041890,-0.00000260,0.00109229,-0.00019828,0.00009411,0.00002530,0.0111
 7282,-0.00934643,0.01201711,-0.09702822,0.08128735,-0.14809166,0.00207
 872,-0.00135260,-0.00181592,0.00000695,0.00000107,-0.00000024,0.000000
 64,-0.00000038,-0.00000088,-0.00000347,-0.00000132,0.00000049,0.000002
 73,0.00000040,-0.00000903,-0.00000121,0.00000506,0.00000364,-0.0000018
 1,0.00001529,-0.00000766,-0.00001735,0.00000988,-0.00000912,0.00000472
 ,0.00000310,-0.00000377,-0.00000436,0.00000278,0.00000336,0.00000251,0
 .00000660,-0.00000320,-0.00000862,-0.00000268,0.00000927,-0.00000387,0
 .00000301,0.00000103,0.00000685,0.00000196,-0.00000268,0.00000602,-0.0
 0000099,-0.00000295,0.00003889,-0.00011939,-0.00004536,0.00002207,-0.0
 0000391,-0.00001746,-0.00007825,0.00006795,0.00000654,-0.00010602,0.00
 029516,-0.00002555,0.00011255,-0.00007242,-0.00000782,0.00009175,0.000
 01401,-0.00004193,0.00002483,-0.00000008,0.00004653,-0.00078606,0.0004
 1961,0.00075246,-0.01024822,0.00676225,-0.01075487,-0.01122416,0.01086
 563,-0.01310143,0.10570182,-0.08813941,0.15898362,-0.00002893,-0.00006
 771,-0.00004599,0.00030358,0.00023017,-0.00007594,0.00020518,0.0010033
 8,-0.00024020,-0.00012629,0.00076920,-0.00035681,-0.00007476,0.0001976
 4,-0.00012531,0.00005674,0.00004938,-0.00004765,-0.00003955,-0.0000059
 3,0.00003284,0.00924294,0.00769460,0.00438701,-0.00061936,0.00096937,0
 .00087028,-0.00158465,0.00280236,-0.00110630,0.00034445,0.00013462,0.0
 0002807,-0.01330503,-0.01208731,-0.00613410,-0.00022429,-0.00032740,-0
 .00087384,-0.18588271,-0.11255305,-0.06528471,0.00004268,-0.00001631,0
 .00000471,-0.00001500,0.00000541,-0.00000713,0.00002202,-0.00001423,0.
 00001045,-0.00000261,-0.00000095,0.00001926,-0.00011183,-0.00003668,0.
 00008309,0.00055700,-0.00014298,0.00001428,-0.00058658,0.00030368,0.00
 018546,-0.00008223,0.00003437,0.00018470,-0.00001044,-0.00008668,0.000
 05588,-0.00004980,-0.00000673,-0.00001222,-0.00002145,-0.00001450,0.00
 004830,-0.00001232,0.00001277,0.00000531,0.00001722,0.00000232,-0.0000
 0687,0.00001431,-0.00000235,-0.00000295,-0.00028841,0.00148658,0.00081
 505,0.00008204,-0.00001013,0.00006485,0.00019737,-0.00017649,0.0003068
 9,-0.00019231,-0.00065295,-0.00075633,0.00006202,0.00016435,0.00006845
 ,-0.00002641,0.00001587,-0.00005352,-0.00004295,-0.00006944,-0.0000410
 5,0.00180903,0.00030391,0.00042160,0.00024043,0.00001656,-0.00014876,-
 0.00017001,0.00050712,0.00040178,0.00000383,0.00060385,0.00016299,0.20
 286139,-0.00000592,0.00007733,-0.00000737,-0.00003965,0.00019362,-0.00
 006923,-0.00177795,0.00106116,0.00030065,0.00074986,0.00001801,-0.0005
 4507,0.00020120,-0.00010004,0.00025354,0.00015501,0.00010724,0.0000901
 7,-0.00012182,-0.00002279,-0.00000506,-0.01474483,-0.01428734,-0.00557
 876,0.00032274,-0.00176574,-0.00029272,0.00254253,-0.00196547,0.001303
 98,-0.00004248,-0.00010963,0.00040768,0.01496144,0.01034062,0.00811406
 ,-0.00024855,0.00038210,0.00043213,-0.11204467,-0.13331368,-0.05410089
 ,-0.00000627,-0.00000564,0.00003344,0.00003099,-0.00000443,-0.00001528
 ,0.00006409,-0.00003993,0.00001863,-0.00003036,0.00004296,0.00013467,-
 0.00007029,0.00020235,0.00005829,0.00077142,0.00042004,-0.00024636,0.0
 0004216,-0.00079188,0.00070224,-0.00037288,0.00018343,0.00018433,-0.00
 015325,0.00002934,-0.00001906,0.00022717,0.00023741,-0.00002272,-0.000
 02778,-0.00002468,0.00005354,-0.00004626,0.00002294,-0.00003145,0.0000
 3277,0.00001409,0.00000410,0.00001518,-0.00001293,-0.00002231,0.001124
 31,-0.00234530,-0.00272681,-0.00004995,0.00014646,-0.00023171,-0.00029
 672,0.00028480,-0.00067090,0.00006213,0.00053072,0.00063515,0.00012439
 ,0.00015124,-0.00016043,-0.00007251,0.00002218,-0.00001938,0.00004613,
 0.00016625,-0.00011586,-0.00005348,0.00156128,-0.00054207,0.00006155,-
 0.00004638,0.00005234,-0.00015146,-0.00008166,-0.00023522,-0.00012151,
 -0.00019439,-0.00007199,0.11886634,0.14630537,0.00002281,0.00005004,0.
 00006771,-0.00003206,0.00021267,-0.00024901,-0.00176235,-0.00038592,0.
 00108271,0.00001502,0.00027124,0.00050789,0.00006625,-0.00018008,-0.00
 000838,-0.00005787,0.00009416,0.00009898,0.00001773,0.00000368,-0.0000
 3404,-0.01159108,-0.00903968,-0.00521186,-0.00044718,-0.00103733,-0.00
 117261,-0.00159469,0.00162480,-0.00252044,0.00019986,0.00037814,-0.000
 22561,-0.01344682,-0.00988014,-0.00775708,0.00006842,0.00010475,-0.000
 58169,-0.06368973,-0.05321181,-0.07592719,-0.00002743,0.00000960,0.000
 02121,0.00002631,-0.00000398,-0.00002013,0.00002793,-0.00000755,0.0000
 0139,-0.00002732,-0.00000012,0.00008910,-0.00001539,0.00017739,0.00006
 481,0.00046477,0.00047143,-0.00046112,-0.00020821,0.00026720,-0.000001
 52,-0.00005789,0.00007819,-0.00003914,0.00001660,0.00001508,-0.0000105
 9,0.00006539,0.00011856,0.00009196,0.00001949,0.00000217,-0.00004827,-
 0.00000496,0.00000545,-0.00004796,-0.00000776,-0.00000377,0.00002726,-
 0.00000380,0.00000055,-0.00000636,0.00023266,-0.00117272,-0.00098098,-
 0.00000352,0.00007440,-0.00034595,-0.00008809,0.00010885,-0.00073407,-
 0.00044359,-0.00058213,-0.00083735,-0.00000094,-0.00023679,0.00017927,
 -0.00003506,-0.00001176,0.00006257,-0.00000037,-0.00014167,0.00015636,
 0.00023579,-0.00053265,0.00075640,-0.00013228,0.00000949,0.00010026,-0
 .00008651,0.00004292,0.00028716,-0.00013777,0.00011273,0.00011076,0.07
 285319,0.05706087,0.08450583,0.00002996,0.00019134,0.00015359,-0.00058
 701,0.00018216,-0.00039537,-0.00009529,0.00141799,0.00185924,-0.000189
 43,-0.00015774,0.00065255,0.00007204,-0.00021576,-0.00021073,-0.000129
 60,0.00001886,0.00011604,0.00005158,0.00001820,-0.00005834,-0.00524099
 ,-0.00427820,0.00775669,-0.00110951,0.00080592,-0.00031149,0.00018332,
 0.00002006,-0.00016400,-0.00024404,-0.00051984,0.00007236,0.01010519,0
 .00946661,-0.01565742,0.00207263,0.00043668,-0.00074984,-0.11021324,-0
 .04904043,0.09887897,-0.00011084,0.00002027,0.00002110,0.00000453,-0.0
 0002220,-0.00000754,-0.00003839,0.00001529,-0.00002047,0.00002740,-0.0
 0007087,-0.00004979,-0.00003803,0.00013278,0.00007314,0.00046684,0.000
 20521,-0.00025795,-0.00026248,0.00001722,-0.00038978,0.00007900,0.0000
 1650,-0.00013423,0.00007720,0.00010518,-0.00000252,0.00004193,0.000139
 82,0.00004464,0.00003862,-0.00000824,-0.00007273,-0.00000526,0.0000056
 9,-0.00003450,-0.00000691,-0.00000268,0.00002976,-0.00001693,-0.000000
 05,-0.00000082,0.00113784,0.00007073,-0.00062387,0.00000293,-0.0000229
 1,0.00002177,0.00016287,-0.00010878,0.00020548,-0.00004535,-0.00025730
 ,0.00000414,-0.00033269,-0.00018561,-0.00040192,-0.00001246,0.00000552
 ,-0.00005841,-0.00007302,0.00003119,0.00002910,-0.00163788,0.00229527,
 -0.00274181,-0.00004984,-0.00048255,0.00024147,-0.00004375,-0.00009245
 ,0.00016273,0.00023129,-0.00019326,-0.00009284,-0.01256430,-0.00992282
 ,0.01957041,0.11826208,0.00000441,-0.00025876,-0.00013025,0.00084159,0
 .00018880,0.00011162,-0.00021078,-0.00175322,-0.00244309,-0.00018710,-
 0.00002295,0.00041758,-0.00001960,-0.00017668,0.00004966,-0.00002523,0
 .00004768,0.00004384,0.00002229,0.00000271,-0.00000907,0.01301932,0.00
 623696,-0.02019156,0.00141793,-0.00202384,-0.00113008,0.00001080,-0.00
 032382,-0.00013635,-0.00022561,0.00020522,-0.00001412,-0.00826925,-0.0
 0999801,0.01398850,-0.00133492,0.00089836,0.00033447,-0.04950727,-0.08
 012259,0.07561760,0.00011707,-0.00002603,-0.00001880,-0.00001056,0.000
 01359,-0.00000693,0.00002997,-0.00000786,0.00001155,-0.00003480,0.0000
 5521,0.00003578,-0.00003115,-0.00002599,0.00003515,0.00005698,0.000146
 91,-0.00012447,0.00044728,-0.00003871,0.00007733,0.00004732,0.00002126
 ,-0.00004630,-0.00002117,0.00002323,-0.00002250,0.00002784,0.00009164,
 0.00002000,0.00001429,0.00000264,-0.00001624,-0.00000214,0.00000629,-0
 .00002571,-0.00000346,-0.00000110,0.00001657,-0.00000158,0.00000458,0.
 00000189,0.00036836,0.00173295,-0.00027931,0.00000148,0.00008144,-0.00
 020786,-0.00030365,0.00008663,-0.00058488,0.00001509,0.00019887,0.0000
 8197,-0.00021191,0.00001071,-0.00025105,-0.00000199,-0.00004171,0.0000
 3273,0.00008525,0.00009244,-0.00000165,0.00314124,-0.00122135,0.002788
 54,0.00079025,0.00017404,-0.00033286,-0.00008119,-0.00031631,-0.000032
 82,-0.00003661,0.00025776,-0.00031375,-0.00990201,-0.00738904,0.015133
 73,0.04996320,0.09316804,-0.00003195,-0.00018859,-0.00013131,0.0005984
 8,0.00021024,0.00021669,-0.00041220,-0.00129788,-0.00118711,0.00021718
 ,-0.00014773,-0.00050511,-0.00009022,-0.00007720,0.00016475,0.00003927
 ,0.00003313,-0.00002344,-0.00000393,-0.00000418,0.00002984,0.00736936,
 0.00606649,-0.01144192,0.00029563,-0.00199344,-0.00089154,0.00062724,0
 .00039393,-0.00018475,-0.00007313,0.00051634,-0.00049683,0.00998517,0.
 00917246,-0.01411182,0.00135607,-0.00131728,0.00096286,0.09836255,0.07
 544824,-0.20388083,0.00009419,-0.00001316,-0.00001860,-0.00000144,0.00
 001776,-0.00000246,0.00003550,-0.00001327,0.00001994,-0.00004685,0.000
 05064,0.00005781,-0.00000795,-0.00003550,0.00000910,-0.00008385,0.0000
 3354,-0.00001946,-0.00012216,0.00003367,0.00029578,-0.00000533,0.00000
 348,0.00005448,-0.00006954,-0.00000558,-0.00001592,0.00001381,0.000051
 18,-0.00000802,-0.00000988,0.00000300,0.00002125,-0.00000216,0.0000034
 2,-0.00000562,0.00000460,0.00000136,-0.00000623,0.00000847,0.00000355,
 0.00000257,-0.00026591,-0.00020390,0.00155595,-0.00003184,0.00006936,0
 .00010142,-0.00019739,-0.00001487,-0.00070512,-0.00035514,-0.00022970,
 -0.00007269,-0.00029551,-0.00075571,0.00015458,-0.00005380,-0.00007224
 ,0.00011465,0.00005006,-0.00019030,0.00030902,-0.00248909,0.00112095,-
 0.00170525,-0.00107007,0.00021822,0.00057106,-0.00016402,0.00019011,0.
 00016103,-0.00001268,-0.00049251,0.00022412,-0.00570474,-0.00410915,0.
 00900973,-0.10745680,-0.08247888,0.22137740\\0.00000011,-0.00000021,0.
 00000060,-0.00000030,0.00000056,-0.00000038,0.00000045,0.00000009,-0.0
 0000019,0.00000125,-0.00000143,-0.00000042,0.00000006,-0.00000167,-0.0
 0000042,0.00000015,-0.00000107,-0.00000040,0.00000059,0.00000015,-0.00
 000172,-0.00000045,-0.00000032,-0.00000011,0.00000031,0.00000072,0.000
 00148,-0.00000123,-0.00000185,-0.00000212,0.00000037,0.00000103,-0.000
 00007,0.00000259,0.00000152,0.00000153,-0.00000044,0.00000034,0.000000
 67,-0.00000191,0.00000131,0.00000079,-0.00000045,-0.00000061,-0.000000
 42,-0.00000021,-0.00000040,0.00000008,0.00000050,-0.00000022,-0.000000
 25,0.00000013,-0.00000043,-0.00000017,-0.00000075,0.00000018,0.0000000
 9,-0.00000035,-0.00000025,0.00000022,-0.00000101,-0.00000003,0.0000002
 5,-0.00000069,0.00000054,0.00000017,0.00000068,0.00000054,-0.00000006,
 -0.00000081,-0.00000029,0.00000013,0.00000018,0.00000020,0.00000034,-0
 .00000082,-0.00000102,0.00000021,0.00000031,-0.00000053,0.00000085,0.,
 -0.00000107,0.00000048,-0.00000003,0.00000095,-0.00000016,0.00000002,-
 0.00000059,0.00000004,-0.00000098,0.00000014,-0.00000143,0.00000004,0.
 00000089,-0.00000003,-0.00000019,0.00000044,-0.00000003,0.00000051,0.0
 0000077,-0.00000012,0.00000009,0.00000038,-0.00000007,-0.00000052,-0.0
 0000028,0.00000038,0.00000014,0.00000046,0.00000010,0.00000040,0.00000
 031,0.00000028,0.00000059,0.00000065,0.00000007,0.00000091,-0.00000004
 ,-0.00000013,0.00000075,0.00000016,-0.00000006\\\@


 ERROR IS THE FORCE THAT WELDS MEN TOGETHER....
 TRUTH IS COMMUNICATED TO MEN ONLY BY DEEDS OF TRUTH.
           TOLSTOI,MY RELIGION
 Job cpu time:       0 days 13 hours 25 minutes 38.4 seconds.
 Elapsed time:       0 days  3 hours 21 minutes 26.6 seconds.
 File lengths (MBytes):  RWF=    786 Int=      0 D2E=      0 Chk=     24 Scr=      1
 Normal termination of Gaussian 16 at Tue May 23 02:15:05 2023.
### All Done ###
