### Starting Gaussian ###
 Entering Gaussian System, Link 0=g16
 Initial command:
 /cluster/software/gaussian/gaussian-16-A.03/avx2/g16/l1.exe "/local/scratch/ks29c/Gau-6317.inp" -scrdir="/local/scratch/ks29c/"
 Entering Link 1 = /cluster/software/gaussian/gaussian-16-A.03/avx2/g16/l1.exe PID=      6320.
  
 Copyright (c) 1988,1990,1992,1993,1995,1998,2003,2009,2016,
            Gaussian, Inc.  All Rights Reserved.
  
 This is part of the Gaussian(R) 16 program.  It is based on
 the Gaussian(R) 09 system (copyright 2009, Gaussian, Inc.),
 the Gaussian(R) 03 system (copyright 2003, Gaussian, Inc.),
 the Gaussian(R) 98 system (copyright 1998, Gaussian, Inc.),
 the Gaussian(R) 94 system (copyright 1995, Gaussian, Inc.),
 the Gaussian 92(TM) system (copyright 1992, Gaussian, Inc.),
 the Gaussian 90(TM) system (copyright 1990, Gaussian, Inc.),
 the Gaussian 88(TM) system (copyright 1988, Gaussian, Inc.),
 the Gaussian 86(TM) system (copyright 1986, Carnegie Mellon
 University), and the Gaussian 82(TM) system (copyright 1983,
 Carnegie Mellon University). Gaussian is a federally registered
 trademark of Gaussian, Inc.
  
 This software contains proprietary and confidential information,
 including trade secrets, belonging to Gaussian, Inc.
  
 This software is provided under written license and may be
 used, copied, transmitted, or stored only in accord with that
 written license.
  
 The following legend is applicable only to US Government
 contracts under FAR:
  
                    RESTRICTED RIGHTS LEGEND
  
 Use, reproduction and disclosure by the US Government is
 subject to restrictions as set forth in subparagraphs (a)
 and (c) of the Commercial Computer Software - Restricted
 Rights clause in FAR 52.227-19.
  
 Gaussian, Inc.
 340 Quinnipiac St., Bldg. 40, Wallingford CT 06492
  
  
 ---------------------------------------------------------------
 Warning -- This program may not be used in any manner that
 competes with the business of Gaussian, Inc. or will provide
 assistance to any competitor of Gaussian, Inc.  The licensee
 of this program is prohibited from giving any competitor of
 Gaussian, Inc. access to this program.  By using this program,
 the user acknowledges that Gaussian, Inc. is engaged in the
 business of creating and licensing software in the field of
 computational chemistry and represents and warrants to the
 licensee that it is not a competitor of Gaussian, Inc. and that
 it will not use this program in any manner prohibited above.
 ---------------------------------------------------------------
  

 Cite this work as:
 Gaussian 16, Revision A.03,
 M. J. Frisch, G. W. Trucks, H. B. Schlegel, G. E. Scuseria, 
 M. A. Robb, J. R. Cheeseman, G. Scalmani, V. Barone, 
 G. A. Petersson, H. Nakatsuji, X. Li, M. Caricato, A. V. Marenich, 
 J. Bloino, B. G. Janesko, R. Gomperts, B. Mennucci, H. P. Hratchian, 
 J. V. Ortiz, A. F. Izmaylov, J. L. Sonnenberg, D. Williams-Young, 
 F. Ding, F. Lipparini, F. Egidi, J. Goings, B. Peng, A. Petrone, 
 T. Henderson, D. Ranasinghe, V. G. Zakrzewski, J. Gao, N. Rega, 
 G. Zheng, W. Liang, M. Hada, M. Ehara, K. Toyota, R. Fukuda, 
 J. Hasegawa, M. Ishida, T. Nakajima, Y. Honda, O. Kitao, H. Nakai, 
 T. Vreven, K. Throssell, J. A. Montgomery, Jr., J. E. Peralta, 
 F. Ogliaro, M. J. Bearpark, J. J. Heyd, E. N. Brothers, K. N. Kudin, 
 V. N. Staroverov, T. A. Keith, R. Kobayashi, J. Normand, 
 K. Raghavachari, A. P. Rendell, J. C. Burant, S. S. Iyengar, 
 J. Tomasi, M. Cossi, J. M. Millam, M. Klene, C. Adamo, R. Cammi, 
 J. W. Ochterski, R. L. Martin, K. Morokuma, O. Farkas, 
 J. B. Foresman, and D. J. Fox, Gaussian, Inc., Wallingford CT, 2016.
 
 ******************************************
 Gaussian 16:  ES64L-G16RevA.03 25-Dec-2016
                27-May-2023 
 ******************************************
 %chk=CCCqCrCCqCCNCCCCNCrOCdO.chk
 %NProcShared=20
 Will use up to   20 processors via shared memory.
 -----------------------------
 # opt freq b3lyp/6-31g(2df,p)
 -----------------------------
 1/18=20,19=15,26=3,38=1/1,3;
 2/9=110,12=2,17=6,18=5,40=1/2;
 3/5=1,6=6,7=104,11=2,25=1,30=1,71=1,74=-5/1,2,3;
 4//1;
 5/5=2,38=5/2;
 6/7=2,8=2,9=2,10=2,28=1/1;
 7//1,2,3,16;
 1/18=20,19=15,26=3/3(2);
 2/9=110/2;
 99//99;
 2/9=110/2;
 3/5=1,6=6,7=104,11=2,25=1,30=1,71=1,74=-5/1,2,3;
 4/5=5,16=3,69=1/1;
 5/5=2,38=5/2;
 7//1,2,3,16;
 1/18=20,19=15,26=3/3(-5);
 2/9=110/2;
 6/7=2,8=2,9=2,10=2,19=2,28=1/1;
 99/9=1/99;
 -------------------
 Title Card Required
 -------------------
 Symbolic Z-matrix:
 Charge =  0 Multiplicity = 1
 C                     0.91191   0.0551   -0.16961 
 C                     2.44976   0.04466  -0.18775 
 C                     2.97139  -0.50157   1.13375 
 C                     2.44017  -1.94702   1.08139 
 C                     4.49621  -0.4565    1.33728 
 C                     5.00152  -0.76958   2.79425 
 C                     4.50367  -2.11358   3.35824 
 C                     3.02817  -2.05628   3.81818 
 N                     2.47915  -3.41324   3.80938 
 C                     1.03042  -3.46193   3.62329 
 C                     0.50509  -4.85649   3.92382 
 C                    -1.02249  -4.86287   3.8902 
 C                    -1.54049  -6.24176   4.27267 
 N                    -3.00038  -6.24202   4.27482 
 C                    -3.49023  -7.5626    4.64491 
 O                     6.45629  -0.76009   2.72786 
 C                     7.164    -1.01143   3.84905 
 O                     8.39979  -1.04881   3.89053 
 H                     0.5217    0.33028  -1.146 
 H                     0.53986   0.73723   0.60231 
 H                     0.46452  -0.92237   0.04472 
 H                     2.83695   1.04265  -0.39526 
 H                     2.80084  -0.62725  -0.97941 
 H                     2.53746   0.13219   1.92929 
 H                     2.64302  -2.47728   0.15678 
 H                     1.38127  -1.93406   1.35283 
 H                     2.90168  -2.65548   1.73047 
 H                     4.87408   0.53988   1.06278 
 H                     4.96037  -1.14639   0.623 
 H                     4.69161   0.04226   3.46175 
 H                     5.0888   -2.47066   4.20692 
 H                     4.71238  -2.8656    2.57585 
 H                     2.47378  -1.41164   3.15984 
 H                     2.8223   -1.48799   4.7254 
 H                     2.7762   -3.92587   4.63153 
 H                     0.71907  -3.25014   2.59519 
 H                     0.55684  -2.721     4.2699 
 H                     0.85582  -5.16731   4.91262 
 H                     0.88992  -5.58038   3.19135 
 H                    -1.38161  -4.58627   2.88992 
 H                    -1.4047   -4.11001   4.59115 
 H                    -1.16493  -6.50041   5.26992 
 H                    -1.16018  -6.98435   3.561 
 H                    -3.34353  -6.00207   3.34469 
 H                    -3.15146  -7.83513   5.64987 
 H                    -3.14971  -8.32333   3.93492 
 H                    -4.58335  -7.56381   4.64942 
 H                     6.55056  -1.19331   4.73603 
 

 GradGradGradGradGradGradGradGradGradGradGradGradGradGradGradGradGradGrad
 Berny optimization.
 Initialization pass.
                           ----------------------------
                           !    Initial Parameters    !
                           ! (Angstroms and Degrees)  !
 --------------------------                            --------------------------
 ! Name  Definition              Value          Derivative Info.                !
 --------------------------------------------------------------------------------
 ! R1    R(1,2)                  1.538          estimate D2E/DX2                !
 ! R2    R(1,19)                 1.0869         estimate D2E/DX2                !
 ! R3    R(1,20)                 1.0953         estimate D2E/DX2                !
 ! R4    R(1,21)                 1.0961         estimate D2E/DX2                !
 ! R5    R(2,3)                  1.5221         estimate D2E/DX2                !
 ! R6    R(2,22)                 1.0904         estimate D2E/DX2                !
 ! R7    R(2,23)                 1.0961         estimate D2E/DX2                !
 ! R8    R(3,4)                  1.5409         estimate D2E/DX2                !
 ! R9    R(3,5)                  1.539          estimate D2E/DX2                !
 ! R10   R(3,24)                 1.1058         estimate D2E/DX2                !
 ! R11   R(4,25)                 1.085          estimate D2E/DX2                !
 ! R12   R(4,26)                 1.0932         estimate D2E/DX2                !
 ! R13   R(4,27)                 1.0659         estimate D2E/DX2                !
 ! R14   R(5,6)                  1.5736         estimate D2E/DX2                !
 ! R15   R(5,28)                 1.1004         estimate D2E/DX2                !
 ! R16   R(5,29)                 1.0962         estimate D2E/DX2                !
 ! R17   R(6,7)                  1.5402         estimate D2E/DX2                !
 ! R18   R(6,16)                 1.4563         estimate D2E/DX2                !
 ! R19   R(6,30)                 1.0958         estimate D2E/DX2                !
 ! R20   R(7,8)                  1.5466         estimate D2E/DX2                !
 ! R21   R(7,31)                 1.0909         estimate D2E/DX2                !
 ! R22   R(7,32)                 1.1051         estimate D2E/DX2                !
 ! R23   R(8,9)                  1.4638         estimate D2E/DX2                !
 ! R24   R(8,33)                 1.0753         estimate D2E/DX2                !
 ! R25   R(8,34)                 1.0901         estimate D2E/DX2                !
 ! R26   R(9,10)                 1.4614         estimate D2E/DX2                !
 ! R27   R(9,35)                 1.0134         estimate D2E/DX2                !
 ! R28   R(10,11)                1.5202         estimate D2E/DX2                !
 ! R29   R(10,36)                1.0949         estimate D2E/DX2                !
 ! R30   R(10,37)                1.0915         estimate D2E/DX2                !
 ! R31   R(11,12)                1.528          estimate D2E/DX2                !
 ! R32   R(11,38)                1.0942         estimate D2E/DX2                !
 ! R33   R(11,39)                1.0994         estimate D2E/DX2                !
 ! R34   R(12,13)                1.5218         estimate D2E/DX2                !
 ! R35   R(12,40)                1.0982         estimate D2E/DX2                !
 ! R36   R(12,41)                1.0974         estimate D2E/DX2                !
 ! R37   R(13,14)                1.4599         estimate D2E/DX2                !
 ! R38   R(13,42)                1.0966         estimate D2E/DX2                !
 ! R39   R(13,43)                1.0966         estimate D2E/DX2                !
 ! R40   R(14,15)                1.4563         estimate D2E/DX2                !
 ! R41   R(14,44)                1.02           estimate D2E/DX2                !
 ! R42   R(15,45)                1.095          estimate D2E/DX2                !
 ! R43   R(15,46)                1.0949         estimate D2E/DX2                !
 ! R44   R(15,47)                1.0931         estimate D2E/DX2                !
 ! R45   R(16,17)                1.3495         estimate D2E/DX2                !
 ! R46   R(17,18)                1.2371         estimate D2E/DX2                !
 ! R47   R(17,48)                1.0937         estimate D2E/DX2                !
 ! A1    A(2,1,19)             110.4938         estimate D2E/DX2                !
 ! A2    A(2,1,20)             110.622          estimate D2E/DX2                !
 ! A3    A(2,1,21)             113.8512         estimate D2E/DX2                !
 ! A4    A(19,1,20)            110.7013         estimate D2E/DX2                !
 ! A5    A(19,1,21)            104.7671         estimate D2E/DX2                !
 ! A6    A(20,1,21)            106.1959         estimate D2E/DX2                !
 ! A7    A(1,2,3)              109.5644         estimate D2E/DX2                !
 ! A8    A(1,2,22)             110.554          estimate D2E/DX2                !
 ! A9    A(1,2,23)             109.4478         estimate D2E/DX2                !
 ! A10   A(3,2,22)             111.8382         estimate D2E/DX2                !
 ! A11   A(3,2,23)             107.296          estimate D2E/DX2                !
 ! A12   A(22,2,23)            108.0511         estimate D2E/DX2                !
 ! A13   A(2,3,4)              100.8939         estimate D2E/DX2                !
 ! A14   A(2,3,5)              116.3499         estimate D2E/DX2                !
 ! A15   A(2,3,24)             106.5259         estimate D2E/DX2                !
 ! A16   A(4,3,5)              111.9343         estimate D2E/DX2                !
 ! A17   A(4,3,24)             115.2639         estimate D2E/DX2                !
 ! A18   A(5,3,24)             106.0732         estimate D2E/DX2                !
 ! A19   A(3,4,25)             115.0215         estimate D2E/DX2                !
 ! A20   A(3,4,26)             108.3231         estimate D2E/DX2                !
 ! A21   A(3,4,27)             116.97           estimate D2E/DX2                !
 ! A22   A(25,4,26)            113.4829         estimate D2E/DX2                !
 ! A23   A(25,4,27)             96.4968         estimate D2E/DX2                !
 ! A24   A(26,4,27)            106.0251         estimate D2E/DX2                !
 ! A25   A(3,5,6)              115.7717         estimate D2E/DX2                !
 ! A26   A(3,5,28)             109.4966         estimate D2E/DX2                !
 ! A27   A(3,5,29)             108.3566         estimate D2E/DX2                !
 ! A28   A(6,5,28)             107.5086         estimate D2E/DX2                !
 ! A29   A(6,5,29)             110.007          estimate D2E/DX2                !
 ! A30   A(28,5,29)            105.1836         estimate D2E/DX2                !
 ! A31   A(5,6,7)              114.1332         estimate D2E/DX2                !
 ! A32   A(5,6,16)             106.0977         estimate D2E/DX2                !
 ! A33   A(5,6,30)             109.0139         estimate D2E/DX2                !
 ! A34   A(7,6,16)             110.1983         estimate D2E/DX2                !
 ! A35   A(7,6,30)             109.3917         estimate D2E/DX2                !
 ! A36   A(16,6,30)            107.7864         estimate D2E/DX2                !
 ! A37   A(6,7,8)              112.6403         estimate D2E/DX2                !
 ! A38   A(6,7,31)             113.3976         estimate D2E/DX2                !
 ! A39   A(6,7,32)             105.8736         estimate D2E/DX2                !
 ! A40   A(8,7,31)             107.0064         estimate D2E/DX2                !
 ! A41   A(8,7,32)             114.5787         estimate D2E/DX2                !
 ! A42   A(31,7,32)            103.1048         estimate D2E/DX2                !
 ! A43   A(7,8,9)              108.7647         estimate D2E/DX2                !
 ! A44   A(7,8,33)             109.3902         estimate D2E/DX2                !
 ! A45   A(7,8,34)             116.5498         estimate D2E/DX2                !
 ! A46   A(9,8,33)             111.0186         estimate D2E/DX2                !
 ! A47   A(9,8,34)             114.6715         estimate D2E/DX2                !
 ! A48   A(33,8,34)             95.7176         estimate D2E/DX2                !
 ! A49   A(8,9,10)             113.7934         estimate D2E/DX2                !
 ! A50   A(8,9,35)             110.7387         estimate D2E/DX2                !
 ! A51   A(10,9,35)            112.1495         estimate D2E/DX2                !
 ! A52   A(9,10,11)            110.3616         estimate D2E/DX2                !
 ! A53   A(9,10,36)            113.2668         estimate D2E/DX2                !
 ! A54   A(9,10,37)            109.3938         estimate D2E/DX2                !
 ! A55   A(11,10,36)           105.3555         estimate D2E/DX2                !
 ! A56   A(11,10,37)           110.8341         estimate D2E/DX2                !
 ! A57   A(36,10,37)           107.5526         estimate D2E/DX2                !
 ! A58   A(10,11,12)           110.179          estimate D2E/DX2                !
 ! A59   A(10,11,38)           109.1748         estimate D2E/DX2                !
 ! A60   A(10,11,39)           110.5701         estimate D2E/DX2                !
 ! A61   A(12,11,38)           109.8246         estimate D2E/DX2                !
 ! A62   A(12,11,39)           109.4235         estimate D2E/DX2                !
 ! A63   A(38,11,39)           107.6276         estimate D2E/DX2                !
 ! A64   A(11,12,13)           109.7885         estimate D2E/DX2                !
 ! A65   A(11,12,40)           110.2378         estimate D2E/DX2                !
 ! A66   A(11,12,41)           109.3471         estimate D2E/DX2                !
 ! A67   A(13,12,40)           110.2318         estimate D2E/DX2                !
 ! A68   A(13,12,41)           110.0314         estimate D2E/DX2                !
 ! A69   A(40,12,41)           107.1642         estimate D2E/DX2                !
 ! A70   A(12,13,14)           109.9325         estimate D2E/DX2                !
 ! A71   A(12,13,42)           109.0083         estimate D2E/DX2                !
 ! A72   A(12,13,43)           109.4157         estimate D2E/DX2                !
 ! A73   A(14,13,42)           109.9443         estimate D2E/DX2                !
 ! A74   A(14,13,43)           110.3431         estimate D2E/DX2                !
 ! A75   A(42,13,43)           108.1614         estimate D2E/DX2                !
 ! A76   A(13,14,15)           109.688          estimate D2E/DX2                !
 ! A77   A(13,14,44)           109.5741         estimate D2E/DX2                !
 ! A78   A(15,14,44)           109.3833         estimate D2E/DX2                !
 ! A79   A(14,15,45)           110.785          estimate D2E/DX2                !
 ! A80   A(14,15,46)           111.1398         estimate D2E/DX2                !
 ! A81   A(14,15,47)           109.7802         estimate D2E/DX2                !
 ! A82   A(45,15,46)           109.0262         estimate D2E/DX2                !
 ! A83   A(45,15,47)           107.7774         estimate D2E/DX2                !
 ! A84   A(46,15,47)           108.2351         estimate D2E/DX2                !
 ! A85   A(6,16,17)            118.9985         estimate D2E/DX2                !
 ! A86   A(16,17,18)           123.8751         estimate D2E/DX2                !
 ! A87   A(16,17,48)           114.2446         estimate D2E/DX2                !
 ! A88   A(18,17,48)           121.8777         estimate D2E/DX2                !
 ! D1    D(19,1,2,3)          -173.2933         estimate D2E/DX2                !
 ! D2    D(19,1,2,22)           63.0048         estimate D2E/DX2                !
 ! D3    D(19,1,2,23)          -55.8998         estimate D2E/DX2                !
 ! D4    D(20,1,2,3)            63.7593         estimate D2E/DX2                !
 ! D5    D(20,1,2,22)          -59.9426         estimate D2E/DX2                !
 ! D6    D(20,1,2,23)         -178.8472         estimate D2E/DX2                !
 ! D7    D(21,1,2,3)           -55.7274         estimate D2E/DX2                !
 ! D8    D(21,1,2,22)         -179.4294         estimate D2E/DX2                !
 ! D9    D(21,1,2,23)           61.6661         estimate D2E/DX2                !
 ! D10   D(1,2,3,4)             64.3012         estimate D2E/DX2                !
 ! D11   D(1,2,3,5)           -174.3778         estimate D2E/DX2                !
 ! D12   D(1,2,3,24)           -56.3927         estimate D2E/DX2                !
 ! D13   D(22,2,3,4)          -172.7543         estimate D2E/DX2                !
 ! D14   D(22,2,3,5)           -51.4334         estimate D2E/DX2                !
 ! D15   D(22,2,3,24)           66.5517         estimate D2E/DX2                !
 ! D16   D(23,2,3,4)           -54.4329         estimate D2E/DX2                !
 ! D17   D(23,2,3,5)            66.8881         estimate D2E/DX2                !
 ! D18   D(23,2,3,24)         -175.1268         estimate D2E/DX2                !
 ! D19   D(2,3,4,25)            49.2923         estimate D2E/DX2                !
 ! D20   D(2,3,4,26)           -78.864          estimate D2E/DX2                !
 ! D21   D(2,3,4,27)           161.479          estimate D2E/DX2                !
 ! D22   D(5,3,4,25)           -75.0941         estimate D2E/DX2                !
 ! D23   D(5,3,4,26)           156.7496         estimate D2E/DX2                !
 ! D24   D(5,3,4,27)            37.0926         estimate D2E/DX2                !
 ! D25   D(24,3,4,25)          163.5682         estimate D2E/DX2                !
 ! D26   D(24,3,4,26)           35.412          estimate D2E/DX2                !
 ! D27   D(24,3,4,27)          -84.245          estimate D2E/DX2                !
 ! D28   D(2,3,5,6)            169.073          estimate D2E/DX2                !
 ! D29   D(2,3,5,28)            47.3819         estimate D2E/DX2                !
 ! D30   D(2,3,5,29)           -66.8368         estimate D2E/DX2                !
 ! D31   D(4,3,5,6)            -75.661          estimate D2E/DX2                !
 ! D32   D(4,3,5,28)           162.6479         estimate D2E/DX2                !
 ! D33   D(4,3,5,29)            48.4292         estimate D2E/DX2                !
 ! D34   D(24,3,5,6)            50.8401         estimate D2E/DX2                !
 ! D35   D(24,3,5,28)          -70.851          estimate D2E/DX2                !
 ! D36   D(24,3,5,29)          174.9303         estimate D2E/DX2                !
 ! D37   D(3,5,6,7)             54.6786         estimate D2E/DX2                !
 ! D38   D(3,5,6,16)           176.217          estimate D2E/DX2                !
 ! D39   D(3,5,6,30)           -67.9511         estimate D2E/DX2                !
 ! D40   D(28,5,6,7)           177.4254         estimate D2E/DX2                !
 ! D41   D(28,5,6,16)          -61.0361         estimate D2E/DX2                !
 ! D42   D(28,5,6,30)           54.7958         estimate D2E/DX2                !
 ! D43   D(29,5,6,7)           -68.5493         estimate D2E/DX2                !
 ! D44   D(29,5,6,16)           52.9892         estimate D2E/DX2                !
 ! D45   D(29,5,6,30)          168.8211         estimate D2E/DX2                !
 ! D46   D(5,6,7,8)            -76.5599         estimate D2E/DX2                !
 ! D47   D(5,6,7,31)           161.7207         estimate D2E/DX2                !
 ! D48   D(5,6,7,32)            49.3944         estimate D2E/DX2                !
 ! D49   D(16,6,7,8)           164.1939         estimate D2E/DX2                !
 ! D50   D(16,6,7,31)           42.4745         estimate D2E/DX2                !
 ! D51   D(16,6,7,32)          -69.8518         estimate D2E/DX2                !
 ! D52   D(30,6,7,8)            45.8634         estimate D2E/DX2                !
 ! D53   D(30,6,7,31)          -75.8561         estimate D2E/DX2                !
 ! D54   D(30,6,7,32)          171.8177         estimate D2E/DX2                !
 ! D55   D(5,6,16,17)         -179.5546         estimate D2E/DX2                !
 ! D56   D(7,6,16,17)          -55.5264         estimate D2E/DX2                !
 ! D57   D(30,6,16,17)          63.7854         estimate D2E/DX2                !
 ! D58   D(6,7,8,9)            156.9453         estimate D2E/DX2                !
 ! D59   D(6,7,8,33)            35.5352         estimate D2E/DX2                !
 ! D60   D(6,7,8,34)           -71.5583         estimate D2E/DX2                !
 ! D61   D(31,7,8,9)           -77.7793         estimate D2E/DX2                !
 ! D62   D(31,7,8,33)          160.8106         estimate D2E/DX2                !
 ! D63   D(31,7,8,34)           53.7172         estimate D2E/DX2                !
 ! D64   D(32,7,8,9)            35.8375         estimate D2E/DX2                !
 ! D65   D(32,7,8,33)          -85.5726         estimate D2E/DX2                !
 ! D66   D(32,7,8,34)          167.3339         estimate D2E/DX2                !
 ! D67   D(7,8,9,10)          -153.7247         estimate D2E/DX2                !
 ! D68   D(7,8,9,35)            78.8633         estimate D2E/DX2                !
 ! D69   D(33,8,9,10)          -33.3155         estimate D2E/DX2                !
 ! D70   D(33,8,9,35)         -160.7276         estimate D2E/DX2                !
 ! D71   D(34,8,9,10)           73.7787         estimate D2E/DX2                !
 ! D72   D(34,8,9,35)          -53.6333         estimate D2E/DX2                !
 ! D73   D(8,9,10,11)         -167.7806         estimate D2E/DX2                !
 ! D74   D(8,9,10,36)           74.377          estimate D2E/DX2                !
 ! D75   D(8,9,10,37)          -45.5829         estimate D2E/DX2                !
 ! D76   D(35,9,10,11)         -41.1027         estimate D2E/DX2                !
 ! D77   D(35,9,10,36)        -158.9452         estimate D2E/DX2                !
 ! D78   D(35,9,10,37)          81.0949         estimate D2E/DX2                !
 ! D79   D(9,10,11,12)         173.304          estimate D2E/DX2                !
 ! D80   D(9,10,11,38)          52.6173         estimate D2E/DX2                !
 ! D81   D(9,10,11,39)         -65.6088         estimate D2E/DX2                !
 ! D82   D(36,10,11,12)        -64.0901         estimate D2E/DX2                !
 ! D83   D(36,10,11,38)        175.2232         estimate D2E/DX2                !
 ! D84   D(36,10,11,39)         56.9971         estimate D2E/DX2                !
 ! D85   D(37,10,11,12)         51.9581         estimate D2E/DX2                !
 ! D86   D(37,10,11,38)        -68.7286         estimate D2E/DX2                !
 ! D87   D(37,10,11,39)        173.0453         estimate D2E/DX2                !
 ! D88   D(10,11,12,13)       -176.6692         estimate D2E/DX2                !
 ! D89   D(10,11,12,40)         61.7062         estimate D2E/DX2                !
 ! D90   D(10,11,12,41)        -55.8619         estimate D2E/DX2                !
 ! D91   D(38,11,12,13)        -56.3733         estimate D2E/DX2                !
 ! D92   D(38,11,12,40)       -177.9979         estimate D2E/DX2                !
 ! D93   D(38,11,12,41)         64.434          estimate D2E/DX2                !
 ! D94   D(39,11,12,13)         61.5608         estimate D2E/DX2                !
 ! D95   D(39,11,12,40)        -60.0638         estimate D2E/DX2                !
 ! D96   D(39,11,12,41)       -177.632          estimate D2E/DX2                !
 ! D97   D(11,12,13,14)        178.5573         estimate D2E/DX2                !
 ! D98   D(11,12,13,42)         57.9805         estimate D2E/DX2                !
 ! D99   D(11,12,13,43)        -60.1167         estimate D2E/DX2                !
 ! D100  D(40,12,13,14)        -59.8145         estimate D2E/DX2                !
 ! D101  D(40,12,13,42)        179.6087         estimate D2E/DX2                !
 ! D102  D(40,12,13,43)         61.5114         estimate D2E/DX2                !
 ! D103  D(41,12,13,14)         58.1641         estimate D2E/DX2                !
 ! D104  D(41,12,13,42)        -62.4127         estimate D2E/DX2                !
 ! D105  D(41,12,13,43)        179.4901         estimate D2E/DX2                !
 ! D106  D(12,13,14,15)       -179.8469         estimate D2E/DX2                !
 ! D107  D(12,13,14,44)         60.0643         estimate D2E/DX2                !
 ! D108  D(42,13,14,15)        -59.8367         estimate D2E/DX2                !
 ! D109  D(42,13,14,44)       -179.9256         estimate D2E/DX2                !
 ! D110  D(43,13,14,15)         59.3842         estimate D2E/DX2                !
 ! D111  D(43,13,14,44)        -60.7047         estimate D2E/DX2                !
 ! D112  D(13,14,15,45)         60.9419         estimate D2E/DX2                !
 ! D113  D(13,14,15,46)        -60.4319         estimate D2E/DX2                !
 ! D114  D(13,14,15,47)        179.8597         estimate D2E/DX2                !
 ! D115  D(44,14,15,45)       -178.8531         estimate D2E/DX2                !
 ! D116  D(44,14,15,46)         59.7732         estimate D2E/DX2                !
 ! D117  D(44,14,15,47)        -59.9353         estimate D2E/DX2                !
 ! D118  D(6,16,17,18)         178.7079         estimate D2E/DX2                !
 ! D119  D(6,16,17,48)          -0.714          estimate D2E/DX2                !
 ! D120  D(16,17,18,48)       -179.3793         estimate D2E/DX2                !
 --------------------------------------------------------------------------------
 Trust Radius=3.00D-01 FncErr=1.00D-07 GrdErr=1.00D-06 EigMax=2.50D+02 EigMin=1.00D-04
 Number of steps in this run=    265 maximum allowed number of steps=    288.
 GradGradGradGradGradGradGradGradGradGradGradGradGradGradGradGradGradGrad

                          Input orientation:                          
 ---------------------------------------------------------------------
 Center     Atomic      Atomic             Coordinates (Angstroms)
 Number     Number       Type             X           Y           Z
 ---------------------------------------------------------------------
      1          6           0        0.911910    0.055100   -0.169610
      2          6           0        2.449760    0.044660   -0.187750
      3          6           0        2.971390   -0.501570    1.133750
      4          6           0        2.440170   -1.947020    1.081390
      5          6           0        4.496210   -0.456500    1.337280
      6          6           0        5.001520   -0.769580    2.794250
      7          6           0        4.503670   -2.113580    3.358240
      8          6           0        3.028170   -2.056280    3.818180
      9          7           0        2.479150   -3.413240    3.809380
     10          6           0        1.030420   -3.461930    3.623290
     11          6           0        0.505090   -4.856490    3.923820
     12          6           0       -1.022490   -4.862870    3.890200
     13          6           0       -1.540490   -6.241760    4.272670
     14          7           0       -3.000380   -6.242020    4.274820
     15          6           0       -3.490230   -7.562600    4.644910
     16          8           0        6.456290   -0.760090    2.727860
     17          6           0        7.164000   -1.011430    3.849050
     18          8           0        8.399790   -1.048810    3.890530
     19          1           0        0.521700    0.330280   -1.146000
     20          1           0        0.539860    0.737230    0.602310
     21          1           0        0.464520   -0.922370    0.044720
     22          1           0        2.836950    1.042650   -0.395260
     23          1           0        2.800840   -0.627250   -0.979410
     24          1           0        2.537460    0.132190    1.929290
     25          1           0        2.643020   -2.477280    0.156780
     26          1           0        1.381270   -1.934060    1.352830
     27          1           0        2.901680   -2.655480    1.730470
     28          1           0        4.874080    0.539880    1.062780
     29          1           0        4.960370   -1.146390    0.623000
     30          1           0        4.691610    0.042260    3.461750
     31          1           0        5.088800   -2.470660    4.206920
     32          1           0        4.712380   -2.865600    2.575850
     33          1           0        2.473780   -1.411640    3.159840
     34          1           0        2.822300   -1.487990    4.725400
     35          1           0        2.776200   -3.925870    4.631530
     36          1           0        0.719070   -3.250140    2.595190
     37          1           0        0.556840   -2.721000    4.269900
     38          1           0        0.855820   -5.167310    4.912620
     39          1           0        0.889920   -5.580380    3.191350
     40          1           0       -1.381610   -4.586270    2.889920
     41          1           0       -1.404700   -4.110010    4.591150
     42          1           0       -1.164930   -6.500410    5.269920
     43          1           0       -1.160180   -6.984350    3.561000
     44          1           0       -3.343530   -6.002070    3.344690
     45          1           0       -3.151460   -7.835130    5.649870
     46          1           0       -3.149710   -8.323330    3.934920
     47          1           0       -4.583350   -7.563810    4.649420
     48          1           0        6.550560   -1.193310    4.736030
 ---------------------------------------------------------------------
                    Distance matrix (angstroms):
                    1          2          3          4          5
     1  C    0.000000
     2  C    1.537992   0.000000
     3  C    2.500017   1.522113   0.000000
     4  C    2.812306   2.361694   1.540864   0.000000
     5  C    3.921691   2.600930   1.539004   2.552338   0.000000
     6  C    5.117565   4.008340   2.636383   3.298601   1.573569
     7  C    5.481755   4.631478   3.145602   3.077307   2.613475
     8  C    4.983869   4.560261   3.102662   2.801375   3.296862
     9  N    5.506177   5.285356   3.984861   3.097297   4.349956
    10  C    5.173938   5.369798   4.327691   3.277744   5.125442
    11  C    6.406667   6.686406   5.729961   4.504327   6.479131
    12  C    6.664112   7.264299   6.524571   5.327439   7.509297
    13  C    8.086938   8.679661   7.947305   6.668936   8.861574
    14  N    8.643650   9.441446   8.858957   7.631815   9.914648
    15  C   10.029347  10.793910  10.195044   8.910839  11.190188
    16  O    6.308725   5.020029   3.840904   4.499876   2.422353
    17  C    7.508378   6.295644   5.021035   5.554263   3.705946
    18  O    8.589045   7.295951   6.112842   6.649445   4.701899
    19  H    1.086888   2.171920   3.448219   3.718587   4.752098
    20  H    1.095255   2.179809   2.780178   3.323536   4.197366
    21  H    1.096149   2.220443   2.765403   2.455155   4.259374
    22  H    2.175305   1.090395   2.177283   3.357984   2.828832
    23  H    2.165510   1.096105   2.123753   2.473615   2.875846
    24  H    2.655887   2.120663   1.105817   2.247557   2.129257
    25  H    3.084837   2.552691   2.228391   1.085001   2.985204
    26  H    2.548505   2.725874   2.151396   1.093214   3.447648
    27  H    3.862219   3.342836   2.236127   1.065932   2.744565
    28  H    4.177629   2.772435   2.170227   3.479790   1.100413
    29  H    4.296724   2.894664   2.152371   2.683754   1.096170
    30  H    5.241476   4.283077   2.945249   3.833058   2.190962
    31  H    6.555905   5.710034   4.219611   4.130179   3.555677
    32  H    5.523732   4.607228   3.270984   2.870564   2.717452
    33  H    3.959293   3.650718   2.276155   2.146559   2.885176
    34  H    5.476481   5.160121   3.727627   3.692633   3.917308
    35  H    6.509581   6.252770   4.898816   4.078266   5.083999
    36  H    4.313458   4.647123   3.842316   2.636645   4.863491
    37  H    5.248052   5.576976   4.537770   3.783196   5.408036
    38  H    7.287371   7.464519   6.365895   5.249643   6.944583
    39  H    6.561644   6.744812   5.861787   4.478450   6.534298
    40  H    6.013591   6.752552   6.222340   4.984217   7.349453
    41  H    6.736443   7.413233   6.642636   5.637372   7.665282
    42  H    8.767922   9.256894   8.378731   7.160579   9.167498
    43  H    8.231942   8.745958   8.061504   6.669759   8.919221
    44  H    8.194412   9.088635   8.661522   7.417354   9.810431
    45  H   10.612872  11.293474  10.567201   9.317037  11.468630
    46  H   10.175560  10.879969  10.319610   8.946883  11.273635
    47  H   10.557875  11.434669  10.922878   9.675174  11.996772
    48  H    7.577480   6.526311   5.124976   5.551556   4.039151
                    6          7          8          9         10
     6  C    0.000000
     7  C    1.540219   0.000000
     8  C    2.568684   1.546586   0.000000
     9  N    3.792331   2.447718   1.463845   0.000000
    10  C    4.868849   3.735206   2.450477   1.461444   0.000000
    11  C    6.180343   4.881811   3.770712   2.448056   1.520226
    12  C    7.365109   6.195161   4.928487   3.790705   2.499663
    13  C    8.656118   7.376308   6.212685   4.936868   3.841709
    14  N    9.806635   8.613646   7.353391   6.184164   4.939711
    15  C   11.030860   9.759599   8.572781   7.317704   6.188334
    16  O    1.456315   2.458056   3.823730   4.901687   6.127136
    17  C    2.418143   2.921127   4.265883   5.264797   6.608837
    18  O    3.581625   4.073919   5.465760   6.375821   7.759006
    19  H    6.066634   6.489739   6.051541   6.511631   6.114391
    20  H    5.194371   5.606608   4.933275   5.592186   5.196144
    21  H    5.307318   5.358463   4.700750   4.943261   4.424451
    22  H    4.259403   5.179624   5.233833   6.136935   6.301074
    23  H    4.370785   4.891218   5.011055   5.549571   5.688114
    24  H    2.762777   3.309284   2.932252   4.013504   4.249530
    25  H    3.928741   3.720705   3.705595   3.774170   3.948000
    26  H    4.066929   3.715276   2.967350   3.070497   2.759071
    27  H    3.016219   2.347267   2.175678   2.252687   2.781141
    28  H    2.174607   3.528058   4.211848   5.376491   6.111008
    29  H    2.204088   2.936932   3.843237   4.631207   5.459668
    30  H    1.095758   2.166491   2.701471   4.117804   5.070479
    31  H    2.212900   1.090936   2.137528   2.802993   4.218257
    32  H    2.127111   1.105092   2.243869   2.609372   3.874219
    33  H    2.633508   2.156974   1.075323   2.104361   2.549856
    34  H    2.999075   2.255547   1.090130   2.159498   2.884774
    35  H    4.276659   2.808881   2.054360   1.013390   2.068704
    36  H    4.952997   4.024576   2.872795   2.144467   1.094890
    37  H    5.073536   4.096041   2.598726   2.094409   1.091494
    38  H    6.404245   5.004815   3.949103   2.632318   2.145036
    39  H    6.340878   5.010563   4.169450   2.757555   2.166597
    40  H    7.437784   6.400784   5.168044   4.138463   2.760410
    41  H    7.444930   6.357251   4.946274   4.022554   2.699365
    42  H    8.774763   7.418344   6.280122   4.994308   4.094302
    43  H    8.785091   7.472932   6.472580   5.104825   4.148500
    44  H    9.865181   8.757801   7.509462   6.389177   5.065705
    45  H   11.160092   9.827956   8.656675   7.392177   6.381224
    46  H   11.171518   9.872577   8.800895   7.470529   6.419019
    47  H   11.894240  10.674553   9.431812   8.234792   7.027999
    48  H    2.519838   2.633431   3.740909   4.728969   6.070978
                   11         12         13         14         15
    11  C    0.000000
    12  C    1.527963   0.000000
    13  C    2.495008   1.521823   0.000000
    14  N    3.785659   2.441728   1.459892   0.000000
    15  C    4.879097   3.734685   2.384254   1.456314   0.000000
    16  O    7.323086   8.609064   9.817517  11.039622  12.201741
    17  C    7.689679   9.047315  10.163855  11.439186  12.532511
    18  O    8.765034  10.164960  11.221494  12.533195  13.578333
    19  H    7.252995   7.397070   8.763922   9.218756  10.579592
    20  H    6.505639   6.679242   8.155103   8.644684  10.073302
    21  H    5.525067   5.703197   7.084599   7.628758   8.994134
    22  H    7.674104   8.254430   9.696091  10.437935  11.810455
    23  H    6.870124   7.501429   8.829168   9.632587  10.922894
    24  H    5.744180   6.439646   7.921385   8.763546  10.144823
    25  H    4.941859   5.750255   6.972347   7.935961   9.144427
    26  H    3.989772   4.560070   5.968117   6.804072   8.139396
    27  H    3.924140   4.993607   6.249565   7.360115   8.569148
    28  H    7.509623   8.482544   9.871208  10.877430  12.183740
    29  H    6.671565   7.764112   9.030175  10.132856  11.347077
    30  H    6.460512   7.542865   8.887383   9.965940  11.232821
    31  H    5.175203   6.570452   7.627123   8.925391   9.985962
    32  H    4.845818   6.213319   7.305891   8.589143   9.676034
    33  H    4.040594   4.966721   6.378308   7.385268   8.695353
    34  H    4.166388   5.183607   6.468171   7.530433   8.761016
    35  H    2.554378   3.982158   4.911816   6.233833   7.245283
    36  H    2.095568   2.703882   4.107230   5.060317   6.365286
    37  H    2.163970   2.688134   4.098116   5.005139   6.321432
    38  H    1.094233   2.160110   2.703013   4.053649   4.969631
    39  H    1.099374   2.158825   2.741089   4.092201   5.022723
    40  H    2.168318   1.098196   2.162842   2.698124   4.047815
    41  H    2.156353   1.097367   2.159682   2.681739   4.033944
    42  H    2.702485   2.146032   1.096564   2.103774   2.631711
    43  H    2.726270   2.151281   1.096608   2.108774   2.634078
    44  H    4.057046   2.642458   2.041948   1.020034   2.036504
    45  H    5.022141   4.057497   2.651553   2.109878   1.094981
    46  H    5.037526   4.062247   2.652659   2.114162   1.094874
    47  H    5.809329   4.533345   3.338975   2.096008   1.093130
    48  H    7.115215   8.457670   9.548122  10.813077  11.890905
                   16         17         18         19         20
    16  O    0.000000
    17  C    1.349479   0.000000
    18  O    2.283058   1.237051   0.000000
    19  H    7.170429   8.418483   9.451604   0.000000
    20  H    6.462513   7.581449   8.705219   1.795140   0.000000
    21  H    6.567106   7.704797   8.818999   1.729224   1.752385
    22  H    5.109146   6.399748   7.327168   2.536033   2.522905
    23  H    5.208053   6.519109   7.432514   2.477720   3.078258
    24  H    4.097695   5.137920   6.293500   3.682382   2.473329
    25  H    4.909198   6.018375   7.008696   3.752283   3.867151
    26  H    5.387461   6.365715   7.515531   3.479978   2.899490
    27  H    4.150005   5.035738   6.121802   4.780497   4.285023
    28  H    2.639281   3.926015   4.790693   4.885269   4.363077
    29  H    2.611023   3.909168   4.745091   5.001171   4.805139
    30  H    2.072789   2.715322   3.889073   6.221131   5.088851
    31  H    2.642669   2.562007   3.617239   7.573468   6.631488
    32  H    2.738157   3.327075   4.315797   6.451947   5.855354
    33  H    4.058511   4.757451   5.981902   5.038369   3.859877
    34  H    4.210212   4.454824   5.656702   6.562942   5.211622
    35  H    5.214325   5.325319   6.360135   7.521797   6.555939
    36  H    6.255689   6.936938   8.094271   5.182168   4.461256
    37  H    6.405198   6.837712   8.028201   6.216391   5.040919
    38  H    7.453994   7.628608   8.655530   8.187918   7.317253
    39  H    7.377974   7.789220   8.798984   7.340578   6.836510
    40  H    8.723451   9.312726  10.449432   6.639556   6.104495
    41  H    8.745798   9.141911  10.295137   7.506136   6.571750
    42  H    9.874023  10.075656  11.095338   9.521926   8.779312
    43  H    9.871482  10.249425  11.257542   8.859367   8.441965
    44  H   11.130827  11.643412  12.756892   8.672079   8.247395
    45  H   12.284266  12.498582  13.512246  11.240546  10.610799
    46  H   12.285554  12.642938  13.649599  10.685503  10.335036
    47  H   13.109411  13.474959  14.545895  11.043780  10.560949
    48  H    2.056529   1.093674   2.038480   8.559600   7.546068
                   21         22         23         24         25
    21  H    0.000000
    22  H    3.111802   0.000000
    23  H    2.567943   1.769492   0.000000
    24  H    2.993456   2.514391   3.017723   0.000000
    25  H    2.678836   3.568230   2.176797   3.156306   0.000000
    26  H    1.890793   3.746415   3.026925   2.436898   1.821438
    27  H    3.432954   4.266038   3.386345   2.818384   1.604731
    28  H    4.755927   2.555104   3.135452   2.525241   3.860274
    29  H    4.538420   3.215223   2.738758   3.035071   2.712700
    30  H    5.520407   4.395119   4.873105   2.645162   4.633317
    31  H    6.411324   6.212426   5.960784   4.297879   4.731334
    32  H    5.312916   5.255393   4.615633   3.759662   3.207015
    33  H    3.739048   4.335224   4.225592   1.975277   3.191019
    34  H    5.271415   5.711875   5.769419   3.244125   4.677940
    35  H    5.950101   7.068133   6.508775   4.881286   4.705267
    36  H    3.462399   5.644134   4.898069   3.897451   3.200740
    37  H    4.593010   6.413087   6.080673   4.188318   4.618366
    38  H    6.470632   8.406073   7.688385   6.309744   5.748770
    39  H    5.637313   7.779410   6.751322   6.077881   4.680941
    40  H    4.992747   7.763594   6.938187   6.208525   5.302409
    41  H    5.858759   8.331013   7.800469   6.373569   6.222016
    42  H    7.814880  10.247295   9.448569   8.298125   7.538585
    43  H    7.193850   9.801111   8.758865   8.184141   6.809312
    44  H    7.155026  10.090274   9.237955   8.615019   7.643670
    45  H    9.606210  12.297139  11.459963  10.473047   9.615435
    46  H    9.108816  11.929465  10.899052  10.385676   9.055736
    47  H    9.528535  12.433053  11.589903  10.832057   9.913477
    48  H    7.689062   6.717183   6.859087   5.073432   6.155240
                   26         27         28         29         30
    26  H    0.000000
    27  H    1.724733   0.000000
    28  H    4.290015   3.813987   0.000000
    29  H    3.736714   2.782453   1.744809   0.000000
    30  H    4.394512   3.671373   2.456823   3.089275   0.000000
    31  H    4.709517   3.309147   4.358334   3.822914   2.651001
    32  H    3.668765   2.009341   3.729990   2.613581   3.039885
    33  H    2.175267   1.942507   3.737316   3.562169   2.669034
    34  H    3.694560   3.215422   4.662279   4.638720   2.726316
    35  H    4.082035   3.169509   6.089335   5.344569   4.558864
    36  H    1.927183   2.421807   5.828948   5.128735   5.231816
    37  H    3.131814   3.457061   6.289477   5.930460   5.038356
    38  H    4.837573   4.541025   7.971179   7.170493   6.630078
    39  H    4.113056   3.838800   7.606703   6.544101   6.792646
    40  H    4.126787   4.839302   8.291533   7.562566   7.657302
    41  H    4.794070   5.370666   8.572861   8.064947   7.462030
    42  H    6.532862   6.621821  10.185055   9.369029   8.965214
    43  H    6.069630   6.211977   9.963304   8.954036   9.144755
    44  H    6.545223   7.266913  10.748644   9.996999  10.055402
    45  H    8.592603   8.878681  12.473631  11.653774  11.329382
    46  H    8.247408   8.579245  12.295808  11.324782  11.475769
    47  H    8.839586   9.414757  12.960585  12.185152  12.053537
    48  H    6.222243   4.948298   4.394007   4.409980   2.570237
                   31         32         33         34         35
    31  H    0.000000
    32  H    1.719901   0.000000
    33  H    3.009357   2.732467   0.000000
    34  H    2.524180   3.176598   1.605700   0.000000
    35  H    2.765149   3.016419   2.928939   2.440122   0.000000
    36  H    4.722267   4.011829   2.603444   3.473693   2.972385
    37  H    4.539306   4.489903   2.573192   2.619180   2.551087
    38  H    5.068338   5.062748   4.449167   4.176062   2.303919
    39  H    5.322813   4.728644   4.459596   4.778604   2.893022
    40  H    6.933722   6.340036   5.001516   5.535448   4.555954
    41  H    6.708252   6.559623   4.936847   4.975996   4.185148
    42  H    7.515184   7.417050   6.602138   6.427975   4.750611
    43  H    7.735655   7.240275   6.664960   6.886650   5.098571
    44  H    9.182510   8.679069   7.412645   7.765355   6.589208
    45  H    9.937883   9.797235   8.894088   8.765081   7.173317
    46  H   10.109440   9.666765   8.944040   9.111072   7.412107
    47  H   10.940131  10.619956   9.480038   9.579406   8.209623
    48  H    2.012044   3.292695   4.376320   3.739903   4.660858
                   36         37         38         39         40
    36  H    0.000000
    37  H    1.763792   0.000000
    38  H    3.010768   2.546941   0.000000
    39  H    2.411351   3.074129   1.770469   0.000000
    40  H    2.506983   3.023436   3.071647   2.497792   0.000000
    41  H    3.038689   2.424910   2.516183   3.063774   1.766788
    42  H    4.611712   4.271823   2.447090   3.064199   3.061908
    43  H    4.290535   4.650468   3.031958   2.512107   2.500033
    44  H    4.963828   5.180185   4.559580   4.257163   2.461795
    45  H    6.733068   6.466075   4.870225   5.240322   4.615711
    46  H    6.519171   6.725833   5.192363   4.939158   4.264249
    47  H    7.137455   7.072369   5.949543   6.001387   4.713038
    48  H    6.543701   6.202886   6.946504   7.326340   8.822676
                   41         42         43         44         45
    41  H    0.000000
    42  H    2.496444   0.000000
    43  H    3.063140   1.776127   0.000000
    44  H    2.982049   2.949771   2.403889   0.000000
    45  H    4.248362   2.423250   3.008721   2.951416   0.000000
    46  H    4.607360   3.007426   2.427120   2.402954   1.783086
    47  H    4.694246   3.633378   3.638478   2.382962   1.767717
    48  H    8.474331   9.379719   9.714543  11.088418  11.793137
                   46         47         48
    46  H    0.000000
    47  H    1.772767   0.000000
    48  H   12.065413  12.827889   0.000000
 Stoichiometry    C14H30N2O2
 Framework group  C1[X(C14H30N2O2)]
 Deg. of freedom   138
 Full point group                 C1      NOp   1
 Largest Abelian subgroup         C1      NOp   1
 Largest concise Abelian subgroup C1      NOp   1
                         Standard orientation:                         
 ---------------------------------------------------------------------
 Center     Atomic      Atomic             Coordinates (Angstroms)
 Number     Number       Type             X           Y           Z
 ---------------------------------------------------------------------
      1          6           0        1.038614    4.171408    0.332605
      2          6           0        2.267615    3.418363   -0.203957
      3          6           0        2.131789    1.934458    0.106530
      4          6           0        0.891897    1.573365   -0.734031
      5          6           0        3.341377    1.049760   -0.243809
      6          6           0        3.300571   -0.419109    0.319111
      7          6           0        2.032285   -1.204989   -0.063147
      8          6           0        0.798966   -0.787323    0.771364
      9          7           0       -0.412716   -1.131164    0.025415
     10          6           0       -1.566625   -0.298679    0.359002
     11          6           0       -2.837460   -0.899736   -0.219614
     12          6           0       -4.058340   -0.121300    0.268402
     13          6           0       -5.329387   -0.779262   -0.248771
     14          7           0       -6.499122   -0.057937    0.243868
     15          6           0       -7.712114   -0.693968   -0.251074
     16          8           0        4.483240   -1.086266   -0.207243
     17          6           0        4.701266   -2.379305    0.111514
     18          8           0        5.662071   -3.039095   -0.303007
     19          1           0        1.061920    5.211290    0.017287
     20          1           0        0.988061    4.098896    1.424287
     21          1           0        0.083778    3.786612   -0.043911
     22          1           0        3.184687    3.837351    0.211242
     23          1           0        2.310818    3.520512   -1.294436
     24          1           0        1.999773    1.852985    1.201411
     25          1           0        0.921505    1.911980   -1.764415
     26          1           0        0.001491    1.903458   -0.192430
     27          1           0        0.738666    0.540996   -0.950700
     28          1           0        4.262343    1.522054    0.129913
     29          1           0        3.450711    1.030564   -1.334344
     30          1           0        3.392868   -0.385869    1.410468
     31          1           0        2.141799   -2.284732    0.047768
     32          1           0        1.914098   -1.075904   -1.154291
     33          1           0        0.843125    0.268614    0.969776
     34          1           0        0.791808   -1.094172    1.817393
     35          1           0       -0.617735   -2.119984    0.110028
     36          1           0       -1.506823    0.711235   -0.059665
     37          1           0       -1.642005   -0.201481    1.443544
     38          1           0       -2.914978   -1.945566    0.092759
     39          1           0       -2.807708   -0.881812   -1.318439
     40          1           0       -4.004946    0.921464   -0.071932
     41          1           0       -4.063700   -0.103979    1.365619
     42          1           0       -5.358826   -1.819701    0.096297
     43          1           0       -5.317729   -0.783022   -1.345311
     44          1           0       -6.466688    0.908350   -0.081258
     45          1           0       -7.780343   -1.728240    0.101925
     46          1           0       -7.742972   -0.687579   -1.345495
     47          1           0       -8.589085   -0.156468    0.118991
     48          1           0        3.943735   -2.813361    0.770197
 ---------------------------------------------------------------------
 Rotational constants (GHZ):           0.5447391           0.1255570           0.1043099
 Standard basis: 6-31G(2df,p) (6D, 7F)
 There are   708 symmetry adapted cartesian basis functions of A   symmetry.
 There are   654 symmetry adapted basis functions of A   symmetry.
   654 basis functions,  1002 primitive gaussians,   708 cartesian basis functions
    72 alpha electrons       72 beta electrons
       nuclear repulsion energy      1365.9419718797 Hartrees.
 NAtoms=   48 NActive=   48 NUniq=   48 SFac= 1.00D+00 NAtFMM=   60 NAOKFM=F Big=F
 Integral buffers will be    131072 words long.
 Raffenetti 2 integral format.
 Two-electron integral symmetry is turned on.
 One-electron integrals computed using PRISM.
 PrsmSu:  requested number of processors reduced to:  12 ShMem   1 Linda.
 NBasis=   654 RedAO= T EigKep=  3.08D-04  NBF=   654
 NBsUse=   654 1.00D-06 EigRej= -1.00D+00 NBFU=   654
 ExpMin= 1.61D-01 ExpMax= 5.48D+03 ExpMxC= 8.25D+02 IAcc=3 IRadAn=         5 AccDes= 0.00D+00
 Harris functional with IExCor=  402 and IRadAn=       5 diagonalized for initial guess.
 HarFok:  IExCor=  402 AccDes= 0.00D+00 IRadAn=         5 IDoV= 1 UseB2=F ITyADJ=14
 ICtDFT=  3500011 ScaDFX=  1.000000  1.000000  1.000000  1.000000
 FoFCou: FMM=F IPFlag=           0 FMFlag=      100000 FMFlg1=           0
         NFxFlg=           0 DoJE=T BraDBF=F KetDBF=T FulRan=T
         wScrn=  0.000000 ICntrl=       500 IOpCl=  0 I1Cent=   200000004 NGrid=           0
         NMat0=    1 NMatS0=      1 NMatT0=    0 NMatD0=    1 NMtDS0=    0 NMtDT0=    0
 Petite list used in FoFCou.
 Requested convergence on RMS density matrix=1.00D-08 within 128 cycles.
 Requested convergence on MAX density matrix=1.00D-06.
 Requested convergence on             energy=1.00D-06.
 No special actions if energy rises.
 Integral accuracy reduced to 1.0D-05 until final iterations.
 Initial convergence to 1.0D-05 achieved.  Increase integral accuracy.
 SCF Done:  E(RB3LYP) =  -811.501383626     A.U. after   14 cycles
            NFock= 14  Conv=0.30D-08     -V/T= 2.0078

 **********************************************************************

            Population analysis using the SCF density.

 **********************************************************************

 Orbital symmetries:
       Occupied  (A) (A) (A) (A) (A) (A) (A) (A) (A) (A) (A) (A)
                 (A) (A) (A) (A) (A) (A) (A) (A) (A) (A) (A) (A)
                 (A) (A) (A) (A) (A) (A) (A) (A) (A) (A) (A) (A)
                 (A) (A) (A) (A) (A) (A) (A) (A) (A) (A) (A) (A)
                 (A) (A) (A) (A) (A) (A) (A) (A) (A) (A) (A) (A)
                 (A) (A) (A) (A) (A) (A) (A) (A) (A) (A) (A) (A)
       Virtual   (A) (A) (A) (A) (A) (A) (A) (A) (A) (A) (A) (A)
                 (A) (A) (A) (A) (A) (A) (A) (A) (A) (A) (A) (A)
                 (A) (A) (A) (A) (A) (A) (A) (A) (A) (A) (A) (A)
                 (A) (A) (A) (A) (A) (A) (A) (A) (A) (A) (A) (A)
                 (A) (A) (A) (A) (A) (A) (A) (A) (A) (A) (A) (A)
                 (A) (A) (A) (A) (A) (A) (A) (A) (A) (A) (A) (A)
                 (A) (A) (A) (A) (A) (A) (A) (A) (A) (A) (A) (A)
                 (A) (A) (A) (A) (A) (A) (A) (A) (A) (A) (A) (A)
                 (A) (A) (A) (A) (A) (A) (A) (A) (A) (A) (A) (A)
                 (A) (A) (A) (A) (A) (A) (A) (A) (A) (A) (A) (A)
                 (A) (A) (A) (A) (A) (A) (A) (A) (A) (A) (A) (A)
                 (A) (A) (A) (A) (A) (A) (A) (A) (A) (A) (A) (A)
                 (A) (A) (A) (A) (A) (A) (A) (A) (A) (A) (A) (A)
                 (A) (A) (A) (A) (A) (A) (A) (A) (A) (A) (A) (A)
                 (A) (A) (A) (A) (A) (A) (A) (A) (A) (A) (A) (A)
                 (A) (A) (A) (A) (A) (A) (A) (A) (A) (A) (A) (A)
                 (A) (A) (A) (A) (A) (A) (A) (A) (A) (A) (A) (A)
                 (A) (A) (A) (A) (A) (A) (A) (A) (A) (A) (A) (A)
                 (A) (A) (A) (A) (A) (A) (A) (A) (A) (A) (A) (A)
                 (A) (A) (A) (A) (A) (A) (A) (A) (A) (A) (A) (A)
                 (A) (A) (A) (A) (A) (A) (A) (A) (A) (A) (A) (A)
                 (A) (A) (A) (A) (A) (A) (A) (A) (A) (A) (A) (A)
                 (A) (A) (A) (A) (A) (A) (A) (A) (A) (A) (A) (A)
                 (A) (A) (A) (A) (A) (A) (A) (A) (A) (A) (A) (A)
                 (A) (A) (A) (A) (A) (A) (A) (A) (A) (A) (A) (A)
                 (A) (A) (A) (A) (A) (A) (A) (A) (A) (A) (A) (A)
                 (A) (A) (A) (A) (A) (A) (A) (A) (A) (A) (A) (A)
                 (A) (A) (A) (A) (A) (A) (A) (A) (A) (A) (A) (A)
                 (A) (A) (A) (A) (A) (A) (A) (A) (A) (A) (A) (A)
                 (A) (A) (A) (A) (A) (A) (A) (A) (A) (A) (A) (A)
                 (A) (A) (A) (A) (A) (A) (A) (A) (A) (A) (A) (A)
                 (A) (A) (A) (A) (A) (A) (A) (A) (A) (A) (A) (A)
                 (A) (A) (A) (A) (A) (A) (A) (A) (A) (A) (A) (A)
                 (A) (A) (A) (A) (A) (A) (A) (A) (A) (A) (A) (A)
                 (A) (A) (A) (A) (A) (A) (A) (A) (A) (A) (A) (A)
                 (A) (A) (A) (A) (A) (A) (A) (A) (A) (A) (A) (A)
                 (A) (A) (A) (A) (A) (A) (A) (A) (A) (A) (A) (A)
                 (A) (A) (A) (A) (A) (A) (A) (A) (A) (A) (A) (A)
                 (A) (A) (A) (A) (A) (A) (A) (A) (A) (A) (A) (A)
                 (A) (A) (A) (A) (A) (A) (A) (A) (A) (A) (A) (A)
                 (A) (A) (A) (A) (A) (A) (A) (A) (A) (A) (A) (A)
                 (A) (A) (A) (A) (A) (A) (A) (A) (A) (A) (A) (A)
                 (A) (A) (A) (A) (A) (A) (A) (A) (A) (A) (A) (A)
                 (A) (A) (A) (A) (A) (A) (A) (A) (A) (A) (A) (A)
                 (A) (A) (A) (A) (A) (A) (A) (A) (A) (A) (A) (A)
                 (A) (A) (A) (A) (A) (A) (A) (A) (A) (A) (A) (A)
                 (A) (A) (A) (A) (A) (A) (A) (A) (A) (A) (A) (A)
                 (A) (A) (A) (A) (A) (A) (A) (A) (A) (A) (A) (A)
                 (A) (A) (A) (A) (A) (A)
 The electronic state is 1-A.
 Alpha  occ. eigenvalues --  -19.18459 -19.12274 -14.31693 -14.30975 -10.30559
 Alpha  occ. eigenvalues --  -10.25911 -10.20733 -10.20445 -10.20126 -10.19639
 Alpha  occ. eigenvalues --  -10.19548 -10.19357 -10.19277 -10.18284 -10.18151
 Alpha  occ. eigenvalues --  -10.18058 -10.17532 -10.16180  -1.08675  -1.00034
 Alpha  occ. eigenvalues --   -0.90813  -0.90003  -0.83192  -0.79927  -0.78259
 Alpha  occ. eigenvalues --   -0.73824  -0.71803  -0.70302  -0.66471  -0.64843
 Alpha  occ. eigenvalues --   -0.63143  -0.61921  -0.60916  -0.59122  -0.58585
 Alpha  occ. eigenvalues --   -0.56786  -0.52881  -0.50373  -0.49117  -0.48633
 Alpha  occ. eigenvalues --   -0.46975  -0.46437  -0.45764  -0.45450  -0.44673
 Alpha  occ. eigenvalues --   -0.43539  -0.42858  -0.42518  -0.42331  -0.41536
 Alpha  occ. eigenvalues --   -0.40370  -0.39776  -0.39498  -0.38110  -0.37237
 Alpha  occ. eigenvalues --   -0.37171  -0.37020  -0.35944  -0.35729  -0.35064
 Alpha  occ. eigenvalues --   -0.34828  -0.34394  -0.33644  -0.33465  -0.32333
 Alpha  occ. eigenvalues --   -0.32157  -0.31377  -0.30331  -0.28989  -0.26283
 Alpha  occ. eigenvalues --   -0.22477  -0.22020
 Alpha virt. eigenvalues --    0.00050   0.07458   0.07729   0.08141   0.08770
 Alpha virt. eigenvalues --    0.09722   0.09804   0.10488   0.10824   0.11797
 Alpha virt. eigenvalues --    0.11910   0.12474   0.12928   0.13665   0.13982
 Alpha virt. eigenvalues --    0.14559   0.15271   0.15835   0.16421   0.16668
 Alpha virt. eigenvalues --    0.16828   0.17166   0.17533   0.18319   0.18713
 Alpha virt. eigenvalues --    0.19372   0.19881   0.20128   0.20439   0.20827
 Alpha virt. eigenvalues --    0.21510   0.21894   0.22026   0.22932   0.22995
 Alpha virt. eigenvalues --    0.24043   0.24288   0.24547   0.26298   0.26706
 Alpha virt. eigenvalues --    0.27180   0.28079   0.28965   0.30215   0.30527
 Alpha virt. eigenvalues --    0.31910   0.32455   0.33240   0.40984   0.42160
 Alpha virt. eigenvalues --    0.43935   0.45293   0.45633   0.47406   0.48004
 Alpha virt. eigenvalues --    0.48220   0.48494   0.49422   0.50225   0.50513
 Alpha virt. eigenvalues --    0.50962   0.51912   0.52238   0.53070   0.54276
 Alpha virt. eigenvalues --    0.54711   0.55031   0.55993   0.56515   0.56861
 Alpha virt. eigenvalues --    0.57100   0.57702   0.58498   0.58818   0.59401
 Alpha virt. eigenvalues --    0.60985   0.61128   0.61259   0.62339   0.63359
 Alpha virt. eigenvalues --    0.64254   0.65176   0.66312   0.67001   0.67773
 Alpha virt. eigenvalues --    0.68880   0.70487   0.70938   0.71716   0.72066
 Alpha virt. eigenvalues --    0.72195   0.72440   0.72850   0.73028   0.73402
 Alpha virt. eigenvalues --    0.73439   0.73855   0.74793   0.74970   0.75268
 Alpha virt. eigenvalues --    0.75575   0.76477   0.76654   0.77205   0.77705
 Alpha virt. eigenvalues --    0.78053   0.78122   0.78912   0.79707   0.79915
 Alpha virt. eigenvalues --    0.80206   0.81702   0.82314   0.82754   0.83308
 Alpha virt. eigenvalues --    0.84044   0.84674   0.84726   0.85199   0.85840
 Alpha virt. eigenvalues --    0.86422   0.86574   0.87128   0.87665   0.88501
 Alpha virt. eigenvalues --    0.89273   0.89839   0.90965   0.91730   0.92198
 Alpha virt. eigenvalues --    0.93368   0.95616   0.96475   0.97047   0.98715
 Alpha virt. eigenvalues --    0.99587   1.01329   1.02261   1.03177   1.04982
 Alpha virt. eigenvalues --    1.05495   1.05877   1.06428   1.07990   1.08964
 Alpha virt. eigenvalues --    1.10174   1.10796   1.11399   1.12489   1.13527
 Alpha virt. eigenvalues --    1.16145   1.17711   1.18230   1.19704   1.20614
 Alpha virt. eigenvalues --    1.20924   1.22420   1.22794   1.24588   1.24833
 Alpha virt. eigenvalues --    1.25703   1.26417   1.29149   1.29228   1.29843
 Alpha virt. eigenvalues --    1.30722   1.32089   1.33686   1.33961   1.34963
 Alpha virt. eigenvalues --    1.35777   1.36499   1.36512   1.37769   1.38746
 Alpha virt. eigenvalues --    1.40162   1.41035   1.42608   1.44440   1.45664
 Alpha virt. eigenvalues --    1.46618   1.47450   1.48977   1.49454   1.50040
 Alpha virt. eigenvalues --    1.50412   1.52780   1.53022   1.53866   1.54550
 Alpha virt. eigenvalues --    1.55865   1.56236   1.57617   1.58260   1.58775
 Alpha virt. eigenvalues --    1.59807   1.60410   1.60609   1.62352   1.63131
 Alpha virt. eigenvalues --    1.64100   1.65042   1.66226   1.66638   1.67107
 Alpha virt. eigenvalues --    1.68696   1.71206   1.72398   1.72933   1.73794
 Alpha virt. eigenvalues --    1.75125   1.76068   1.77043   1.78208   1.79026
 Alpha virt. eigenvalues --    1.79218   1.80194   1.81999   1.83448   1.84942
 Alpha virt. eigenvalues --    1.85387   1.85763   1.87128   1.88229   1.92056
 Alpha virt. eigenvalues --    1.93079   1.93966   1.94272   1.95710   1.96420
 Alpha virt. eigenvalues --    1.98706   1.98886   1.99981   2.00339   2.01404
 Alpha virt. eigenvalues --    2.02686   2.04980   2.05363   2.05764   2.10187
 Alpha virt. eigenvalues --    2.13955   2.14878   2.15297   2.16781   2.18655
 Alpha virt. eigenvalues --    2.19205   2.20392   2.21263   2.22491   2.22944
 Alpha virt. eigenvalues --    2.25247   2.25621   2.28121   2.29262   2.29433
 Alpha virt. eigenvalues --    2.30490   2.31732   2.32992   2.33896   2.35230
 Alpha virt. eigenvalues --    2.36248   2.37525   2.38399   2.41176   2.42237
 Alpha virt. eigenvalues --    2.43236   2.44732   2.46986   2.47323   2.49294
 Alpha virt. eigenvalues --    2.50784   2.52671   2.55023   2.56197   2.57999
 Alpha virt. eigenvalues --    2.60864   2.61354   2.62370   2.63860   2.64201
 Alpha virt. eigenvalues --    2.66744   2.68873   2.70628   2.71747   2.73387
 Alpha virt. eigenvalues --    2.73581   2.74023   2.74870   2.75033   2.75808
 Alpha virt. eigenvalues --    2.76389   2.76998   2.77702   2.78787   2.79455
 Alpha virt. eigenvalues --    2.79944   2.80428   2.81842   2.82709   2.83768
 Alpha virt. eigenvalues --    2.84028   2.84262   2.84833   2.86157   2.86424
 Alpha virt. eigenvalues --    2.87209   2.88336   2.89833   2.90487   2.90699
 Alpha virt. eigenvalues --    2.91230   2.91266   2.92259   2.93790   2.94451
 Alpha virt. eigenvalues --    2.95799   2.96216   2.96550   2.97316   2.97742
 Alpha virt. eigenvalues --    2.98290   2.98925   3.00763   3.00959   3.01941
 Alpha virt. eigenvalues --    3.02626   3.03325   3.03995   3.04830   3.05562
 Alpha virt. eigenvalues --    3.07446   3.09224   3.10079   3.10181   3.10673
 Alpha virt. eigenvalues --    3.11059   3.15180   3.15773   3.16933   3.17689
 Alpha virt. eigenvalues --    3.19324   3.19977   3.20780   3.23475   3.23750
 Alpha virt. eigenvalues --    3.25015   3.25768   3.27326   3.28330   3.29295
 Alpha virt. eigenvalues --    3.31347   3.32282   3.33224   3.35022   3.36088
 Alpha virt. eigenvalues --    3.36796   3.37011   3.37790   3.39763   3.40197
 Alpha virt. eigenvalues --    3.41291   3.42083   3.43931   3.44107   3.46180
 Alpha virt. eigenvalues --    3.46419   3.46843   3.48872   3.49329   3.51072
 Alpha virt. eigenvalues --    3.51336   3.52556   3.52944   3.54772   3.55304
 Alpha virt. eigenvalues --    3.57728   3.59158   3.60114   3.61368   3.62161
 Alpha virt. eigenvalues --    3.63534   3.64742   3.66114   3.66461   3.67413
 Alpha virt. eigenvalues --    3.68522   3.69099   3.69906   3.70737   3.71326
 Alpha virt. eigenvalues --    3.72143   3.72877   3.74554   3.76601   3.78085
 Alpha virt. eigenvalues --    3.78366   3.79623   3.80485   3.81185   3.82330
 Alpha virt. eigenvalues --    3.82917   3.85206   3.87676   3.88612   3.91903
 Alpha virt. eigenvalues --    3.92343   3.92638   3.95306   3.98024   4.00307
 Alpha virt. eigenvalues --    4.02320   4.02914   4.05373   4.07676   4.08939
 Alpha virt. eigenvalues --    4.10228   4.12719   4.13812   4.14461   4.16460
 Alpha virt. eigenvalues --    4.18774   4.21405   4.22249   4.23737   4.23879
 Alpha virt. eigenvalues --    4.27715   4.29227   4.30140   4.32061   4.34028
 Alpha virt. eigenvalues --    4.35208   4.36714   4.37650   4.38173   4.39864
 Alpha virt. eigenvalues --    4.41311   4.41436   4.42494   4.43329   4.44561
 Alpha virt. eigenvalues --    4.44985   4.45915   4.46122   4.46901   4.47522
 Alpha virt. eigenvalues --    4.48992   4.49727   4.50853   4.52113   4.52501
 Alpha virt. eigenvalues --    4.53330   4.53459   4.54064   4.54573   4.55330
 Alpha virt. eigenvalues --    4.56377   4.56830   4.57587   4.58108   4.59041
 Alpha virt. eigenvalues --    4.59506   4.60703   4.61744   4.62488   4.62777
 Alpha virt. eigenvalues --    4.63097   4.63907   4.64970   4.65190   4.65712
 Alpha virt. eigenvalues --    4.66391   4.67061   4.67614   4.67768   4.68674
 Alpha virt. eigenvalues --    4.70289   4.70810   4.71928   4.72670   4.73695
 Alpha virt. eigenvalues --    4.74526   4.74787   4.75184   4.77295   4.77531
 Alpha virt. eigenvalues --    4.78285   4.78760   4.80113   4.81362   4.81979
 Alpha virt. eigenvalues --    4.82766   4.83826   4.84648   4.85628   4.85871
 Alpha virt. eigenvalues --    4.87134   4.88184   4.88335   4.89617   4.90185
 Alpha virt. eigenvalues --    4.90952   4.93690   4.93921   4.94140   4.95117
 Alpha virt. eigenvalues --    4.95947   4.96718   4.97423   4.98351   4.98933
 Alpha virt. eigenvalues --    5.00444   5.01719   5.02712   5.03421   5.04034
 Alpha virt. eigenvalues --    5.07877   5.08800   5.09960   5.11112   5.12029
 Alpha virt. eigenvalues --    5.14734   5.15633   5.18343   5.19374   5.20815
 Alpha virt. eigenvalues --    5.23475   5.25169   5.27201   5.28355   5.30293
 Alpha virt. eigenvalues --    5.34671   5.35620   5.35918   5.39455   5.41351
 Alpha virt. eigenvalues --    5.44652   5.45358   5.47722   5.49455   5.50383
 Alpha virt. eigenvalues --    5.50981   5.54388   5.54871   5.60828   5.63210
 Alpha virt. eigenvalues --    5.68268   5.70910   5.74492   5.77252   5.82842
 Alpha virt. eigenvalues --    5.83877   5.90453   5.94997   6.01660   6.09298
 Alpha virt. eigenvalues --    6.18558   6.27322   6.33242   6.52179   6.61604
 Alpha virt. eigenvalues --    6.73484   7.18180  10.57493  10.90582  11.15939
 Alpha virt. eigenvalues --   11.30273  11.37486  11.45993  11.56234  11.72587
 Alpha virt. eigenvalues --   11.79104  11.99611  12.06482  12.19607  12.24593
 Alpha virt. eigenvalues --   12.45475  12.67085  12.70092  12.95698  13.42774
 Alpha virt. eigenvalues --   13.52604  16.47778
          Condensed to atoms (all electrons):
               1          2          3          4          5          6
     1  C    4.965053   0.404504  -0.029268  -0.012001   0.002004  -0.000115
     2  C    0.404504   4.852022   0.416043  -0.043608  -0.024081   0.001846
     3  C   -0.029268   0.416043   4.653229   0.389345   0.387030  -0.023126
     4  C   -0.012001  -0.043608   0.389345   5.097306  -0.025245  -0.008141
     5  C    0.002004  -0.024081   0.387030  -0.025245   4.931536   0.408673
     6  C   -0.000115   0.001846  -0.023126  -0.008141   0.408673   4.720042
     7  C    0.000003   0.000206  -0.001634   0.002824  -0.020694   0.339028
     8  C    0.000004   0.000744  -0.008608  -0.007021  -0.003539  -0.023240
     9  N    0.000000  -0.000023   0.000949  -0.020193  -0.000075   0.003997
    10  C   -0.000004   0.000010   0.000239  -0.005366  -0.000005  -0.000138
    11  C   -0.000000   0.000000  -0.000005   0.000358  -0.000000   0.000001
    12  C   -0.000000  -0.000000  -0.000000  -0.000005  -0.000000   0.000000
    13  C   -0.000000   0.000000   0.000000   0.000000  -0.000000   0.000000
    14  N    0.000000   0.000000   0.000000  -0.000000  -0.000000   0.000000
    15  C   -0.000000   0.000000   0.000000  -0.000000  -0.000000   0.000000
    16  O    0.000000  -0.000018   0.001504   0.000040  -0.020049   0.288975
    17  C   -0.000000  -0.000001  -0.000071   0.000000   0.002021  -0.053130
    18  O    0.000000  -0.000000  -0.000000   0.000000  -0.000089   0.001364
    19  H    0.372057  -0.023062   0.002753   0.000662  -0.000111   0.000001
    20  H    0.377612  -0.030087  -0.003100  -0.001277   0.000191   0.000005
    21  H    0.382793  -0.027207  -0.006499  -0.001743   0.000168   0.000002
    22  H   -0.032503   0.355299  -0.030766   0.006022  -0.003106   0.000035
    23  H   -0.034901   0.365291  -0.025801  -0.015460  -0.002424   0.000051
    24  H   -0.006147  -0.044075   0.362635  -0.046861  -0.048670  -0.004852
    25  H   -0.001471  -0.009792  -0.023228   0.364353  -0.003473   0.000263
    26  H   -0.003743  -0.004870  -0.026140   0.378117   0.003619   0.000242
    27  H    0.000761   0.003900  -0.022600   0.369748  -0.003371   0.000663
    28  H    0.000083  -0.006975  -0.026714   0.005244   0.350911  -0.025871
    29  H   -0.000015  -0.003046  -0.027685  -0.009016   0.351022  -0.023495
    30  H    0.000006  -0.000147  -0.001170  -0.000360  -0.042163   0.357604
    31  H   -0.000000   0.000002   0.000006   0.000536   0.003606  -0.030478
    32  H    0.000000  -0.000071  -0.001063  -0.004912  -0.008055  -0.025203
    33  H   -0.000008  -0.000578   0.005895  -0.001229  -0.003590  -0.003264
    34  H    0.000001  -0.000038  -0.000084  -0.000342   0.000435   0.002355
    35  H    0.000000   0.000001  -0.000017   0.000432  -0.000008  -0.000222
    36  H   -0.000089   0.000064  -0.000307   0.000708   0.000015  -0.000027
    37  H    0.000002  -0.000003  -0.000011  -0.000719  -0.000000   0.000051
    38  H   -0.000000   0.000000   0.000000  -0.000004  -0.000000  -0.000000
    39  H    0.000000  -0.000000   0.000000  -0.000016  -0.000000   0.000000
    40  H   -0.000000  -0.000000   0.000000  -0.000012  -0.000000   0.000000
    41  H    0.000000   0.000000   0.000000  -0.000000  -0.000000   0.000000
    42  H   -0.000000  -0.000000  -0.000000  -0.000000   0.000000   0.000000
    43  H    0.000000   0.000000  -0.000000   0.000000  -0.000000  -0.000000
    44  H   -0.000000   0.000000   0.000000   0.000000  -0.000000   0.000000
    45  H    0.000000   0.000000   0.000000   0.000000  -0.000000  -0.000000
    46  H   -0.000000  -0.000000  -0.000000   0.000000  -0.000000   0.000000
    47  H   -0.000000   0.000000  -0.000000  -0.000000  -0.000000  -0.000000
    48  H    0.000000  -0.000000   0.000049  -0.000003   0.000151   0.000680
               7          8          9         10         11         12
     1  C    0.000003   0.000004   0.000000  -0.000004  -0.000000  -0.000000
     2  C    0.000206   0.000744  -0.000023   0.000010   0.000000  -0.000000
     3  C   -0.001634  -0.008608   0.000949   0.000239  -0.000005  -0.000000
     4  C    0.002824  -0.007021  -0.020193  -0.005366   0.000358  -0.000005
     5  C   -0.020694  -0.003539  -0.000075  -0.000005  -0.000000  -0.000000
     6  C    0.339028  -0.023240   0.003997  -0.000138   0.000001   0.000000
     7  C    5.028216   0.381990  -0.043734   0.002395  -0.000153   0.000001
     8  C    0.381990   4.979246   0.336146  -0.058402   0.002828  -0.000279
     9  N   -0.043734   0.336146   6.401857   0.391163  -0.031308   0.001695
    10  C    0.002395  -0.058402   0.391163   4.820503   0.426274  -0.038927
    11  C   -0.000153   0.002828  -0.031308   0.426274   4.852842   0.381937
    12  C    0.000001  -0.000279   0.001695  -0.038927   0.381937   4.851640
    13  C   -0.000000   0.000000  -0.000064   0.001299  -0.039259   0.433817
    14  N    0.000000  -0.000000   0.000000  -0.000052   0.002341  -0.037591
    15  C   -0.000000   0.000000  -0.000000   0.000000  -0.000259   0.003839
    16  O   -0.024109   0.001775  -0.000019   0.000000  -0.000000   0.000000
    17  C   -0.008247  -0.000219  -0.000002  -0.000000  -0.000000   0.000000
    18  O   -0.000278  -0.000004   0.000000  -0.000000   0.000000   0.000000
    19  H   -0.000000  -0.000000  -0.000000  -0.000000   0.000000   0.000000
    20  H   -0.000000  -0.000013   0.000000   0.000002  -0.000000  -0.000000
    21  H    0.000001   0.000008   0.000003  -0.000021  -0.000000  -0.000000
    22  H    0.000000  -0.000004   0.000000  -0.000000  -0.000000  -0.000000
    23  H   -0.000007  -0.000033   0.000001  -0.000000  -0.000000  -0.000000
    24  H   -0.001837  -0.005675   0.000248  -0.000022  -0.000001   0.000000
    25  H    0.000157   0.000398   0.000398   0.000052  -0.000011   0.000000
    26  H   -0.000019  -0.000285  -0.001339  -0.002362  -0.000020  -0.000008
    27  H   -0.007761  -0.015874   0.024909   0.000632  -0.000065   0.000030
    28  H    0.004648  -0.000144   0.000000  -0.000000  -0.000000  -0.000000
    29  H   -0.007769  -0.000085   0.000003   0.000000   0.000000  -0.000000
    30  H   -0.068097   0.000197   0.000047   0.000011  -0.000000   0.000000
    31  H    0.362013  -0.031372  -0.000852  -0.000035   0.000010  -0.000000
    32  H    0.355272  -0.025039   0.000581   0.000351  -0.000016   0.000000
    33  H   -0.033006   0.371735  -0.013428  -0.006706   0.000305   0.000002
    34  H   -0.033744   0.342330  -0.029845   0.001706  -0.000081   0.000027
    35  H    0.002003  -0.043099   0.344326  -0.054410  -0.003472  -0.000226
    36  H    0.000244  -0.000122  -0.022670   0.351008  -0.016089  -0.006193
    37  H    0.000056  -0.008240  -0.044794   0.361225  -0.037003   0.000743
    38  H   -0.000002   0.000263  -0.002587  -0.038721   0.365443  -0.032505
    39  H    0.000013   0.000002   0.002490  -0.026456   0.362463  -0.030106
    40  H    0.000000   0.000006   0.000121  -0.002862  -0.032246   0.365439
    41  H    0.000000   0.000004   0.000090  -0.003432  -0.030630   0.360966
    42  H    0.000000   0.000000   0.000004   0.000038  -0.007530  -0.019259
    43  H   -0.000000   0.000000   0.000007   0.000187   0.003910  -0.043593
    44  H    0.000000   0.000000   0.000000   0.000010  -0.000305   0.000303
    45  H    0.000000   0.000000   0.000000   0.000000  -0.000009   0.000371
    46  H   -0.000000   0.000000   0.000000   0.000000   0.000059   0.000071
    47  H    0.000000  -0.000000   0.000000  -0.000000   0.000001  -0.000277
    48  H   -0.003329   0.000244   0.000018   0.000000   0.000000   0.000000
              13         14         15         16         17         18
     1  C   -0.000000   0.000000  -0.000000   0.000000  -0.000000   0.000000
     2  C    0.000000   0.000000   0.000000  -0.000018  -0.000001  -0.000000
     3  C    0.000000   0.000000   0.000000   0.001504  -0.000071  -0.000000
     4  C    0.000000  -0.000000  -0.000000   0.000040   0.000000   0.000000
     5  C   -0.000000  -0.000000  -0.000000  -0.020049   0.002021  -0.000089
     6  C    0.000000   0.000000   0.000000   0.288975  -0.053130   0.001364
     7  C   -0.000000   0.000000  -0.000000  -0.024109  -0.008247  -0.000278
     8  C    0.000000  -0.000000   0.000000   0.001775  -0.000219  -0.000004
     9  N   -0.000064   0.000000  -0.000000  -0.000019  -0.000002   0.000000
    10  C    0.001299  -0.000052   0.000000   0.000000  -0.000000  -0.000000
    11  C   -0.039259   0.002341  -0.000259  -0.000000  -0.000000   0.000000
    12  C    0.433817  -0.037591   0.003839   0.000000   0.000000   0.000000
    13  C    4.805274   0.400609  -0.072937  -0.000000  -0.000000  -0.000000
    14  N    0.400609   6.354297   0.384869   0.000000   0.000000   0.000000
    15  C   -0.072937   0.384869   4.918292   0.000000   0.000000   0.000000
    16  O   -0.000000   0.000000   0.000000   7.787658   0.327744  -0.043275
    17  C   -0.000000   0.000000   0.000000   0.327744   4.430545   0.745602
    18  O   -0.000000   0.000000   0.000000  -0.043275   0.745602   7.682864
    19  H    0.000000  -0.000000   0.000000  -0.000000  -0.000000  -0.000000
    20  H    0.000000   0.000000   0.000000   0.000000   0.000000   0.000000
    21  H   -0.000000  -0.000000  -0.000000   0.000000   0.000000   0.000000
    22  H   -0.000000   0.000000  -0.000000   0.000000   0.000000  -0.000000
    23  H   -0.000000   0.000000  -0.000000   0.000001   0.000000   0.000000
    24  H   -0.000000   0.000000  -0.000000   0.000007   0.000006  -0.000000
    25  H   -0.000000   0.000000  -0.000000   0.000001   0.000000   0.000000
    26  H    0.000000   0.000000   0.000000   0.000000  -0.000000   0.000000
    27  H    0.000000   0.000000   0.000000  -0.000042  -0.000006  -0.000000
    28  H   -0.000000  -0.000000   0.000000   0.001228   0.000187  -0.000004
    29  H   -0.000000   0.000000  -0.000000   0.001066   0.000189  -0.000009
    30  H    0.000000   0.000000  -0.000000  -0.025150  -0.001533  -0.000064
    31  H    0.000000  -0.000000   0.000000  -0.005037   0.000402  -0.000015
    32  H   -0.000000   0.000000  -0.000000   0.000947   0.001512  -0.000024
    33  H    0.000000   0.000000   0.000000  -0.000007   0.000026  -0.000000
    34  H    0.000000   0.000000   0.000000  -0.000054  -0.000017  -0.000000
    35  H    0.000009   0.000000   0.000000   0.000001   0.000003   0.000000
    36  H   -0.000014   0.000004   0.000000   0.000000  -0.000000  -0.000000
    37  H    0.000209   0.000004   0.000000  -0.000000  -0.000000   0.000000
    38  H   -0.004328   0.000152   0.000005   0.000000   0.000000  -0.000000
[...]
 03416,0.00000269,-0.00008701,-0.00017381,0.00001241,-0.00012342,0.0027
 4758,0.00061530,0.00010621,0.01738978,-0.02772068,0.02152706,0.0646207
 3,-0.11012876,0.08427031,-0.00001904,-0.00001739,-0.00001138,0.0000208
 5,0.00001562,0.00001584,-0.00001677,-0.00000260,-0.00000718,-0.0000003
 9,-0.00000133,0.00000089,-0.00000030,0.00000127,0.00000084,0.00000010,
 -0.00000002,-0.00000138,-0.00000062,-0.00000149,-0.00000039,-0.0000007
 8,0.00000008,0.00000109,-0.00000109,0.00000173,0.00000152,-0.00000181,
 -0.00000070,0.00000156,-0.00000072,0.00000131,-0.00000219,0.00000236,-
 0.00000208,0.00000019,-0.00000118,-0.00000208,0.00000068,0.00000016,0.
 00000068,0.00000049,-0.00000047,0.00000078,0.00000012,-0.00000132,0.00
 000078,-0.00000047,0.00000039,0.00000043,-0.00000009,0.00000090,-0.000
 00070,-0.00000250,-0.00000168,-0.00000875,-0.00000403,0.00000318,0.000
 00088,0.00000122,0.00000369,0.00000546,-0.00000607,-0.00000561,-0.0000
 0896,-0.00000119,-0.00007996,-0.00000401,0.00000602,0.00000203,-0.0000
 0298,-0.00000413,-0.00002931,0.00028457,-0.00015937,0.00003857,-0.0000
 1946,-0.00000591,-0.00106306,0.00044848,-0.00018586,-0.00053764,0.0000
 4173,0.00013791,-0.00400162,-0.00515065,0.00231114,-0.07277669,0.13362
 478,-0.00000096,-0.00000087,0.00000038,-0.00000025,0.00000063,-0.00000
 019,-0.00000112,-0.00000092,-0.00000041,-0.00000099,0.00000139,-0.0000
 0038,-0.00000092,0.00000034,0.00000037,-0.00000376,0.00000142,-0.00000
 333,-0.00000119,0.00000144,-0.00000068,0.00000170,-0.00000018,-0.00000
 150,0.00000779,0.00000781,-0.00000447,0.00001010,-0.00001229,0.0000027
 6,0.00000283,0.00006944,-0.00004319,0.00041001,-0.00013807,0.00019472,
 -0.00119080,-0.00002378,0.00004503,0.00149825,0.00346819,0.00229436,-0
 .09261016,0.08901753,-0.16833475,0.00000638,0.00000156,0.00000479,-0.0
 0000800,-0.00000145,-0.00000409,0.00000591,-0.00000100,0.00000237,0.00
 000041,0.00000008,0.00000002,0.00000028,-0.00000051,-0.00000080,0.,0.0
 0000060,0.00000083,0.00000056,0.00000064,0.00000053,0.00000049,-0.0000
 0044,-0.00000026,0.00000020,0.00000007,-0.00000040,0.00000036,0.000000
 16,-0.00000033,0.00000157,-0.00000149,0.00000139,-0.00000145,-0.000000
 08,-0.00000060,0.00000039,0.00000027,0.00000055,0.00000009,-0.00000036
 ,-0.00000025,0.00000018,-0.00000081,-0.00000015,0.00000132,0.,0.000001
 71,-0.00000064,0.00000064,-0.00000086,0.00000085,-0.00000216,0.0000013
 2,0.00000004,0.00000045,0.00000005,0.00000134,0.00000441,0.00000300,-0
 .00000075,-0.00000910,0.00000173,0.00000115,0.00000038,-0.00000040,0.0
 0002972,0.00000671,0.00001904,-0.00000150,0.00000575,0.00000061,-0.000
 05154,-0.00019166,0.00001399,-0.00001770,-0.00002891,-0.00001313,0.000
 63798,0.00020142,0.00007278,-0.00012491,-0.00007069,-0.00033922,0.0007
 6292,-0.00060192,0.00068998,0.10155263,-0.09873320,0.17851878,0.000000
 33,0.00000028,-0.00000015,0.00000028,-0.00000023,0.00000033,0.00000010
 ,0.00000009,-0.00000012,0.00000061,-0.00000054,0.00000059,0.00000042,-
 0.00000007,-0.00000016,0.00000015,-0.00000083,0.00000093,0.00000036,-0
 .00000017,-0.00000062,-0.00000098,-0.00000259,-0.00000067,-0.00000463,
 -0.00000172,0.00000253,0.00000589,0.00001174,0.00001783,-0.00000728,-0
 .00001453,0.00005282,-0.00016041,-0.00013707,0.00017182,0.00333859,-0.
 00104123,-0.00421096,0.00001383,-0.01140843,-0.00977303,-0.05306960,0.
 00637286,0.01154573,-0.00000073,0.00000063,-0.00000061,0.00000089,-0.0
 0000046,0.00000002,-0.00000057,0.00000036,-0.00000007,-0.00000013,0.00
 000014,-0.00000004,-0.00000008,0.00000017,0.00000028,0.00000003,-0.000
 00032,-0.00000023,-0.00000019,-0.00000005,-0.00000020,-0.00000019,0.00
 000012,0.00000003,0.00000002,0.00000004,0.00000018,-0.00000017,-0.0000
 0011,0.00000017,-0.00000049,0.00000031,-0.00000034,0.00000023,0.000000
 07,-0.00000030,-0.00000009,0.00000007,-0.00000011,-0.00000013,0.000000
 07,0.00000006,0.00000003,0.00000033,0.00000007,-0.00000029,-0.00000003
 ,-0.00000046,0.00000008,-0.00000029,0.00000056,-0.00000024,0.00000066,
 -0.00000029,-0.00000020,0.00000033,0.00000050,-0.00000034,-0.00000180,
 -0.00000228,-0.00000064,0.00000257,-0.00000144,0.00000430,0.00000823,-
 0.00000164,-0.00000536,-0.00000240,-0.00000428,-0.00004156,-0.00000645
 ,0.00003787,0.00000074,0.00005454,-0.00002754,-0.00006444,0.00016008,0
 .00015065,-0.00017427,0.00001912,-0.00000393,0.00061581,0.00119296,0.0
 0091935,-0.00019361,0.00093067,0.00048707,0.00126953,-0.00736685,-0.01
 635894,0.04905519,-0.00000045,-0.00000320,-0.00000084,-0.00000022,0.00
 000535,-0.00000393,0.00000423,-0.00000136,-0.00000454,-0.00000112,0.00
 000809,-0.00000644,-0.00000422,-0.00000324,-0.00000393,0.00003219,0.00
 003126,-0.00000366,0.00000325,-0.00003468,-0.00000152,0.00000272,0.000
 09218,-0.00002239,-0.00011735,-0.00013491,0.00006656,0.00004644,0.0001
 4017,-0.00000120,0.00007597,-0.00015523,0.00015981,-0.00029572,0.00019
 724,0.00038018,0.00620358,0.00095099,-0.00227587,-0.00794460,-0.032015
 78,-0.02753992,0.00665498,-0.09581147,-0.09039499,-0.00004653,-0.00004
 742,-0.00001784,0.00004993,0.00003792,0.00003316,-0.00004096,-0.000008
 10,-0.00001265,0.00000015,-0.00000411,0.00000282,-0.00000088,0.0000024
 7,0.00000070,0.00000055,0.00000201,-0.00000154,0.00000017,-0.00000229,
 0.00000032,-0.00000186,-0.00000096,0.00000359,-0.00000419,0.00000712,0
 .00000509,-0.00000542,-0.00000241,0.00000595,0.00000228,-0.00000012,-0
 .00000240,0.00000370,-0.00000764,-0.00000318,-0.00000244,-0.00000578,0
 .00000438,0.00000010,0.00000176,0.00000221,-0.00000124,0.00000326,0.00
 000115,0.00000034,0.00000078,0.00000126,-0.00000112,0.00000356,0.00000
 164,0.00000624,-0.00000759,-0.00000175,-0.00000636,-0.00002321,-0.0000
 0537,0.00001651,0.00000307,-0.00000519,0.00000158,-0.00000751,0.000004
 22,-0.00001238,-0.00000550,0.00001249,-0.00002933,0.00000437,-0.000018
 28,-0.00008841,-0.00001110,0.00003300,0.00003741,0.00001278,-0.0000449
 7,0.00019945,0.00038790,0.00014703,-0.00049508,0.00007475,0.00018514,-
 0.00151256,0.00087084,0.00207738,-0.00040510,0.00101425,-0.00063743,-0
 .00098748,0.00852189,0.01335917,-0.00243351,0.11619838,0.,-0.00000266,
 -0.00000158,0.00000046,0.00000294,-0.00000184,0.00000190,-0.00000253,-
 0.00000447,0.00000023,0.00000499,-0.00000315,-0.00000184,-0.00000183,-
 0.00000267,0.00001548,0.00001586,-0.00000560,0.00000227,-0.00001960,-0
 .00000271,-0.00000047,0.00004392,-0.00001571,-0.00006717,-0.00006307,0
 .00004916,0.00001459,0.00005932,-0.00001376,0.00000637,-0.00014912,-0.
 00004895,-0.00017865,0.00028553,0.00038932,0.00010670,0.00116026,0.002
 67073,-0.00138588,-0.00543023,0.00754048,0.01190127,-0.08925212,-0.229
 38149,-0.00002287,-0.00002052,-0.00000417,0.00002518,0.00001344,0.0000
 1179,-0.00002043,-0.00000255,-0.00000364,0.00000018,-0.00000209,0.0000
 0140,-0.00000097,0.00000141,0.00000100,0.00000076,0.00000150,-0.000000
 22,0.00000067,-0.00000029,0.00000030,-0.00000175,-0.00000057,0.0000023
 7,-0.00000286,0.00000496,0.00000414,-0.00000413,-0.00000176,0.00000451
 ,0.00000183,-0.00000088,-0.00000123,0.00000173,-0.00000456,-0.00000358
 ,-0.00000076,-0.00000263,0.00000269,-0.00000073,0.00000119,0.00000182,
 -0.00000062,0.00000312,0.00000149,0.00000060,-0.00000032,0.00000048,-0
 .00000141,0.00000223,0.00000289,0.00000381,-0.00000423,-0.00000095,-0.
 00000307,-0.00000835,0.00000118,0.00000938,-0.00000357,-0.00001058,0.0
 0000199,-0.00000317,0.00000252,-0.00000927,0.00000417,0.00001594,-0.00
 001784,-0.00000290,-0.00000727,-0.00000746,-0.00000980,0.00001541,0.00
 000350,0.00002153,-0.00001705,0.00018159,0.00020777,-0.00008548,-0.000
 04470,0.00011517,-0.00049301,-0.00210135,-0.00104935,-0.00003541,-0.00
 021913,-0.00034041,0.00147478,0.00230030,-0.00957332,-0.02058584,-0.01
 052879,0.10715464,0.24694649,-0.00000122,-0.00000147,0.00000143,-0.000
 00094,0.00000511,-0.00000461,0.00000357,0.00000199,-0.00000089,-0.0000
 0168,0.00000663,-0.00000696,-0.00000492,-0.00000371,-0.00000333,0.0000
 3241,0.00003363,0.00000089,0.00000101,-0.00003488,0.00000033,-0.000001
 49,0.00010221,-0.00000831,-0.00010246,-0.00016645,0.00004259,-0.000044
 12,0.00016457,0.00004052,0.00007245,-0.00040198,-0.00005383,-0.0005597
 1,0.00061459,0.00045145,0.00151410,-0.00332524,-0.00008725,-0.01273944
 ,-0.00169723,0.00213774,-0.28476947,0.01347002,0.07477203,-0.00004691,
 -0.00005375,-0.00002334,0.00004889,0.00004710,0.00003955,-0.00004096,-
 0.00001132,-0.00001567,0.00000010,-0.00000447,0.00000297,0.,0.00000231
 ,-0.00000032,0.00000005,0.00000133,-0.00000258,-0.00000082,-0.00000360
 ,0.00000012,-0.00000055,-0.00000089,0.00000284,-0.00000317,0.00000528,
 0.00000271,-0.00000359,-0.00000186,0.00000394,0.00000134,0.00000176,-0
 .00000241,0.00000415,-0.00000726,-0.00000013,-0.00000320,-0.00000644,0
 .00000384,0.00000133,0.00000133,0.00000137,-0.00000132,0.00000098,-0.0
 0000029,0.00000080,0.00000142,0.00000178,0.00000026,0.00000281,-0.0000
 0116,0.00000593,-0.00000762,-0.00000035,-0.00000666,-0.00002564,-0.000
 01197,0.00001535,0.00000823,0.00000123,0.00000152,-0.00000428,0.000008
 62,-0.00001601,-0.00001483,-0.00000547,-0.00000702,0.00001507,-0.00000
 972,0.00000691,0.00001014,0.00000475,-0.00000183,-0.00011434,0.0000510
 7,-0.00001646,-0.00004170,-0.00005607,0.00042612,-0.00000028,0.0000213
 5,0.00005074,0.00012453,0.00012310,0.00050380,-0.00027796,0.00034098,-
 0.01452894,0.00127812,0.00543944,-0.00058063,0.00109673,0.00004231,0.3
 1079119,-0.00000100,-0.00000120,0.00000078,-0.00000046,0.00000290,-0.0
 0000225,0.00000158,0.00000004,-0.00000094,-0.00000110,0.00000466,-0.00
 000399,-0.00000257,-0.00000229,-0.00000247,0.00001558,0.00002096,0.000
 00069,0.00000106,-0.00003039,-0.00000006,-0.00002022,0.00007003,-0.000
 00248,-0.00007904,-0.00016503,0.00004054,-0.00015323,0.00016933,0.0000
 6846,0.00001124,-0.00077913,-0.00007771,-0.00187676,0.00062712,0.00067
 731,-0.00012677,-0.00628645,0.00056429,-0.03802288,-0.00182697,0.00937
 723,0.02232274,-0.04973343,-0.00647159,-0.00002674,-0.00002938,-0.0000
 1198,0.00002557,0.00002376,0.00002112,-0.00002173,-0.00000512,-0.00000
 867,0.00000025,-0.00000203,0.00000141,0.00000002,0.00000100,-0.0000003
 5,0.00000012,0.00000082,-0.00000091,-0.00000022,-0.00000149,0.00000028
 ,-0.00000030,-0.00000076,0.00000157,-0.00000195,0.00000357,0.00000172,
 -0.00000220,-0.00000156,0.00000286,0.00000110,0.00000030,-0.00000077,0
 .00000220,-0.00000417,-0.00000155,-0.00000149,-0.00000331,0.00000260,0
 .00000044,0.00000066,0.00000101,-0.00000069,0.00000120,0.00000001,-0.0
 0000003,0.00000069,0.00000024,0.00000023,0.00000178,0.00000039,0.00000
 402,-0.00000426,-0.00000005,-0.00000423,-0.00001657,-0.00000770,0.0000
 1162,0.00000161,-0.00000264,0.00000486,-0.00000282,0.00001160,-0.00001
 031,-0.00001198,-0.00001012,-0.00000142,0.00001132,-0.00002687,0.00002
 757,0.00000784,0.00000914,0.00008099,0.00004812,0.00006598,0.00001227,
 0.00003937,-0.00008102,-0.00010420,0.00016103,-0.00041580,-0.00013878,
 0.00000869,0.00033725,0.00036647,0.00152408,0.00040225,0.01483348,-0.0
 0054004,-0.00633022,0.01366311,-0.00027997,-0.00315295,-0.01078881,0.0
 5699741,0.00000054,0.00000055,-0.00000058,0.00000054,-0.00000119,0.000
 00126,-0.00000049,-0.00000038,-0.00000002,0.00000105,-0.00000151,0.000
 00178,0.00000121,0.00000064,0.00000041,-0.00000496,-0.00000644,0.00000
 118,-0.00000012,0.00000609,-0.00000057,0.00000046,-0.00001922,0.000002
 55,0.00001489,0.00003141,-0.00001006,0.00001446,-0.00003031,-0.0000037
 1,-0.00001773,0.00007636,0.00001561,0.00027088,-0.00017051,0.00049764,
 -0.00021868,0.00095940,0.00016162,0.00134009,0.00129842,-0.00070613,0.
 07570617,-0.00487285,-0.07202566,0.00000694,0.00000910,0.00000271,-0.0
 0000718,-0.00000761,-0.00000585,0.00000617,0.00000212,0.00000210,-0.00
 000012,0.00000099,-0.00000060,-0.00000009,-0.00000020,0.00000052,0.000
 00007,-0.00000064,0.00000021,-0.00000009,0.00000060,-0.00000026,-0.000
 00018,0.00000031,-0.00000047,0.00000059,-0.00000084,-0.00000021,0.0000
 0035,0.00000018,-0.00000050,-0.00000075,-0.00000018,0.00000002,-0.0000
 0055,0.00000138,-0.00000031,0.00000050,0.00000112,-0.00000077,-0.00000
 038,-0.00000015,-0.00000023,0.00000026,-0.00000003,0.00000009,-0.00000
 039,-0.00000009,-0.00000058,0.00000001,-0.00000075,0.00000043,-0.00000
 132,0.00000173,-0.00000054,0.00000112,0.00000463,0.00000196,-0.0000033
 7,-0.00000160,-0.00000120,-0.00000170,0.00000329,-0.00000405,0.0000022
 5,0.00000086,-0.00000110,0.00000320,0.00000091,0.00000228,-0.00000253,
 -0.00000907,0.00000377,-0.00004292,-0.00005059,-0.00002585,0.00004445,
 0.00012375,-0.00000880,0.00033202,-0.00019785,0.00016361,-0.00050528,-
 0.00006822,0.00051758,0.00035137,0.00001103,-0.00007623,-0.02157467,0.
 00051190,0.00746444,0.02752771,-0.00263128,-0.00841001,-0.08324348,0.0
 0502476,0.07244231,-0.00001441,-0.00003232,0.00001096,0.00007334,0.000
 06996,0.00003814,-0.00006337,-0.00010122,0.00013129,-0.00001642,0.0000
 0133,0.00000397,0.00031186,0.00020163,-0.00006716,0.00230659,-0.004402
 21,-0.00278055,0.00030484,-0.00022926,0.00014770,-0.00002928,0.0001836
 7,0.00012531,0.00010351,-0.00002324,-0.00005583,-0.00003913,0.00002574
 ,0.00001959,0.00000959,-0.00000252,-0.00000765,-0.00000433,0.00000827,
 0.00000339,-0.00000371,-0.00000183,0.00000173,0.00000565,0.00000048,-0
 .00000566,0.00000003,-0.00000014,0.00000156,0.00351388,-0.00558489,-0.
 00683568,-0.14073391,0.09924118,0.03925149,-0.03997513,0.02544461,-0.0
 0097634,0.00000952,-0.00000592,0.00001037,0.00000748,0.00000435,-0.000
 00284,-0.00000817,-0.00000104,-0.00000897,-0.00001207,-0.00003292,-0.0
 0000612,-0.00000063,-0.00001014,-0.00000676,-0.00001188,0.00000381,-0.
 00001247,0.00000215,0.00000137,-0.00000440,0.00000893,-0.00000451,0.00
 000063,-0.00001167,-0.00001446,-0.00000079,-0.00001481,-0.00003225,0.0
 0014653,-0.00005239,0.00009156,-0.00006311,0.00019075,0.00004573,0.000
 27093,-0.00007500,-0.00011867,0.00003443,-0.00004139,-0.00003291,0.000
 08163,0.00001822,-0.00000277,-0.00000925,-0.00000074,-0.00002234,-0.00
 003648,-0.00001086,0.00000194,0.00001941,0.00000464,-0.00000288,0.0000
 0143,0.00000895,-0.00000553,-0.00001791,0.00000073,-0.00000107,0.00000
 298,-0.00000159,-0.00000258,-0.00000207,0.00000227,-0.00000081,0.00000
 148,0.00000099,-0.00000042,-0.00000277,0.00000035,-0.00000071,0.000001
 13,0.00000051,-0.00000131,-0.00000261,-0.00000035,0.00000117,0.0000022
 2,-0.00000017,0.00000003,0.00000068,-0.00000017,0.00000001,-0.00000095
 ,0.00000150,0.00000059,-0.00000031,0.17423534,0.00001530,0.00003154,-0
 .00001408,-0.00009637,-0.00005231,-0.00003473,0.00010724,0.00015686,-0
 .00018525,-0.00000124,0.00000979,0.00001106,-0.00098072,0.00009672,-0.
 00012295,0.00736985,-0.00143149,0.00082655,-0.00056259,0.00026633,0.00
 036175,0.00001801,-0.00021776,-0.00016274,-0.00007384,0.00007085,0.000
 07960,0.00000929,-0.00002932,-0.00001660,-0.00000723,-0.00000021,0.000
 00521,0.00000102,-0.00000357,-0.00000263,-0.00000010,-0.00000219,-0.00
 000196,-0.00000019,0.00000412,0.00000295,-0.00000073,-0.00000361,-0.00
 000089,0.01011274,-0.02727323,-0.02481285,0.09348814,-0.16220270,-0.03
 330342,0.00735751,0.01329074,-0.00374260,-0.00000916,0.00000310,-0.000
 00611,-0.00000559,-0.00000177,0.00000189,0.00000716,0.00000005,0.00000
 692,0.00001329,0.00003347,-0.00000172,0.00000250,0.00000605,0.00001143
 ,-0.00006057,0.00001457,0.00000272,0.00000430,0.00000286,0.00001056,-0
 .00000570,0.,-0.00000077,0.00001038,0.00000544,-0.00000259,0.00011910,
 0.00012959,-0.00015063,0.00002592,0.00008079,0.00034652,-0.00229439,0.
 00093762,0.00077294,0.00011508,0.00013743,-0.00011236,0.00006542,0.000
 23044,-0.00002088,-0.00003511,0.00000354,0.00000831,-0.00006137,0.0000
 2339,0.00009648,0.00001516,-0.00000498,-0.00002189,-0.00000121,0.00000
 089,0.00000006,-0.00000430,0.00000383,0.00001407,-0.00000003,0.0000004
 1,-0.00000212,0.00000131,0.00000292,0.00000259,-0.00000087,0.00000026,
 -0.00000068,-0.00000110,0.00000046,0.00000266,0.,0.00000031,-0.0000008
 1,0.00000047,0.00000170,0.00000211,-0.00000028,-0.00000106,-0.00000171
 ,-0.00000017,0.00000018,-0.00000039,0.00000013,0.00000119,0.00000142,0
 .00000011,0.00000008,-0.00000001,-0.11465657,0.17567669,-0.00000248,0.
 00001363,0.00000195,-0.00002242,-0.00003798,-0.00002281,-0.00000233,0.
 00002714,-0.00007896,-0.00000034,-0.00002086,0.00001032,-0.00015960,-0
 .00005389,-0.00002741,0.00359212,-0.00089465,-0.00006432,-0.00072450,0
 .00023740,0.00063043,-0.00000046,-0.00015557,-0.00017590,-0.00007594,0
 .00003667,0.00003423,0.00001499,-0.00002684,-0.00000056,-0.00000782,0.
 00000359,0.00000619,0.00000246,-0.00000594,-0.00000050,0.00000127,0.00
 000278,0.00000113,-0.00000312,-0.00000322,0.00000091,0.00000018,0.0000
 0216,0.00000026,0.00415178,-0.02805043,0.00334469,0.03496980,-0.032869
 88,-0.07585934,-0.01135531,0.00094616,0.02054138,-0.00000045,-0.000001
 44,0.00000049,-0.00000100,-0.00000170,-0.00000169,0.00000868,0.0000015
 1,0.00000678,0.00000892,0.00002886,0.00000130,0.00000228,0.00000550,0.
 00000576,-0.00001635,-0.00001490,0.00000200,0.00000062,0.00000548,0.00
 000137,0.00000465,0.00000736,0.00000481,0.00000500,0.00001526,0.000000
 47,0.00003269,0.00000605,-0.00016199,0.00011818,0.00001464,0.00011516,
 -0.00120743,0.00028496,-0.00006932,0.00005346,0.00016807,-0.00016680,0
 .00008533,0.00014802,-0.00000944,-0.00006064,0.00000142,0.00000766,-0.
 00001494,0.00001790,0.00005237,0.00001262,0.00000503,-0.00000747,-0.00
 000256,0.00000158,-0.00000114,-0.00000230,0.00000043,0.00000349,-0.000
 00056,0.00000104,-0.00000144,0.00000046,-0.00000065,-0.00000052,-0.000
 00177,0.00000064,-0.00000084,0.00000021,-0.00000002,0.00000008,-0.0000
 0024,0.00000065,-0.00000053,-0.00000048,-0.00000042,-0.00000003,0.0000
 0023,0.00000002,-0.00000020,0.00000010,0.00000005,-0.00000030,0.000000
 08,-0.00000079,-0.00000051,-0.00000081,-0.00000042,0.00000024,-0.02940
 231,0.06015558,0.05187853\\-0.00000090,-0.00000067,0.00000098,0.000002
 21,0.00000098,0.00000062,0.00000292,-0.00000139,0.00000177,-0.00000142
 ,-0.00000055,-0.00000124,-0.00000472,0.00000250,-0.00000371,0.00000496
 ,-0.00000106,0.00000391,-0.00000431,-0.00000050,-0.00000027,0.00000231
 ,-0.00000161,-0.00000058,-0.00000169,-0.00000298,0.00000060,0.00000176
 ,0.00000093,-0.00000269,-0.00000092,-0.00000121,-0.00000056,-0.0000008
 6,-0.00000073,0.00000076,0.00000126,0.00000042,-0.00000102,-0.00000001
 ,0.00000098,-0.00000016,-0.00000014,-0.00000128,-0.00000011,-0.0000040
 6,0.00000174,-0.00000059,-0.00000328,0.00000089,-0.00000113,0.00000127
 ,0.00000007,0.00000017,0.00000061,-0.00000016,0.00000050,0.00000012,0.
 00000019,0.00000011,0.00000006,-0.00000053,0.00000005,0.00000043,-0.00
 000019,0.00000043,-0.00000019,-0.00000007,0.00000017,-0.00000014,0.000
 00034,0.00000077,-0.00000009,0.00000002,-0.00000036,0.00000022,-0.0000
 0014,-0.00000036,-0.00000016,0.00000053,-0.00000113,0.00000092,0.00000
 142,-0.00000090,0.00000049,0.00000025,-0.00000039,0.00000339,0.0000011
 0,0.00000033,-0.00000145,-0.00000172,0.00000079,0.00000055,-0.00000094
 ,0.00000107,-0.00000013,0.00000025,0.00000010,0.00000103,0.00000079,0.
 00000023,0.00000144,0.00000184,0.00000062,-0.00000067,0.00000084,0.000
 00095,-0.00000098,-0.00000122,0.00000085,0.00000035,-0.00000016,-0.000
 00061,0.00000006,0.00000092,0.,-0.00000006,-0.00000039,-0.00000012,0.0
 0000006,0.00000057,-0.00000021,-0.00000002,0.00000018,0.00000003,0.000
 00001,-0.00000031,0.00000001,-0.00000080,0.00000033,0.00000035,-0.0000
 0046,-0.00000018,0.00000022,0.00000044,0.00000008,-0.00000018,0.000000
 08,0.00000024,-0.00000071,0.00000049,-0.00000044,0.00000061\\\@


    UPON JULIA'S CLOTHES

 WHENAS IN SILKS MY JULIA GOES,
 THEN, THEN, METHINKS, HOW SWEETLY FLOWS
 THAT LIQUEFACTION OF HER CLOTHES.

 NEXT, WHEN I CAST MINE EYES, AND SEE
 THAT BRAVE VIBRATION, EACH WAY FREE,
 O, HOW THAT GLITTERING TAKETH ME!
     -- ROBERT HERRICK, 1648
 Job cpu time:       0 days 21 hours  6 minutes 28.9 seconds.
 Elapsed time:       0 days  5 hours 18 minutes 40.9 seconds.
 File lengths (MBytes):  RWF=   1448 Int=      0 D2E=      0 Chk=     36 Scr=      1
 Normal termination of Gaussian 16 at Sun May 28 05:21:08 2023.
### All Done ###
