### Starting Gaussian ###
 Entering Gaussian System, Link 0=g16
 Initial command:
 /cluster/software/gaussian/gaussian-16-A.03/avx2/g16/l1.exe "/local/scratch/linjian/Gau-5691.inp" -scrdir="/local/scratch/linjian/"
 Entering Link 1 = /cluster/software/gaussian/gaussian-16-A.03/avx2/g16/l1.exe PID=      5692.
  
 Copyright (c) 1988,1990,1992,1993,1995,1998,2003,2009,2016,
            Gaussian, Inc.  All Rights Reserved.
  
 This is part of the Gaussian(R) 16 program.  It is based on
 the Gaussian(R) 09 system (copyright 2009, Gaussian, Inc.),
 the Gaussian(R) 03 system (copyright 2003, Gaussian, Inc.),
 the Gaussian(R) 98 system (copyright 1998, Gaussian, Inc.),
 the Gaussian(R) 94 system (copyright 1995, Gaussian, Inc.),
 the Gaussian 92(TM) system (copyright 1992, Gaussian, Inc.),
 the Gaussian 90(TM) system (copyright 1990, Gaussian, Inc.),
 the Gaussian 88(TM) system (copyright 1988, Gaussian, Inc.),
 the Gaussian 86(TM) system (copyright 1986, Carnegie Mellon
 University), and the Gaussian 82(TM) system (copyright 1983,
 Carnegie Mellon University). Gaussian is a federally registered
 trademark of Gaussian, Inc.
  
 This software contains proprietary and confidential information,
 including trade secrets, belonging to Gaussian, Inc.
  
 This software is provided under written license and may be
 used, copied, transmitted, or stored only in accord with that
 written license.
  
 The following legend is applicable only to US Government
 contracts under FAR:
  
                    RESTRICTED RIGHTS LEGEND
  
 Use, reproduction and disclosure by the US Government is
 subject to restrictions as set forth in subparagraphs (a)
 and (c) of the Commercial Computer Software - Restricted
 Rights clause in FAR 52.227-19.
  
 Gaussian, Inc.
 340 Quinnipiac St., Bldg. 40, Wallingford CT 06492
  
  
 ---------------------------------------------------------------
 Warning -- This program may not be used in any manner that
 competes with the business of Gaussian, Inc. or will provide
 assistance to any competitor of Gaussian, Inc.  The licensee
 of this program is prohibited from giving any competitor of
 Gaussian, Inc. access to this program.  By using this program,
 the user acknowledges that Gaussian, Inc. is engaged in the
 business of creating and licensing software in the field of
 computational chemistry and represents and warrants to the
 licensee that it is not a competitor of Gaussian, Inc. and that
 it will not use this program in any manner prohibited above.
 ---------------------------------------------------------------
  

 Cite this work as:
 Gaussian 16, Revision A.03,
 M. J. Frisch, G. W. Trucks, H. B. Schlegel, G. E. Scuseria, 
 M. A. Robb, J. R. Cheeseman, G. Scalmani, V. Barone, 
 G. A. Petersson, H. Nakatsuji, X. Li, M. Caricato, A. V. Marenich, 
 J. Bloino, B. G. Janesko, R. Gomperts, B. Mennucci, H. P. Hratchian, 
 J. V. Ortiz, A. F. Izmaylov, J. L. Sonnenberg, D. Williams-Young, 
 F. Ding, F. Lipparini, F. Egidi, J. Goings, B. Peng, A. Petrone, 
 T. Henderson, D. Ranasinghe, V. G. Zakrzewski, J. Gao, N. Rega, 
 G. Zheng, W. Liang, M. Hada, M. Ehara, K. Toyota, R. Fukuda, 
 J. Hasegawa, M. Ishida, T. Nakajima, Y. Honda, O. Kitao, H. Nakai, 
 T. Vreven, K. Throssell, J. A. Montgomery, Jr., J. E. Peralta, 
 F. Ogliaro, M. J. Bearpark, J. J. Heyd, E. N. Brothers, K. N. Kudin, 
 V. N. Staroverov, T. A. Keith, R. Kobayashi, J. Normand, 
 K. Raghavachari, A. P. Rendell, J. C. Burant, S. S. Iyengar, 
 J. Tomasi, M. Cossi, J. M. Millam, M. Klene, C. Adamo, R. Cammi, 
 J. W. Ochterski, R. L. Martin, K. Morokuma, O. Farkas, 
 J. B. Foresman, and D. J. Fox, Gaussian, Inc., Wallingford CT, 2016.
 
 ******************************************
 Gaussian 16:  ES64L-G16RevA.03 25-Dec-2016
                23-May-2023 
 ******************************************
 %chk=CCCqOrCqNrCqOrCC1CCqCrCCqCrC1.chk
 %NProcShared=20
 Will use up to   20 processors via shared memory.
 -----------------------------
 # opt freq b3lyp/6-31g(2df,p)
 -----------------------------
 1/18=20,19=15,26=3,38=1/1,3;
 2/9=110,12=2,17=6,18=5,40=1/2;
 3/5=1,6=6,7=104,11=2,25=1,30=1,71=1,74=-5/1,2,3;
 4//1;
 5/5=2,38=5/2;
 6/7=2,8=2,9=2,10=2,28=1/1;
 7//1,2,3,16;
 1/18=20,19=15,26=3/3(2);
 2/9=110/2;
 99//99;
 2/9=110/2;
 3/5=1,6=6,7=104,11=2,25=1,30=1,71=1,74=-5/1,2,3;
 4/5=5,16=3,69=1/1;
 5/5=2,38=5/2;
 7//1,2,3,16;
 1/18=20,19=15,26=3/3(-5);
 2/9=110/2;
 6/7=2,8=2,9=2,10=2,19=2,28=1/1;
 99/9=1/99;
 -------------------
 Title Card Required
 -------------------
 Symbolic Z-matrix:
 Charge =  0 Multiplicity = 1
 C                     0.87702   0.10054  -0.09772 
 C                     2.39333   0.06827  -0.09821 
 C                     2.88116  -1.38194  -0.15171 
 O                     2.33851  -1.96056  -1.34095 
 C                     4.41641  -1.4795   -0.13701 
 N                     4.99493  -0.80614   1.0547 
 C                     4.90741  -2.98564  -0.26916 
 O                     4.44203  -3.61877  -1.46017 
 C                     6.41059  -2.93431  -0.38392 
 C                     7.40421  -4.09574  -0.16372 
 C                     8.15675  -3.65162   1.09524 
 C                     7.35268  -4.10617   2.3247 
 C                     7.78488  -3.32436   3.5471 
 C                     7.57138  -5.60221   2.46509 
 C                     6.94166  -6.32764   1.26644 
 C                     7.41824  -7.79214   1.31482 
 C                     7.29167  -5.64768  -0.0837 
 H                     0.52      1.13084  -0.05699 
 H                     0.49393  -0.44251   0.77203 
 H                     0.47337  -0.36857  -1.00011 
 H                     2.75129   0.58241   0.79977 
 H                     2.76796   0.62148  -0.96871 
 H                     2.4859   -1.94004   0.70249 
 H                     2.82893  -1.62092  -2.09631 
 H                     4.79213  -0.93856  -1.01805 
 H                     4.64337  -1.23393   1.90988 
 H                     4.73996   0.18031   1.09106 
 H                     4.56524  -3.55447   0.59734 
 H                     4.80351  -3.14156  -2.21309 
 H                     6.70254  -2.13566   0.30193 
 H                     6.66099  -2.47675  -1.35233 
 H                     8.0301   -3.984    -1.05954 
 H                     8.31373  -2.56693   1.12774 
 H                     9.16584  -4.07083   1.07529 
 H                     6.27333  -3.93414   2.19927 
 H                     8.8733   -3.32228   3.63787 
 H                     7.34821  -3.74058   4.45876 
 H                     7.44366  -2.2867    3.45371 
 H                     7.1501   -5.98506   3.40175 
 H                     8.65173  -5.80112   2.50545 
 H                     5.85056  -6.31955   1.37397 
 H                     8.51367  -7.85757   1.27451 
 H                     7.01659  -8.38108   0.48608 
 H                     7.10588  -8.26885   2.25248 
 H                     6.73406  -6.09488  -0.91306 
 H                     8.33493  -5.96771  -0.26339 
 

 GradGradGradGradGradGradGradGradGradGradGradGradGradGradGradGradGradGrad
 Berny optimization.
 Initialization pass.
                           ----------------------------
                           !    Initial Parameters    !
                           ! (Angstroms and Degrees)  !
 --------------------------                            --------------------------
 ! Name  Definition              Value          Derivative Info.                !
 --------------------------------------------------------------------------------
 ! R1    R(1,2)                  1.5167         estimate D2E/DX2                !
 ! R2    R(1,18)                 1.0912         estimate D2E/DX2                !
 ! R3    R(1,19)                 1.0946         estimate D2E/DX2                !
 ! R4    R(1,20)                 1.0942         estimate D2E/DX2                !
 ! R5    R(2,3)                  1.531          estimate D2E/DX2                !
 ! R6    R(2,21)                 1.0949         estimate D2E/DX2                !
 ! R7    R(2,22)                 1.0973         estimate D2E/DX2                !
 ! R8    R(3,4)                  1.4295         estimate D2E/DX2                !
 ! R9    R(3,5)                  1.5384         estimate D2E/DX2                !
 ! R10   R(3,23)                 1.0942         estimate D2E/DX2                !
 ! R11   R(4,24)                 0.9625         estimate D2E/DX2                !
 ! R12   R(5,6)                  1.486          estimate D2E/DX2                !
 ! R13   R(5,7)                  1.5897         estimate D2E/DX2                !
 ! R14   R(5,25)                 1.1            estimate D2E/DX2                !
 ! R15   R(6,26)                 1.0188         estimate D2E/DX2                !
 ! R16   R(6,27)                 1.0195         estimate D2E/DX2                !
 ! R17   R(7,8)                  1.4269         estimate D2E/DX2                !
 ! R18   R(7,9)                  1.5084         estimate D2E/DX2                !
 ! R19   R(7,28)                 1.0915         estimate D2E/DX2                !
 ! R20   R(8,29)                 0.9619         estimate D2E/DX2                !
 ! R21   R(9,10)                 1.5442         estimate D2E/DX2                !
 ! R22   R(9,30)                 1.0925         estimate D2E/DX2                !
 ! R23   R(9,31)                 1.0999         estimate D2E/DX2                !
 ! R24   R(10,11)                1.5325         estimate D2E/DX2                !
 ! R25   R(10,17)                1.5581         estimate D2E/DX2                !
 ! R26   R(10,32)                1.0985         estimate D2E/DX2                !
 ! R27   R(11,12)                1.5378         estimate D2E/DX2                !
 ! R28   R(11,33)                1.0965         estimate D2E/DX2                !
 ! R29   R(11,34)                1.0929         estimate D2E/DX2                !
 ! R30   R(12,13)                1.514          estimate D2E/DX2                !
 ! R31   R(12,14)                1.5184         estimate D2E/DX2                !
 ! R32   R(12,35)                1.1001         estimate D2E/DX2                !
 ! R33   R(13,36)                1.0922         estimate D2E/DX2                !
 ! R34   R(13,37)                1.0932         estimate D2E/DX2                !
 ! R35   R(13,38)                1.0963         estimate D2E/DX2                !
 ! R36   R(14,15)                1.5361         estimate D2E/DX2                !
 ! R37   R(14,39)                1.0961         estimate D2E/DX2                !
 ! R38   R(14,40)                1.0992         estimate D2E/DX2                !
 ! R39   R(15,16)                1.5409         estimate D2E/DX2                !
 ! R40   R(15,17)                1.5517         estimate D2E/DX2                !
 ! R41   R(15,41)                1.0964         estimate D2E/DX2                !
 ! R42   R(16,42)                1.0981         estimate D2E/DX2                !
 ! R43   R(16,43)                1.0932         estimate D2E/DX2                !
 ! R44   R(16,44)                1.0973         estimate D2E/DX2                !
 ! R45   R(17,45)                1.0949         estimate D2E/DX2                !
 ! R46   R(17,46)                1.1059         estimate D2E/DX2                !
 ! A1    A(2,1,18)             110.3174         estimate D2E/DX2                !
 ! A2    A(2,1,19)             109.8529         estimate D2E/DX2                !
 ! A3    A(2,1,20)             111.0648         estimate D2E/DX2                !
 ! A4    A(18,1,19)            108.9218         estimate D2E/DX2                !
 ! A5    A(18,1,20)            108.3541         estimate D2E/DX2                !
 ! A6    A(19,1,20)            108.2695         estimate D2E/DX2                !
 ! A7    A(1,2,3)              109.7995         estimate D2E/DX2                !
 ! A8    A(1,2,21)             108.4574         estimate D2E/DX2                !
 ! A9    A(1,2,22)             109.3204         estimate D2E/DX2                !
 ! A10   A(3,2,21)             111.6712         estimate D2E/DX2                !
 ! A11   A(3,2,22)             109.9398         estimate D2E/DX2                !
 ! A12   A(21,2,22)            107.5932         estimate D2E/DX2                !
 ! A13   A(2,3,4)              106.949          estimate D2E/DX2                !
 ! A14   A(2,3,5)              112.1922         estimate D2E/DX2                !
 ! A15   A(2,3,23)             109.9223         estimate D2E/DX2                !
 ! A16   A(4,3,5)              111.1677         estimate D2E/DX2                !
 ! A17   A(4,3,23)             107.8096         estimate D2E/DX2                !
 ! A18   A(5,3,23)             108.7035         estimate D2E/DX2                !
 ! A19   A(3,4,24)             108.4588         estimate D2E/DX2                !
 ! A20   A(3,5,6)              111.5574         estimate D2E/DX2                !
 ! A21   A(3,5,7)              111.5631         estimate D2E/DX2                !
 ! A22   A(3,5,25)             107.579          estimate D2E/DX2                !
 ! A23   A(6,5,7)              112.0702         estimate D2E/DX2                !
 ! A24   A(6,5,25)             106.649          estimate D2E/DX2                !
 ! A25   A(7,5,25)             107.0882         estimate D2E/DX2                !
 ! A26   A(5,6,26)             110.3986         estimate D2E/DX2                !
 ! A27   A(5,6,27)             111.6953         estimate D2E/DX2                !
 ! A28   A(26,6,27)            106.8606         estimate D2E/DX2                !
 ! A29   A(5,7,8)              112.896          estimate D2E/DX2                !
 ! A30   A(5,7,9)              106.3725         estimate D2E/DX2                !
 ! A31   A(5,7,28)             109.3253         estimate D2E/DX2                !
 ! A32   A(8,7,9)              106.0584         estimate D2E/DX2                !
 ! A33   A(8,7,28)             109.2165         estimate D2E/DX2                !
 ! A34   A(9,7,28)             112.9862         estimate D2E/DX2                !
 ! A35   A(7,8,29)             108.0984         estimate D2E/DX2                !
 ! A36   A(7,9,10)             127.2112         estimate D2E/DX2                !
 ! A37   A(7,9,30)             104.0888         estimate D2E/DX2                !
 ! A38   A(7,9,31)             107.9383         estimate D2E/DX2                !
 ! A39   A(10,9,30)            106.7596         estimate D2E/DX2                !
 ! A40   A(10,9,31)            106.9735         estimate D2E/DX2                !
 ! A41   A(30,9,31)            100.8235         estimate D2E/DX2                !
 ! A42   A(9,10,11)            102.424          estimate D2E/DX2                !
 ! A43   A(9,10,17)            135.2342         estimate D2E/DX2                !
 ! A44   A(9,10,32)            100.0099         estimate D2E/DX2                !
 ! A45   A(11,10,17)           106.376          estimate D2E/DX2                !
 ! A46   A(11,10,32)           111.1412         estimate D2E/DX2                !
 ! A47   A(17,10,32)           100.6236         estimate D2E/DX2                !
 ! A48   A(10,11,12)           108.3234         estimate D2E/DX2                !
 ! A49   A(10,11,33)           112.4168         estimate D2E/DX2                !
 ! A50   A(10,11,34)           109.1017         estimate D2E/DX2                !
 ! A51   A(12,11,33)           110.095          estimate D2E/DX2                !
 ! A52   A(12,11,34)           112.5819         estimate D2E/DX2                !
 ! A53   A(33,11,34)           104.3479         estimate D2E/DX2                !
 ! A54   A(11,12,13)           110.097          estimate D2E/DX2                !
 ! A55   A(11,12,14)           106.8484         estimate D2E/DX2                !
 ! A56   A(11,12,35)           112.0628         estimate D2E/DX2                !
 ! A57   A(13,12,14)           113.141          estimate D2E/DX2                !
 ! A58   A(13,12,35)           106.9401         estimate D2E/DX2                !
 ! A59   A(14,12,35)           107.8129         estimate D2E/DX2                !
 ! A60   A(12,13,36)           110.6439         estimate D2E/DX2                !
 ! A61   A(12,13,37)           111.2651         estimate D2E/DX2                !
 ! A62   A(12,13,38)           109.3372         estimate D2E/DX2                !
 ! A63   A(36,13,37)           109.2375         estimate D2E/DX2                !
 ! A64   A(36,13,38)           108.3876         estimate D2E/DX2                !
 ! A65   A(37,13,38)           107.8839         estimate D2E/DX2                !
 ! A66   A(12,14,15)           109.5178         estimate D2E/DX2                !
 ! A67   A(12,14,39)           111.5793         estimate D2E/DX2                !
 ! A68   A(12,14,40)           108.8582         estimate D2E/DX2                !
 ! A69   A(15,14,39)           110.1399         estimate D2E/DX2                !
 ! A70   A(15,14,40)           110.2488         estimate D2E/DX2                !
 ! A71   A(39,14,40)           106.4491         estimate D2E/DX2                !
 ! A72   A(14,15,16)           107.3111         estimate D2E/DX2                !
 ! A73   A(14,15,17)           112.306          estimate D2E/DX2                !
 ! A74   A(14,15,41)           109.1443         estimate D2E/DX2                !
 ! A75   A(16,15,17)           111.9653         estimate D2E/DX2                !
 ! A76   A(16,15,41)           108.1635         estimate D2E/DX2                !
 ! A77   A(17,15,41)           107.853          estimate D2E/DX2                !
 ! A78   A(15,16,42)           111.3471         estimate D2E/DX2                !
 ! A79   A(15,16,43)           112.0003         estimate D2E/DX2                !
 ! A80   A(15,16,44)           110.5915         estimate D2E/DX2                !
 ! A81   A(42,16,43)           107.854          estimate D2E/DX2                !
 ! A82   A(42,16,44)           106.8251         estimate D2E/DX2                !
 ! A83   A(43,16,44)           108.01           estimate D2E/DX2                !
 ! A84   A(10,17,15)           119.8323         estimate D2E/DX2                !
 ! A85   A(10,17,45)           113.8738         estimate D2E/DX2                !
 ! A86   A(10,17,46)           102.2252         estimate D2E/DX2                !
 ! A87   A(15,17,45)           111.4222         estimate D2E/DX2                !
 ! A88   A(15,17,46)           103.1412         estimate D2E/DX2                !
 ! A89   A(45,17,46)           103.8368         estimate D2E/DX2                !
 ! D1    D(18,1,2,3)           179.8475         estimate D2E/DX2                !
 ! D2    D(18,1,2,21)           57.5763         estimate D2E/DX2                !
 ! D3    D(18,1,2,22)          -59.4682         estimate D2E/DX2                !
 ! D4    D(19,1,2,3)            59.7597         estimate D2E/DX2                !
 ! D5    D(19,1,2,21)          -62.5115         estimate D2E/DX2                !
 ! D6    D(19,1,2,22)         -179.556          estimate D2E/DX2                !
 ! D7    D(20,1,2,3)           -59.9914         estimate D2E/DX2                !
 ! D8    D(20,1,2,21)          177.7375         estimate D2E/DX2                !
 ! D9    D(20,1,2,22)           60.693          estimate D2E/DX2                !
 ! D10   D(1,2,3,4)             58.5655         estimate D2E/DX2                !
 ! D11   D(1,2,3,5)           -179.2925         estimate D2E/DX2                !
 ! D12   D(1,2,3,23)           -58.2134         estimate D2E/DX2                !
 ! D13   D(21,2,3,4)           178.9062         estimate D2E/DX2                !
 ! D14   D(21,2,3,5)           -58.9519         estimate D2E/DX2                !
 ! D15   D(21,2,3,23)           62.1272         estimate D2E/DX2                !
 ! D16   D(22,2,3,4)           -61.7437         estimate D2E/DX2                !
 ! D17   D(22,2,3,5)            60.3982         estimate D2E/DX2                !
 ! D18   D(22,2,3,23)         -178.5227         estimate D2E/DX2                !
 ! D19   D(2,3,4,24)            74.8735         estimate D2E/DX2                !
 ! D20   D(5,3,4,24)           -47.9087         estimate D2E/DX2                !
 ! D21   D(23,3,4,24)         -166.9591         estimate D2E/DX2                !
 ! D22   D(2,3,5,6)             56.7647         estimate D2E/DX2                !
 ! D23   D(2,3,5,7)           -177.0406         estimate D2E/DX2                !
 ! D24   D(2,3,5,25)           -59.8705         estimate D2E/DX2                !
 ! D25   D(4,3,5,6)            176.4732         estimate D2E/DX2                !
 ! D26   D(4,3,5,7)            -57.3322         estimate D2E/DX2                !
 ! D27   D(4,3,5,25)            59.8379         estimate D2E/DX2                !
 ! D28   D(23,3,5,6)           -65.0133         estimate D2E/DX2                !
 ! D29   D(23,3,5,7)            61.1813         estimate D2E/DX2                !
 ! D30   D(23,3,5,25)          178.3514         estimate D2E/DX2                !
 ! D31   D(3,5,6,26)            59.854          estimate D2E/DX2                !
 ! D32   D(3,5,6,27)           -58.8961         estimate D2E/DX2                !
 ! D33   D(7,5,6,26)           -66.0617         estimate D2E/DX2                !
 ! D34   D(7,5,6,27)           175.1881         estimate D2E/DX2                !
 ! D35   D(25,5,6,26)          177.0533         estimate D2E/DX2                !
 ! D36   D(25,5,6,27)           58.3031         estimate D2E/DX2                !
 ! D37   D(3,5,7,8)             58.4478         estimate D2E/DX2                !
 ! D38   D(3,5,7,9)            174.3633         estimate D2E/DX2                !
 ! D39   D(3,5,7,28)           -63.337          estimate D2E/DX2                !
 ! D40   D(6,5,7,8)           -175.6396         estimate D2E/DX2                !
 ! D41   D(6,5,7,9)            -59.7241         estimate D2E/DX2                !
 ! D42   D(6,5,7,28)            62.5756         estimate D2E/DX2                !
 ! D43   D(25,5,7,8)           -59.0189         estimate D2E/DX2                !
 ! D44   D(25,5,7,9)            56.8966         estimate D2E/DX2                !
 ! D45   D(25,5,7,28)          179.1963         estimate D2E/DX2                !
 ! D46   D(5,7,8,29)            62.0982         estimate D2E/DX2                !
 ! D47   D(9,7,8,29)           -54.0045         estimate D2E/DX2                !
 ! D48   D(28,7,8,29)         -176.0557         estimate D2E/DX2                !
 ! D49   D(5,7,9,10)           162.5637         estimate D2E/DX2                !
 ! D50   D(5,7,9,30)            38.2394         estimate D2E/DX2                !
 ! D51   D(5,7,9,31)           -68.3044         estimate D2E/DX2                !
 ! D52   D(8,7,9,10)           -77.0029         estimate D2E/DX2                !
 ! D53   D(8,7,9,30)           158.6728         estimate D2E/DX2                !
 ! D54   D(8,7,9,31)            52.129          estimate D2E/DX2                !
 ! D55   D(28,7,9,10)           42.6106         estimate D2E/DX2                !
 ! D56   D(28,7,9,30)          -81.7137         estimate D2E/DX2                !
 ! D57   D(28,7,9,31)          171.7425         estimate D2E/DX2                !
 ! D58   D(7,9,10,11)         -113.2166         estimate D2E/DX2                !
 ! D59   D(7,9,10,17)           15.9867         estimate D2E/DX2                !
 ! D60   D(7,9,10,32)          132.3328         estimate D2E/DX2                !
 ! D61   D(30,9,10,11)          10.0057         estimate D2E/DX2                !
 ! D62   D(30,9,10,17)         139.209          estimate D2E/DX2                !
 ! D63   D(30,9,10,32)        -104.4449         estimate D2E/DX2                !
 ! D64   D(31,9,10,11)         117.2811         estimate D2E/DX2                !
 ! D65   D(31,9,10,17)        -113.5157         estimate D2E/DX2                !
 ! D66   D(31,9,10,32)           2.8304         estimate D2E/DX2                !
 ! D67   D(9,10,11,12)          85.8087         estimate D2E/DX2                !
 ! D68   D(9,10,11,33)         -36.0702         estimate D2E/DX2                !
 ! D69   D(9,10,11,34)        -151.3187         estimate D2E/DX2                !
 ! D70   D(17,10,11,12)        -59.5267         estimate D2E/DX2                !
 ! D71   D(17,10,11,33)        178.5944         estimate D2E/DX2                !
 ! D72   D(17,10,11,34)         63.3459         estimate D2E/DX2                !
 ! D73   D(32,10,11,12)       -168.1685         estimate D2E/DX2                !
 ! D74   D(32,10,11,33)         69.9526         estimate D2E/DX2                !
 ! D75   D(32,10,11,34)        -45.2959         estimate D2E/DX2                !
 ! D76   D(9,10,17,15)         -85.8055         estimate D2E/DX2                !
 ! D77   D(9,10,17,45)          49.7748         estimate D2E/DX2                !
 ! D78   D(9,10,17,46)         161.09           estimate D2E/DX2                !
 ! D79   D(11,10,17,15)         42.1248         estimate D2E/DX2                !
 ! D80   D(11,10,17,45)        177.705          estimate D2E/DX2                !
 ! D81   D(11,10,17,46)        -70.9798         estimate D2E/DX2                !
 ! D82   D(32,10,17,15)        158.0752         estimate D2E/DX2                !
 ! D83   D(32,10,17,45)        -66.3446         estimate D2E/DX2                !
 ! D84   D(32,10,17,46)         44.9706         estimate D2E/DX2                !
 ! D85   D(10,11,12,13)       -161.4285         estimate D2E/DX2                !
 ! D86   D(10,11,12,14)         75.3382         estimate D2E/DX2                !
 ! D87   D(10,11,12,35)        -42.5421         estimate D2E/DX2                !
 ! D88   D(33,11,12,13)        -38.1364         estimate D2E/DX2                !
 ! D89   D(33,11,12,14)       -161.3697         estimate D2E/DX2                !
 ! D90   D(33,11,12,35)         80.7499         estimate D2E/DX2                !
 ! D91   D(34,11,12,13)         77.8358         estimate D2E/DX2                !
 ! D92   D(34,11,12,14)        -45.3975         estimate D2E/DX2                !
 ! D93   D(34,11,12,35)       -163.2778         estimate D2E/DX2                !
 ! D94   D(11,12,13,36)        -49.0189         estimate D2E/DX2                !
 ! D95   D(11,12,13,37)       -170.6495         estimate D2E/DX2                !
 ! D96   D(11,12,13,38)         70.2857         estimate D2E/DX2                !
 ! D97   D(14,12,13,36)         70.4539         estimate D2E/DX2                !
 ! D98   D(14,12,13,37)        -51.1766         estimate D2E/DX2                !
 ! D99   D(14,12,13,38)       -170.2415         estimate D2E/DX2                !
 ! D100  D(35,12,13,36)       -170.9949         estimate D2E/DX2                !
 ! D101  D(35,12,13,37)         67.3745         estimate D2E/DX2                !
 ! D102  D(35,12,13,38)        -51.6903         estimate D2E/DX2                !
 ! D103  D(11,12,14,15)        -66.01           estimate D2E/DX2                !
 ! D104  D(11,12,14,39)        171.7793         estimate D2E/DX2                !
 ! D105  D(11,12,14,40)         54.5938         estimate D2E/DX2                !
 ! D106  D(13,12,14,15)        172.6668         estimate D2E/DX2                !
 ! D107  D(13,12,14,39)         50.4561         estimate D2E/DX2                !
 ! D108  D(13,12,14,40)        -66.7293         estimate D2E/DX2                !
 ! D109  D(35,12,14,15)         54.623          estimate D2E/DX2                !
 ! D110  D(35,12,14,39)        -67.5877         estimate D2E/DX2                !
 ! D111  D(35,12,14,40)        175.2269         estimate D2E/DX2                !
 ! D112  D(12,14,15,16)        169.39           estimate D2E/DX2                !
 ! D113  D(12,14,15,17)         45.9304         estimate D2E/DX2                !
 ! D114  D(12,14,15,41)        -73.6201         estimate D2E/DX2                !
 ! D115  D(39,14,15,16)        -67.5429         estimate D2E/DX2                !
 ! D116  D(39,14,15,17)        168.9975         estimate D2E/DX2                !
 ! D117  D(39,14,15,41)         49.447          estimate D2E/DX2                !
 ! D118  D(40,14,15,16)         49.6354         estimate D2E/DX2                !
 ! D119  D(40,14,15,17)        -73.8242         estimate D2E/DX2                !
 ! D120  D(40,14,15,41)        166.6254         estimate D2E/DX2                !
 ! D121  D(14,15,16,42)        -58.8114         estimate D2E/DX2                !
 ! D122  D(14,15,16,43)       -179.6711         estimate D2E/DX2                !
 ! D123  D(14,15,16,44)         59.7969         estimate D2E/DX2                !
 ! D124  D(17,15,16,42)         64.857          estimate D2E/DX2                !
 ! D125  D(17,15,16,43)        -56.0026         estimate D2E/DX2                !
 ! D126  D(17,15,16,44)       -176.5347         estimate D2E/DX2                !
 ! D127  D(41,15,16,42)       -176.4426         estimate D2E/DX2                !
 ! D128  D(41,15,16,43)         62.6977         estimate D2E/DX2                !
 ! D129  D(41,15,16,44)        -57.8343         estimate D2E/DX2                !
 ! D130  D(14,15,17,10)        -36.0661         estimate D2E/DX2                !
 ! D131  D(14,15,17,45)       -172.6318         estimate D2E/DX2                !
 ! D132  D(14,15,17,46)         76.5495         estimate D2E/DX2                !
 ! D133  D(16,15,17,10)       -156.881          estimate D2E/DX2                !
 ! D134  D(16,15,17,45)         66.5533         estimate D2E/DX2                !
 ! D135  D(16,15,17,46)        -44.2654         estimate D2E/DX2                !
 ! D136  D(41,15,17,10)         84.2349         estimate D2E/DX2                !
 ! D137  D(41,15,17,45)        -52.3307         estimate D2E/DX2                !
 ! D138  D(41,15,17,46)       -163.1495         estimate D2E/DX2                !
 --------------------------------------------------------------------------------
 Trust Radius=3.00D-01 FncErr=1.00D-07 GrdErr=1.00D-06 EigMax=2.50D+02 EigMin=1.00D-04
 Number of steps in this run=    276 maximum allowed number of steps=    276.
 GradGradGradGradGradGradGradGradGradGradGradGradGradGradGradGradGradGrad

                          Input orientation:                          
 ---------------------------------------------------------------------
 Center     Atomic      Atomic             Coordinates (Angstroms)
 Number     Number       Type             X           Y           Z
 ---------------------------------------------------------------------
      1          6           0        0.877020    0.100540   -0.097720
      2          6           0        2.393330    0.068270   -0.098210
      3          6           0        2.881160   -1.381940   -0.151710
      4          8           0        2.338510   -1.960560   -1.340950
      5          6           0        4.416410   -1.479500   -0.137010
      6          7           0        4.994930   -0.806140    1.054700
      7          6           0        4.907410   -2.985640   -0.269160
      8          8           0        4.442030   -3.618770   -1.460170
      9          6           0        6.410590   -2.934310   -0.383920
     10          6           0        7.404210   -4.095740   -0.163720
     11          6           0        8.156750   -3.651620    1.095240
     12          6           0        7.352680   -4.106170    2.324700
     13          6           0        7.784880   -3.324360    3.547100
     14          6           0        7.571380   -5.602210    2.465090
     15          6           0        6.941660   -6.327640    1.266440
     16          6           0        7.418240   -7.792140    1.314820
     17          6           0        7.291670   -5.647680   -0.083700
     18          1           0        0.520000    1.130840   -0.056990
     19          1           0        0.493930   -0.442510    0.772030
     20          1           0        0.473370   -0.368570   -1.000110
     21          1           0        2.751290    0.582410    0.799770
     22          1           0        2.767960    0.621480   -0.968710
     23          1           0        2.485900   -1.940040    0.702490
     24          1           0        2.828930   -1.620920   -2.096310
     25          1           0        4.792130   -0.938560   -1.018050
     26          1           0        4.643370   -1.233930    1.909880
     27          1           0        4.739960    0.180310    1.091060
     28          1           0        4.565240   -3.554470    0.597340
     29          1           0        4.803510   -3.141560   -2.213090
     30          1           0        6.702540   -2.135660    0.301930
     31          1           0        6.660990   -2.476750   -1.352330
     32          1           0        8.030100   -3.984000   -1.059540
     33          1           0        8.313730   -2.566930    1.127740
     34          1           0        9.165840   -4.070830    1.075290
     35          1           0        6.273330   -3.934140    2.199270
     36          1           0        8.873300   -3.322280    3.637870
     37          1           0        7.348210   -3.740580    4.458760
     38          1           0        7.443660   -2.286700    3.453710
     39          1           0        7.150100   -5.985060    3.401750
     40          1           0        8.651730   -5.801120    2.505450
     41          1           0        5.850560   -6.319550    1.373970
     42          1           0        8.513670   -7.857570    1.274510
     43          1           0        7.016590   -8.381080    0.486080
     44          1           0        7.105880   -8.268850    2.252480
     45          1           0        6.734060   -6.094880   -0.913060
     46          1           0        8.334930   -5.967710   -0.263390
 ---------------------------------------------------------------------
                    Distance matrix (angstroms):
                    1          2          3          4          5
     1  C    0.000000
     2  C    1.516653   0.000000
     3  C    2.493439   1.530996   0.000000
     4  O    2.815974   2.379823   1.429532   0.000000
     5  C    3.876255   2.547538   1.538417   2.449196   0.000000
     6  N    4.371192   2.976931   2.500999   3.758775   1.486026
     7  C    5.079167   3.959317   2.586762   2.966272   1.589655
     8  O    5.329056   4.432423   3.025193   2.681170   2.515529
     9  C    6.317644   5.023494   3.862726   4.294873   2.480764
    10  C    7.759983   6.515534   5.274736   5.621937   3.971445
    11  C    8.276251   6.962680   5.876919   6.530438   4.497409
    12  C    8.093127   6.920375   5.792109   6.571342   4.645545
    13  C    8.528375   7.339417   6.442101   7.444188   5.321914
    14  C    9.159902   8.095496   6.830555   7.424990   5.807021
    15  C    8.942164   7.966005   6.554293   6.859946   5.643671
    16  C   10.347813   9.435699   7.989147   8.177047   7.139203
    17  C    8.613360   7.527684   6.136266   6.301534   5.063960
    18  H    1.091165   2.154094   3.449364   3.809499   4.690660
    19  H    1.094590   2.150799   2.726663   3.189300   4.157830
    20  H    1.094214   2.165756   2.746662   2.475753   4.186487
    21  H    2.133208   1.094917   2.186516   3.349592   2.810988
    22  H    2.146079   1.097342   2.166563   2.643846   2.797004
    23  H    2.718970   2.164024   1.094241   2.048851   2.154931
    24  H    3.281423   2.652454   1.959926   0.962515   2.525658
    25  H    4.153892   2.759357   2.144513   2.677499   1.100006
    26  H    4.471763   3.284940   2.716145   4.050712   2.074024
    27  H    4.042507   2.633171   2.727680   4.032984   2.089931
    28  H    5.238814   4.280798   2.849050   3.354973   2.206110
    29  H    5.513921   4.537036   3.322797   2.869079   2.687452
    30  H    6.252759   4.856615   3.921330   4.666313   2.418596
    31  H    6.455291   5.124731   4.114269   4.353207   2.740374
    32  H    8.293077   7.008439   5.840073   6.047123   4.492476
    33  H    7.995111   6.595329   5.705612   6.493487   4.239245
    34  H    9.353118   8.023474   6.944988   7.543467   5.544524
    35  H    7.118635   6.029270   4.852592   5.648981   3.864145
    36  H    9.466299   8.212438   7.350618   8.327449   6.124494
    37  H    8.797273   7.734607   6.839163   7.867795   5.901613
    38  H    7.837878   6.608166   5.885070   7.011254   4.765405
    39  H    9.414476   8.456913   7.213851   7.863918   6.347909
    40  H   10.102089   8.966401   7.738807   8.330753   6.602797
    41  H    8.253455   7.411073   5.960288   6.221421   5.269339
    42  H   11.114538  10.107515   8.700176   8.930171   7.711012
    43  H   10.486802   9.649220   8.154540   8.151414   7.401418
    44  H   10.694336   9.861107   8.429586   8.685337   7.683631
    45  H    8.564632   7.582238   6.134843   6.049508   5.222594
    46  H    9.616212   8.471302   7.126385   7.292149   5.959429
                    6          7          8          9         10
     6  N    0.000000
     7  C    2.551565   0.000000
     8  O    3.813287   1.426863   0.000000
     9  C    2.933058   1.508428   2.345640   0.000000
    10  C    4.255660   2.734493   3.268454   1.544244   0.000000
    11  C    4.253881   3.586548   4.508918   2.398233   1.532494
    12  C    4.249951   3.736715   4.799446   3.097969   2.488975
    13  C    4.509691   4.791493   6.027775   4.182551   3.809215
    14  C    5.624018   4.628099   5.397641   4.072098   3.034475
    15  C    5.858460   4.202999   4.584815   3.810566   2.690853
    16  C    7.398938   5.649398   5.828843   5.244005   3.981162
    17  C    5.478273   3.578484   3.759201   2.868590   1.558071
    18  H    5.001274   6.019949   6.317438   7.164592   8.644124
    19  H    4.524503   5.199076   5.537042   6.523201   7.872337
    20  H    4.985801   5.200390   5.150312   6.497176   7.913778
    21  H    2.650845   4.303771   5.061210   5.211422   6.668063
    22  H    3.330418   4.251815   4.585168   5.123902   6.662956
    23  H    2.775790   2.810888   3.364770   4.191903   5.439406
    24  H    3.909512   3.085615   2.645406   4.181574   5.549128
    25  H    2.086853   2.182811   2.738899   2.646611   4.185765
    26  H    1.018789   2.808277   4.133429   3.357957   4.484642
    27  H    1.019517   3.449852   4.585907   3.829808   5.192042
    28  H    2.819065   1.091545   2.062198   2.180089   2.988635
    29  H    4.021104   1.952939   0.961918   2.443670   3.445870
    30  H    2.291335   2.066664   3.227153   1.092459   2.133327
    31  H    3.370532   2.123033   2.497924   1.099945   2.141564
    32  H    4.876583   3.372331   3.628794   2.044780   1.098507
    33  H    3.757679   3.705356   4.774275   2.458053   2.198262
    34  H    5.296708   4.595586   5.380269   3.318490   2.153859
    35  H    3.567735   2.976329   4.104220   2.773332   2.624638
    36  H    5.295798   5.577320   6.761218   4.731834   4.148319
    37  H    5.073114   5.374074   6.595032   4.998075   4.636442
    38  H    3.734111   4.558601   5.910195   4.026666   4.044747
    39  H    6.080675   5.244212   6.047416   4.917850   4.043103
    40  H    6.358198   5.444752   6.181454   4.646479   3.404276
    41  H    5.588535   3.834627   4.160591   3.855342   3.118277
    42  H    7.883686   6.254896   6.482604   5.604625   4.177412
    43  H    7.860671   5.842072   5.752899   5.549003   4.351624
    44  H    7.847473   6.253339   6.519441   5.990939   4.831342
    45  H    5.904864   3.663145   3.418165   3.220842   2.237671
    46  H    6.287668   4.543200   4.701539   3.594319   2.092951
                   11         12         13         14         15
    11  C    0.000000
    12  C    1.537763   0.000000
    13  C    2.501400   1.514030   0.000000
    14  C    2.454373   1.518445   2.530796   0.000000
    15  C    2.943949   2.494751   3.864210   1.536085   0.000000
    16  C    4.211593   3.822372   5.007850   2.478380   1.540853
    17  C    2.474372   2.860134   4.338638   2.564495   1.551686
    18  H    9.084025   8.932202   9.252932  10.070591   9.930665
    19  H    8.313944   7.929416   8.316491   8.920721   8.743707
    20  H    8.614130   8.505817   9.103406   9.475249   9.082210
    21  H    6.872649   6.743959   6.938855   8.015989   8.094799
    22  H    7.180413   7.363211   7.818675   8.578936   8.408682
    23  H    5.936522   5.568593   6.171494   6.510020   6.278763
    24  H    6.534172   6.796036   7.701378   7.690765   7.097595
    25  H    4.811170   5.269169   5.957280   6.450281   6.235508
    26  H    4.341970   3.970164   4.113329   5.288040   5.625125
    27  H    5.134020   5.169341   5.252274   6.583497   6.872529
    28  H    3.627160   3.325352   4.372656   4.088839   3.712888
    29  H    4.738083   5.293418   6.488588   5.966680   5.179761
    30  H    2.245485   2.897791   3.621546   4.177453   4.308150
    31  H    3.099712   4.080931   5.097645   5.016972   4.665414
    32  H    2.183940   3.453535   4.660085   3.905387   3.476713
    33  H    1.096472   2.173842   2.589727   3.398899   4.005590
    34  H    1.092885   2.202231   2.928159   2.611316   3.174383
    35  H    2.201357   1.100147   2.115008   2.130270   2.654370
    36  H    2.662119   2.156660   1.092200   2.875498   4.288018
    37  H    3.460479   2.165153   1.093181   2.736821   4.129052
    38  H    2.816715   2.143225   1.096308   3.462122   4.622267
    39  H    3.431949   2.175156   2.739233   1.096076   2.172638
    40  H    2.618024   2.143142   2.823261   1.099250   2.176398
    41  H    3.537521   2.838891   4.175554   2.160172   1.096416
    42  H    4.224872   4.064948   5.123065   2.718831   2.193619
    43  H    4.902941   4.665655   5.960749   3.456355   2.197997
    44  H    4.874664   4.170615   5.156071   2.715301   2.183470
    45  H    3.467973   3.849772   5.354720   3.515071   2.201703
    46  H    2.691077   3.335919   4.670084   2.856782   2.100269
                   16         17         18         19         20
    16  C    0.000000
    17  C    2.563316   0.000000
    18  H   11.361653   9.581470   0.000000
    19  H   10.112257   8.604379   1.778590   0.000000
    20  H   10.425906   8.671679   1.771971   1.773801   0.000000
    21  H    9.600978   7.759484   2.452237   2.479295   3.054971
    22  H    9.880719   7.781360   2.478710   3.055072   2.499266
    23  H    7.677890   6.120467   3.724497   2.493066   3.068981
    24  H    8.413176   6.338883   4.130638   3.881784   2.884215
    25  H    7.701318   5.412626   4.843258   4.682411   4.356248
    26  H    7.145916   5.519877   5.144210   4.374803   5.158080
    27  H    8.413276   6.469679   4.475443   4.303308   4.783101
    28  H    5.158705   3.504107   6.224487   5.127414   5.426344
    29  H    6.396159   4.123819   6.422665   5.896464   5.283077
    30  H    5.790850   3.581909   7.001617   6.452487   6.604580
    31  H    5.995039   3.473036   7.239086   6.832545   6.546382
    32  H    4.529226   2.065278   9.141570   8.525882   8.377293
    33  H    5.304689   3.464565   8.707429   8.111040   8.416162
    34  H    4.118207   2.709654  10.153323   9.405248   9.673316
    35  H    4.120344   3.030707   7.990340   6.901446   7.522557
    36  H    5.243416   4.664667  10.161687   9.312355  10.039626
    37  H    5.128782   4.926882   9.526132   8.452834   9.403890
    38  H    5.906384   4.881860   8.481843   7.674060   8.491212
    39  H    2.773574   3.504601  10.322652   9.052065   9.772413
    40  H    2.627405   2.928652  10.988321   9.913080  10.425312
    41  H    2.151660   2.157083   9.272045   7.974673   8.364484
    42  H    1.098122   2.867339  12.102197  10.933976  11.220759
    43  H    1.093153   2.805672  11.531575  10.278509  10.450971
    44  H    1.097282   3.516076  11.707333  10.351870  10.815912
    45  H    2.883096   1.094877   9.568617   8.586503   8.484954
    46  H    2.580622   1.105938  10.559600   9.647860   9.679734
                   21         22         23         24         25
    21  H    0.000000
    22  H    1.768990   0.000000
    23  H    2.538237   3.071458   0.000000
    24  H    3.639776   2.510689   2.837744   0.000000
    25  H    3.127754   2.556056   3.046624   2.341456   0.000000
    26  H    2.848052   3.904611   2.571198   4.414919   2.946548
    27  H    2.049718   2.885493   3.118919   4.129866   2.388082
    28  H    4.521633   4.808460   2.634596   3.742878   3.082848
    29  H    5.211227   4.455605   3.913512   2.494985   2.506284
    30  H    4.821631   4.969634   4.240138   4.584906   2.612482
    31  H    5.410707   4.990178   4.684199   3.996328   2.443442
    32  H    7.223224   6.993484   6.166091   5.806135   4.445321
    33  H    6.400519   6.731762   5.876856   6.432143   4.433697
    34  H    7.929376   8.193203   7.021456   7.497835   5.772567
    35  H    5.895981   6.563337   4.534469   5.972176   4.638815
    36  H    7.796180   8.605173   7.164211   8.503520   6.634430
    37  H    7.294390   8.334488   6.402622   8.239284   6.661855
    38  H    6.106843   7.062399   5.680561   7.248567   5.370729
    39  H    8.321748   9.052648   6.738171   8.242990   7.110683
    40  H    8.858555   9.377544   7.495069   8.517938   7.138351
    41  H    7.587637   7.947859   5.563446   6.576490   5.983067
    42  H   10.230526  10.485204   8.466308   9.087051   8.184033
    43  H    9.931533  10.060485   7.877879   8.360921   7.912126
    44  H    9.970839  10.403441   7.987523   9.022153   8.353619
    45  H    7.961309   7.800163   6.157886   6.055282   5.510876
    46  H    8.672452   8.654828   7.167022   7.250532   6.197846
                   26         27         28         29         30
    26  H    0.000000
    27  H    1.637031   0.000000
    28  H    2.667165   3.771322   0.000000
    29  H    4.545721   4.685751   2.850576   0.000000
    30  H    2.763838   3.136585   2.582313   3.308092   0.000000
    31  H    4.032047   4.089068   3.058572   2.152467   1.689569
    32  H    5.277336   5.726393   3.864583   3.528635   2.651863
    33  H    3.982483   4.507827   3.912510   4.879855   1.861153
    34  H    5.403450   6.136844   4.654093   5.541381   3.226580
    35  H    3.167278   4.528582   2.372320   4.717783   2.649274
    36  H    5.023889   5.986558   5.278079   7.129487   4.153163
    37  H    4.482883   5.789452   4.763415   7.165745   4.502432
    38  H    3.366506   4.356403   4.248693   6.309818   3.241264
    39  H    5.575178   7.011409   4.522608   6.717024   4.962567
    40  H    6.105807   7.285599   5.038623   6.644297   4.700047
    41  H    5.254335   6.600125   3.146565   4.905398   4.402281
    42  H    7.697761   8.881557   5.879229   6.940417   6.079997
    43  H    7.664276   8.879552   5.414578   6.295698   6.256022
    44  H    7.461329   8.850694   5.605330   7.178532   6.448515
    45  H    5.997400   6.882655   3.665893   3.760213   4.141572
    46  H    6.384308   7.249586   4.557976   4.925381   4.203438
                   31         32         33         34         35
    31  H    0.000000
    32  H    2.057180   0.000000
    33  H    2.981682   2.621589   0.000000
    34  H    3.835193   2.419699   1.729323   0.000000
    35  H    3.858514   3.702509   2.679678   3.106224   0.000000
    36  H    5.523706   4.818145   2.680378   2.685651   3.033774
    37  H    5.986510   5.565596   3.661335   3.854960   2.509607
    38  H    4.873060   4.857382   2.499137   3.435972   2.378519
    39  H    5.928638   4.968073   4.267173   3.624900   2.533961
    40  H    5.467810   4.049383   3.531616   2.302948   3.039103
    41  H    4.780860   4.015863   4.495553   4.017093   2.559304
    42  H    6.267849   4.548206   5.296451   3.847650   4.611682
    43  H    6.194136   4.769744   5.991547   4.852288   4.823145
    44  H    6.836739   5.493960   5.935978   4.822093   4.414259
    45  H    3.645430   2.481328   4.371116   3.736826   3.816761
    46  H    4.021774   2.159139   3.674370   2.465893   3.801354
                   36         37         38         39         40
    36  H    0.000000
    37  H    1.781779   0.000000
    38  H    1.774883   1.770029   0.000000
    39  H    3.180498   2.488817   3.710356   0.000000
    40  H    2.734249   3.124165   3.835333   1.758431   0.000000
    41  H    4.821393   4.290684   4.809071   2.431580   3.065219
    42  H    5.126759   5.333606   6.076876   3.144959   2.400679
    43  H    6.242805   6.117712   6.791957   3.776224   3.661657
    44  H    5.432461   5.042978   6.110906   2.557044   2.922899
    45  H    5.742353   5.897148   5.837332   4.336212   3.930644
    46  H    4.744257   5.313419   5.306697   3.851931   2.791879
                   41         42         43         44         45
    41  H    0.000000
    42  H    3.076939   0.000000
    43  H    2.529403   1.771139   0.000000
    44  H    2.479391   1.762796   1.772213   0.000000
    45  H    2.462023   3.325590   2.695204   3.858113   0.000000
    46  H    2.996136   2.443083   2.850277   3.624281   1.732348
                   46
    46  H    0.000000
 Stoichiometry    C14H29NO2
 Framework group  C1[X(C14H29NO2)]
 Deg. of freedom   132
 Full point group                 C1      NOp   1
 Largest Abelian subgroup         C1      NOp   1
 Largest concise Abelian subgroup C1      NOp   1
                         Standard orientation:                         
 ---------------------------------------------------------------------
 Center     Atomic      Atomic             Coordinates (Angstroms)
 Number     Number       Type             X           Y           Z
 ---------------------------------------------------------------------
      1          6           0        5.592464    0.207322   -1.122875
      2          6           0        4.506129    0.635386   -0.154951
      3          6           0        3.218642   -0.141004   -0.443994
      4          8           0        3.530438   -1.529680   -0.310115
      5          6           0        2.071832    0.264188    0.498010
      6          7           0        1.796833    1.722844    0.427512
      7          6           0        0.765850   -0.603232    0.235338
      8          8           0        0.987791   -2.003500    0.396363
      9          6           0       -0.225889   -0.212504    1.302643
     10          6           0       -1.749804   -0.462204    1.297904
     11          6           0       -2.316331    0.958176    1.197363
     12          6           0       -2.375870    1.350873   -0.288221
     13          6           0       -2.484461    2.854812   -0.424829
     14          6           0       -3.555675    0.610067   -0.892324
     15          6           0       -3.277313   -0.900469   -0.873576
     16          6           0       -4.593178   -1.613752   -1.239577
     17          6           0       -2.717993   -1.379354    0.492280
     18          1           0        6.513776    0.757828   -0.925978
     19          1           0        5.273427    0.405436   -2.151025
     20          1           0        5.803482   -0.862263   -1.029263
     21          1           0        4.358141    1.715578   -0.255588
     22          1           0        4.838024    0.440392    0.872659
     23          1           0        2.902298    0.032906   -1.476973
     24          1           0        3.609456   -1.735327    0.626849
     25          1           0        2.397623    0.054291    1.527484
     26          1           0        1.535697    1.989559   -0.520434
     27          1           0        2.618616    2.273640    0.673908
     28          1           0        0.401879   -0.411087   -0.775639
     29          1           0        1.247703   -2.161865    1.308861
     30          1           0       -0.083518    0.864643    1.416447
     31          1           0        0.155811   -0.574503    2.268635
     32          1           0       -1.879645   -0.869842    2.309680
     33          1           0       -1.717946    1.687533    1.756134
     34          1           0       -3.297097    0.986933    1.678683
     35          1           0       -1.470902    1.043995   -0.833364
     36          1           0       -3.271548    3.244598    0.224372
     37          1           0       -2.693036    3.145049   -1.457932
     38          1           0       -1.534059    3.315575   -0.131020
     39          1           0       -3.759581    0.943558   -1.916331
     40          1           0       -4.456715    0.838190   -0.305437
     41          1           0       -2.533844   -1.138667   -1.643409
     42          1           0       -5.395306   -1.359552   -0.533995
     43          1           0       -4.482195   -2.701250   -1.243225
     44          1           0       -4.935919   -1.304366   -2.234985
     45          1           0       -2.403573   -2.427276    0.450408
     46          1           0       -3.615112   -1.398014    1.138754
 ---------------------------------------------------------------------
 Rotational constants (GHZ):           0.8169559           0.2047171           0.1854134
 Standard basis: 6-31G(2df,p) (6D, 7F)
 There are   672 symmetry adapted cartesian basis functions of A   symmetry.
 There are   621 symmetry adapted basis functions of A   symmetry.
   621 basis functions,   951 primitive gaussians,   672 cartesian basis functions
    68 alpha electrons       68 beta electrons
       nuclear repulsion energy      1351.8786090238 Hartrees.
 NAtoms=   46 NActive=   46 NUniq=   46 SFac= 1.00D+00 NAtFMM=   60 NAOKFM=F Big=F
 Integral buffers will be    131072 words long.
 Raffenetti 2 integral format.
 Two-electron integral symmetry is turned on.
 One-electron integrals computed using PRISM.
 PrsmSu:  requested number of processors reduced to:  12 ShMem   1 Linda.
 NBasis=   621 RedAO= T EigKep=  4.10D-04  NBF=   621
 NBsUse=   621 1.00D-06 EigRej= -1.00D+00 NBFU=   621
 ExpMin= 1.61D-01 ExpMax= 5.48D+03 ExpMxC= 8.25D+02 IAcc=3 IRadAn=         5 AccDes= 0.00D+00
 Harris functional with IExCor=  402 and IRadAn=       5 diagonalized for initial guess.
 HarFok:  IExCor=  402 AccDes= 0.00D+00 IRadAn=         5 IDoV= 1 UseB2=F ITyADJ=14
 ICtDFT=  3500011 ScaDFX=  1.000000  1.000000  1.000000  1.000000
 FoFCou: FMM=F IPFlag=           0 FMFlag=      100000 FMFlg1=           0
         NFxFlg=           0 DoJE=T BraDBF=F KetDBF=T FulRan=T
         wScrn=  0.000000 ICntrl=       500 IOpCl=  0 I1Cent=   200000004 NGrid=           0
         NMat0=    1 NMatS0=      1 NMatT0=    0 NMatD0=    1 NMtDS0=    0 NMtDT0=    0
 Petite list used in FoFCou.
 Requested convergence on RMS density matrix=1.00D-08 within 128 cycles.
 Requested convergence on MAX density matrix=1.00D-06.
 Requested convergence on             energy=1.00D-06.
 No special actions if energy rises.
 Integral accuracy reduced to 1.0D-05 until final iterations.
 Initial convergence to 1.0D-05 achieved.  Increase integral accuracy.
 SCF Done:  E(RB3LYP) =  -756.159302641     A.U. after   12 cycles
            NFock= 12  Conv=0.43D-08     -V/T= 2.0078

 **********************************************************************

            Population analysis using the SCF density.

 **********************************************************************

 Orbital symmetries:
       Occupied  (A) (A) (A) (A) (A) (A) (A) (A) (A) (A) (A) (A)
                 (A) (A) (A) (A) (A) (A) (A) (A) (A) (A) (A) (A)
                 (A) (A) (A) (A) (A) (A) (A) (A) (A) (A) (A) (A)
                 (A) (A) (A) (A) (A) (A) (A) (A) (A) (A) (A) (A)
                 (A) (A) (A) (A) (A) (A) (A) (A) (A) (A) (A) (A)
                 (A) (A) (A) (A) (A) (A) (A) (A)
       Virtual   (A) (A) (A) (A) (A) (A) (A) (A) (A) (A) (A) (A)
                 (A) (A) (A) (A) (A) (A) (A) (A) (A) (A) (A) (A)
                 (A) (A) (A) (A) (A) (A) (A) (A) (A) (A) (A) (A)
                 (A) (A) (A) (A) (A) (A) (A) (A) (A) (A) (A) (A)
                 (A) (A) (A) (A) (A) (A) (A) (A) (A) (A) (A) (A)
                 (A) (A) (A) (A) (A) (A) (A) (A) (A) (A) (A) (A)
                 (A) (A) (A) (A) (A) (A) (A) (A) (A) (A) (A) (A)
                 (A) (A) (A) (A) (A) (A) (A) (A) (A) (A) (A) (A)
                 (A) (A) (A) (A) (A) (A) (A) (A) (A) (A) (A) (A)
                 (A) (A) (A) (A) (A) (A) (A) (A) (A) (A) (A) (A)
                 (A) (A) (A) (A) (A) (A) (A) (A) (A) (A) (A) (A)
                 (A) (A) (A) (A) (A) (A) (A) (A) (A) (A) (A) (A)
                 (A) (A) (A) (A) (A) (A) (A) (A) (A) (A) (A) (A)
                 (A) (A) (A) (A) (A) (A) (A) (A) (A) (A) (A) (A)
                 (A) (A) (A) (A) (A) (A) (A) (A) (A) (A) (A) (A)
                 (A) (A) (A) (A) (A) (A) (A) (A) (A) (A) (A) (A)
                 (A) (A) (A) (A) (A) (A) (A) (A) (A) (A) (A) (A)
                 (A) (A) (A) (A) (A) (A) (A) (A) (A) (A) (A) (A)
                 (A) (A) (A) (A) (A) (A) (A) (A) (A) (A) (A) (A)
                 (A) (A) (A) (A) (A) (A) (A) (A) (A) (A) (A) (A)
                 (A) (A) (A) (A) (A) (A) (A) (A) (A) (A) (A) (A)
                 (A) (A) (A) (A) (A) (A) (A) (A) (A) (A) (A) (A)
                 (A) (A) (A) (A) (A) (A) (A) (A) (A) (A) (A) (A)
                 (A) (A) (A) (A) (A) (A) (A) (A) (A) (A) (A) (A)
                 (A) (A) (A) (A) (A) (A) (A) (A) (A) (A) (A) (A)
                 (A) (A) (A) (A) (A) (A) (A) (A) (A) (A) (A) (A)
                 (A) (A) (A) (A) (A) (A) (A) (A) (A) (A) (A) (A)
                 (A) (A) (A) (A) (A) (A) (A) (A) (A) (A) (A) (A)
                 (A) (A) (A) (A) (A) (A) (A) (A) (A) (A) (A) (A)
                 (A) (A) (A) (A) (A) (A) (A) (A) (A) (A) (A) (A)
                 (A) (A) (A) (A) (A) (A) (A) (A) (A) (A) (A) (A)
                 (A) (A) (A) (A) (A) (A) (A) (A) (A) (A) (A) (A)
                 (A) (A) (A) (A) (A) (A) (A) (A) (A) (A) (A) (A)
                 (A) (A) (A) (A) (A) (A) (A) (A) (A) (A) (A) (A)
                 (A) (A) (A) (A) (A) (A) (A) (A) (A) (A) (A) (A)
                 (A) (A) (A) (A) (A) (A) (A) (A) (A) (A) (A) (A)
                 (A) (A) (A) (A) (A) (A) (A) (A) (A) (A) (A) (A)
                 (A) (A) (A) (A) (A) (A) (A) (A) (A) (A) (A) (A)
                 (A) (A) (A) (A) (A) (A) (A) (A) (A) (A) (A) (A)
                 (A) (A) (A) (A) (A) (A) (A) (A) (A) (A) (A) (A)
                 (A) (A) (A) (A) (A) (A) (A) (A) (A) (A) (A) (A)
                 (A) (A) (A) (A) (A) (A) (A) (A) (A) (A) (A) (A)
                 (A) (A) (A) (A) (A) (A) (A) (A) (A) (A) (A) (A)
                 (A) (A) (A) (A) (A) (A) (A) (A) (A) (A) (A) (A)
                 (A) (A) (A) (A) (A) (A) (A) (A) (A) (A) (A) (A)
                 (A) (A) (A) (A) (A) (A) (A) (A) (A) (A) (A) (A)
                 (A)
 The electronic state is 1-A.
 Alpha  occ. eigenvalues --  -19.12452 -19.12315 -14.31923 -10.22770 -10.22495
 Alpha  occ. eigenvalues --  -10.21444 -10.17808 -10.17640 -10.17596 -10.17280
 Alpha  occ. eigenvalues --  -10.17246 -10.16548 -10.16467 -10.16431 -10.16219
 Alpha  occ. eigenvalues --  -10.16094 -10.16075  -1.01606  -1.00204  -0.88636
 Alpha  occ. eigenvalues --   -0.83606  -0.77559  -0.77486  -0.76367  -0.73069
 Alpha  occ. eigenvalues --   -0.69131  -0.66985  -0.66265  -0.63613  -0.60296
 Alpha  occ. eigenvalues --   -0.59300  -0.57391  -0.56144  -0.53635  -0.50376
 Alpha  occ. eigenvalues --   -0.48334  -0.46744  -0.46289  -0.46104  -0.45480
 Alpha  occ. eigenvalues --   -0.44809  -0.44206  -0.42726  -0.42401  -0.41598
 Alpha  occ. eigenvalues --   -0.40526  -0.39776  -0.38388  -0.38132  -0.37558
 Alpha  occ. eigenvalues --   -0.36796  -0.36608  -0.35732  -0.35066  -0.34553
 Alpha  occ. eigenvalues --   -0.34093  -0.33802  -0.33078  -0.32159  -0.31787
 Alpha  occ. eigenvalues --   -0.31678  -0.30303  -0.29697  -0.28521  -0.27610
 Alpha  occ. eigenvalues --   -0.26940  -0.25551  -0.21799
 Alpha virt. eigenvalues --    0.04979   0.06426   0.08204   0.09183   0.10185
 Alpha virt. eigenvalues --    0.10812   0.11192   0.11786   0.12612   0.13255
 Alpha virt. eigenvalues --    0.13590   0.14854   0.15088   0.15929   0.16053
 Alpha virt. eigenvalues --    0.16655   0.16969   0.17422   0.17638   0.17967
 Alpha virt. eigenvalues --    0.18299   0.18577   0.18915   0.19426   0.19540
 Alpha virt. eigenvalues --    0.20290   0.20818   0.21364   0.21662   0.22295
 Alpha virt. eigenvalues --    0.23611   0.23689   0.24632   0.25178   0.25335
 Alpha virt. eigenvalues --    0.26067   0.26435   0.27432   0.27748   0.28348
 Alpha virt. eigenvalues --    0.28766   0.29366   0.30886   0.31694   0.33769
 Alpha virt. eigenvalues --    0.37572   0.43077   0.44525   0.46154   0.47111
 Alpha virt. eigenvalues --    0.47540   0.48105   0.49634   0.49993   0.51158
 Alpha virt. eigenvalues --    0.51388   0.52166   0.52403   0.53022   0.53855
 Alpha virt. eigenvalues --    0.54825   0.55618   0.56503   0.56955   0.57744
 Alpha virt. eigenvalues --    0.58276   0.58932   0.59639   0.60046   0.60455
 Alpha virt. eigenvalues --    0.61401   0.61578   0.63245   0.64132   0.64525
 Alpha virt. eigenvalues --    0.65512   0.66057   0.66438   0.67612   0.69174
 Alpha virt. eigenvalues --    0.69737   0.70706   0.71428   0.71715   0.72517
 Alpha virt. eigenvalues --    0.72810   0.73338   0.73430   0.73712   0.74027
 Alpha virt. eigenvalues --    0.74383   0.74601   0.75239   0.76139   0.76380
 Alpha virt. eigenvalues --    0.76440   0.76607   0.78082   0.78269   0.78433
 Alpha virt. eigenvalues --    0.78973   0.79631   0.80255   0.80840   0.81210
 Alpha virt. eigenvalues --    0.82036   0.82727   0.83392   0.83930   0.84639
 Alpha virt. eigenvalues --    0.84921   0.84953   0.86124   0.86710   0.87180
 Alpha virt. eigenvalues --    0.87614   0.88411   0.88620   0.88883   0.90270
 Alpha virt. eigenvalues --    0.91172   0.91332   0.92395   0.92944   0.94092
 Alpha virt. eigenvalues --    0.94898   0.96978   0.97805   1.00522   1.01000
 Alpha virt. eigenvalues --    1.02961   1.03974   1.06664   1.07459   1.07850
 Alpha virt. eigenvalues --    1.08611   1.09711   1.12600   1.12954   1.13886
 Alpha virt. eigenvalues --    1.15237   1.15947   1.17380   1.18292   1.20840
 Alpha virt. eigenvalues --    1.22683   1.22970   1.25084   1.26448   1.26552
 Alpha virt. eigenvalues --    1.27764   1.29909   1.30364   1.30860   1.32190
 Alpha virt. eigenvalues --    1.32682   1.34080   1.34717   1.35937   1.37213
 Alpha virt. eigenvalues --    1.37938   1.38314   1.39975   1.40433   1.42482
 Alpha virt. eigenvalues --    1.43503   1.45626   1.45884   1.46712   1.48684
 Alpha virt. eigenvalues --    1.48899   1.50075   1.51162   1.51866   1.53155
 Alpha virt. eigenvalues --    1.53620   1.53939   1.55663   1.56054   1.56910
 Alpha virt. eigenvalues --    1.57802   1.59263   1.59533   1.60209   1.61567
 Alpha virt. eigenvalues --    1.62359   1.63321   1.64226   1.65431   1.66038
 Alpha virt. eigenvalues --    1.67707   1.69085   1.70283   1.72612   1.73038
 Alpha virt. eigenvalues --    1.74365   1.75332   1.77000   1.77734   1.78824
 Alpha virt. eigenvalues --    1.80422   1.81561   1.82002   1.83162   1.83980
 Alpha virt. eigenvalues --    1.84931   1.85799   1.86946   1.88094   1.88738
 Alpha virt. eigenvalues --    1.89644   1.89812   1.90836   1.91692   1.93736
 Alpha virt. eigenvalues --    1.95079   1.95789   1.95940   1.96832   1.97944
 Alpha virt. eigenvalues --    1.99090   2.00283   2.01296   2.03018   2.04626
 Alpha virt. eigenvalues --    2.05137   2.06136   2.10911   2.15198   2.18618
 Alpha virt. eigenvalues --    2.19537   2.21256   2.21514   2.23482   2.24378
 Alpha virt. eigenvalues --    2.25717   2.25991   2.27113   2.28672   2.28881
 Alpha virt. eigenvalues --    2.29908   2.31814   2.34425   2.35060   2.36744
 Alpha virt. eigenvalues --    2.37133   2.38005   2.39286   2.41541   2.42616
 Alpha virt. eigenvalues --    2.43247   2.45431   2.46134   2.48180   2.49616
 Alpha virt. eigenvalues --    2.50484   2.53110   2.54437   2.55246   2.55406
 Alpha virt. eigenvalues --    2.56947   2.58708   2.60450   2.61596   2.62372
 Alpha virt. eigenvalues --    2.64512   2.66835   2.69396   2.69941   2.71027
 Alpha virt. eigenvalues --    2.72021   2.73417   2.73588   2.75589   2.75801
 Alpha virt. eigenvalues --    2.77259   2.77488   2.79075   2.79171   2.79982
 Alpha virt. eigenvalues --    2.80709   2.81185   2.81487   2.82661   2.83373
 Alpha virt. eigenvalues --    2.84636   2.84986   2.85641   2.86071   2.86523
 Alpha virt. eigenvalues --    2.87415   2.87816   2.88754   2.89498   2.90508
 Alpha virt. eigenvalues --    2.91706   2.92111   2.92537   2.92884   2.93416
 Alpha virt. eigenvalues --    2.94175   2.95713   2.96207   2.97348   2.98232
 Alpha virt. eigenvalues --    2.99223   3.00431   3.00538   3.01813   3.02766
 Alpha virt. eigenvalues --    3.03239   3.03647   3.04795   3.05612   3.06516
 Alpha virt. eigenvalues --    3.09319   3.10038   3.11028   3.12593   3.13548
 Alpha virt. eigenvalues --    3.13780   3.16236   3.17245   3.17938   3.19162
 Alpha virt. eigenvalues --    3.19926   3.23476   3.23724   3.24762   3.26054
 Alpha virt. eigenvalues --    3.27958   3.29902   3.30346   3.31257   3.34523
 Alpha virt. eigenvalues --    3.34861   3.36614   3.37389   3.38223   3.38921
 Alpha virt. eigenvalues --    3.40070   3.41350   3.42758   3.44847   3.44965
 Alpha virt. eigenvalues --    3.45863   3.47277   3.49424   3.50894   3.52480
 Alpha virt. eigenvalues --    3.53857   3.55160   3.56256   3.56886   3.57351
 Alpha virt. eigenvalues --    3.57971   3.59207   3.60150   3.60663   3.62298
 Alpha virt. eigenvalues --    3.63825   3.64585   3.65028   3.65347   3.66947
 Alpha virt. eigenvalues --    3.67672   3.69497   3.69903   3.70716   3.72087
 Alpha virt. eigenvalues --    3.73096   3.74803   3.75632   3.75878   3.76639
 Alpha virt. eigenvalues --    3.79082   3.80542   3.81243   3.83128   3.83374
 Alpha virt. eigenvalues --    3.85440   3.86386   3.88615   3.90614   3.92308
 Alpha virt. eigenvalues --    3.92797   3.93707   3.96040   4.00833   4.02557
 Alpha virt. eigenvalues --    4.03810   4.05009   4.07686   4.10352   4.11657
 Alpha virt. eigenvalues --    4.13084   4.15383   4.18489   4.20710   4.21362
 Alpha virt. eigenvalues --    4.22467   4.24831   4.26583   4.29100   4.29240
 Alpha virt. eigenvalues --    4.30153   4.32074   4.33922   4.35383   4.36911
 Alpha virt. eigenvalues --    4.37255   4.38602   4.41069   4.41516   4.42657
 Alpha virt. eigenvalues --    4.44317   4.44983   4.46216   4.47004   4.47940
 Alpha virt. eigenvalues --    4.48582   4.48902   4.49990   4.50389   4.51314
 Alpha virt. eigenvalues --    4.53492   4.54850   4.55318   4.56026   4.56460
 Alpha virt. eigenvalues --    4.57866   4.59196   4.59776   4.60704   4.61137
 Alpha virt. eigenvalues --    4.62636   4.62861   4.63143   4.64690   4.64870
 Alpha virt. eigenvalues --    4.65928   4.67271   4.68410   4.68488   4.68972
 Alpha virt. eigenvalues --    4.70566   4.71082   4.71633   4.72284   4.72792
 Alpha virt. eigenvalues --    4.74397   4.74970   4.76174   4.76447   4.76497
 Alpha virt. eigenvalues --    4.76684   4.77399   4.77798   4.78052   4.78993
 Alpha virt. eigenvalues --    4.79900   4.80133   4.82606   4.83088   4.83218
 Alpha virt. eigenvalues --    4.83778   4.84920   4.85968   4.86540   4.87631
 Alpha virt. eigenvalues --    4.87723   4.89343   4.90371   4.91503   4.92989
 Alpha virt. eigenvalues --    4.93243   4.93667   4.95212   4.96314   4.97450
 Alpha virt. eigenvalues --    4.99920   5.01790   5.02944   5.03961   5.04411
 Alpha virt. eigenvalues --    5.04678   5.08481   5.10285   5.12319   5.14337
 Alpha virt. eigenvalues --    5.15646   5.17299   5.20005   5.22929   5.24344
 Alpha virt. eigenvalues --    5.27039   5.29024   5.29910   5.32325   5.35150
 Alpha virt. eigenvalues --    5.35973   5.37722   5.38576   5.39611   5.39749
 Alpha virt. eigenvalues --    5.43664   5.46720   5.47423   5.48523   5.49526
 Alpha virt. eigenvalues --    5.52409   5.53560   5.55844   5.58362   5.59986
 Alpha virt. eigenvalues --    5.62002   5.66859   5.66985   5.71432   5.73994
 Alpha virt. eigenvalues --    5.76216   5.79010   5.91340   5.96415   5.98684
 Alpha virt. eigenvalues --    6.02040   6.09466   6.11562   6.20134   6.38204
 Alpha virt. eigenvalues --    6.42861   6.70646   7.09681   7.12210   7.22788
 Alpha virt. eigenvalues --   10.80435  11.14561  11.33017  11.52935  11.61037
 Alpha virt. eigenvalues --   11.71678  11.96728  12.05783  12.11354  12.30840
 Alpha virt. eigenvalues --   12.46413  12.66188  12.79088  12.92123  13.01741
 Alpha virt. eigenvalues --   13.29392  13.57828  14.25941
          Condensed to atoms (all electrons):
               1          2          3          4          5          6
     1  C    4.954436   0.405466  -0.028473  -0.010776   0.002356   0.000651
     2  C    0.405466   4.943774   0.378661  -0.040979  -0.035891  -0.003422
     3  C   -0.028473   0.378661   4.698835   0.321344   0.424675  -0.054661
     4  O   -0.010776  -0.040979   0.321344   7.862260  -0.024308   0.003227
     5  C    0.002356  -0.035891   0.424675  -0.024308   4.969432   0.315864
     6  N    0.000651  -0.003422  -0.054661   0.003227   0.315864   6.589082
     7  C   -0.000104   0.002875  -0.028387   0.000830   0.349423  -0.015226
     8  O    0.000003  -0.000014   0.000188  -0.008307  -0.033273   0.001333
     9  C    0.000001  -0.000074   0.001138   0.000120  -0.028679  -0.023118
    10  C   -0.000000   0.000001  -0.000095   0.000001   0.002404   0.000698
    11  C   -0.000000   0.000000  -0.000002   0.000000   0.000344  -0.000643
    12  C   -0.000000  -0.000000   0.000004  -0.000000  -0.000060   0.000393
    13  C    0.000000   0.000000  -0.000000   0.000000   0.000009  -0.000378
    14  C   -0.000000  -0.000000   0.000000  -0.000000  -0.000004   0.000010
    15  C    0.000000  -0.000000   0.000000  -0.000000  -0.000008  -0.000000
    16  C   -0.000000   0.000000  -0.000000   0.000000   0.000000   0.000000
    17  C    0.000000   0.000000  -0.000000   0.000000   0.000149  -0.000008
    18  H    0.370423  -0.025025   0.002563   0.000421  -0.000114   0.000002
    19  H    0.377496  -0.033369  -0.003889   0.000156   0.000370  -0.000007
    20  H    0.374005  -0.028066  -0.004671   0.015806   0.000368  -0.000031
    21  H   -0.031355   0.335393  -0.023790   0.003906  -0.005016   0.004526
    22  H   -0.037612   0.350175  -0.023117  -0.002456  -0.004611   0.000091
    23  H   -0.003552  -0.059768   0.339082  -0.015444  -0.036705   0.000360
    24  H    0.000106  -0.001931  -0.075683   0.307468  -0.002372   0.000275
    25  H    0.000032  -0.008398  -0.044644  -0.001942   0.312252  -0.016898
    26  H   -0.000014  -0.000350  -0.003982   0.000069  -0.059753   0.343951
    27  H   -0.000286   0.002688  -0.004411   0.000076  -0.043090   0.348420
    28  H    0.000003   0.000005  -0.002364  -0.000354  -0.042537  -0.002273
    29  H    0.000001   0.000054  -0.001003   0.002931  -0.002037   0.000133
    30  H   -0.000000  -0.000018   0.001011  -0.000016  -0.006528   0.023581
    31  H   -0.000000  -0.000003   0.000383  -0.000042  -0.007133   0.000425
    32  H    0.000000  -0.000000   0.000002  -0.000000  -0.000224   0.000000
    33  H   -0.000000  -0.000000  -0.000001  -0.000000   0.000052   0.000097
    34  H   -0.000000   0.000000  -0.000000   0.000000   0.000003  -0.000003
    35  H   -0.000000   0.000000  -0.000004  -0.000000  -0.000143   0.000454
    36  H   -0.000000   0.000000   0.000000  -0.000000   0.000000   0.000001
    37  H   -0.000000   0.000000   0.000000   0.000000  -0.000000  -0.000001
    38  H   -0.000000  -0.000000   0.000000  -0.000000   0.000014   0.001199
    39  H    0.000000  -0.000000   0.000000  -0.000000  -0.000000   0.000000
    40  H   -0.000000   0.000000  -0.000000   0.000000   0.000000  -0.000000
    41  H   -0.000000   0.000000  -0.000000   0.000000   0.000008  -0.000000
    42  H   -0.000000   0.000000   0.000000  -0.000000   0.000000  -0.000000
    43  H   -0.000000  -0.000000   0.000000  -0.000000  -0.000000   0.000000
    44  H   -0.000000  -0.000000   0.000000   0.000000  -0.000000   0.000000
    45  H   -0.000000  -0.000000   0.000000   0.000000   0.000007  -0.000000
    46  H   -0.000000   0.000000  -0.000000   0.000000   0.000001   0.000000
               7          8          9         10         11         12
     1  C   -0.000104   0.000003   0.000001  -0.000000  -0.000000  -0.000000
     2  C    0.002875  -0.000014  -0.000074   0.000001   0.000000  -0.000000
     3  C   -0.028387   0.000188   0.001138  -0.000095  -0.000002   0.000004
     4  O    0.000830  -0.008307   0.000120   0.000001   0.000000  -0.000000
     5  C    0.349423  -0.033273  -0.028679   0.002404   0.000344  -0.000060
     6  N   -0.015226   0.001333  -0.023118   0.000698  -0.000643   0.000393
     7  C    4.672097   0.350244   0.420658  -0.025768   0.000800  -0.000539
     8  O    0.350244   7.856539  -0.040298   0.001508   0.000177   0.000005
     9  C    0.420658  -0.040298   4.972527   0.400242  -0.030646  -0.006616
    10  C   -0.025768   0.001508   0.400242   4.721036   0.383392  -0.011787
    11  C    0.000800   0.000177  -0.030646   0.383392   4.929320   0.418748
    12  C   -0.000539   0.000005  -0.006616  -0.011787   0.418748   4.579668
    13  C   -0.000033  -0.000000   0.000349   0.001713  -0.040473   0.385561
    14  C    0.000173  -0.000002  -0.000150  -0.008877  -0.016800   0.426412
    15  C    0.000388  -0.000076  -0.000804  -0.020869  -0.017490  -0.015078
    16  C   -0.000005   0.000000  -0.000039   0.002545   0.000777   0.002537
    17  C   -0.004187   0.000888  -0.025880   0.402765  -0.027513  -0.017048
    18  H    0.000001   0.000000  -0.000000   0.000000   0.000000  -0.000000
    19  H    0.000005   0.000000   0.000000   0.000000  -0.000000   0.000000
    20  H   -0.000003   0.000002   0.000000  -0.000000  -0.000000   0.000000
    21  H    0.000005   0.000001   0.000008   0.000000   0.000000  -0.000000
    22  H    0.000184  -0.000018   0.000003  -0.000000   0.000000  -0.000000
    23  H   -0.004830  -0.000290   0.000143   0.000002   0.000000  -0.000001
    24  H   -0.001867   0.007485   0.000128   0.000000  -0.000000   0.000000
    25  H   -0.031116  -0.002193  -0.005980   0.000061  -0.000006  -0.000008
    26  H   -0.003995  -0.000008   0.001318  -0.000062   0.000017  -0.000047
    27  H    0.002959  -0.000043   0.000563   0.000003   0.000006  -0.000003
    28  H    0.350806  -0.016860  -0.050261  -0.003625  -0.000080  -0.000468
    29  H   -0.072753   0.309962  -0.002955   0.000147   0.000019  -0.000005
    30  H   -0.032793   0.004292   0.343003  -0.040773  -0.020844   0.000837
    31  H   -0.027511  -0.009417   0.324634  -0.021654   0.004263   0.000174
    32  H    0.003767  -0.000119  -0.031467   0.338792  -0.032726   0.003993
    33  H    0.000281  -0.000010  -0.016837  -0.027176   0.366941  -0.038485
    34  H   -0.000123   0.000002   0.005091  -0.037237   0.346143  -0.031129
    35  H   -0.001356   0.000031   0.001497  -0.004061  -0.047116   0.360165
    36  H   -0.000001   0.000000   0.000008   0.000225  -0.008565  -0.022888
    37  H    0.000001   0.000000   0.000001  -0.000169   0.004816  -0.020968
    38  H   -0.000011  -0.000000  -0.000184   0.000222  -0.003111  -0.016946
    39  H   -0.000001   0.000000   0.000030   0.000171   0.005056  -0.030477
    40  H   -0.000004   0.000000   0.000025  -0.000185  -0.012741  -0.030690
    41  H   -0.000115   0.000023   0.000586   0.001227  -0.000189  -0.001512
    42  H    0.000000  -0.000000   0.000001   0.000112   0.000002   0.000301
    43  H   -0.000000  -0.000000   0.000000   0.000075  -0.000004  -0.000178
    44  H    0.000000   0.000000   0.000001  -0.000112  -0.000016   0.000143
    45  H    0.000499   0.001391  -0.003520  -0.026788   0.004341   0.000318
    46  H   -0.000046   0.000017   0.004454  -0.022031  -0.003432  -0.001322
              13         14         15         16         17         18
     1  C    0.000000  -0.000000   0.000000  -0.000000   0.000000   0.370423
     2  C    0.000000  -0.000000  -0.000000   0.000000   0.000000  -0.025025
     3  C   -0.000000   0.000000   0.000000  -0.000000  -0.000000   0.002563
     4  O    0.000000  -0.000000  -0.000000   0.000000   0.000000   0.000421
     5  C    0.000009  -0.000004  -0.000008   0.000000   0.000149  -0.000114
     6  N   -0.000378   0.000010  -0.000000   0.000000  -0.000008   0.000002
     7  C   -0.000033   0.000173   0.000388  -0.000005  -0.004187   0.000001
     8  O   -0.000000  -0.000002  -0.000076   0.000000   0.000888   0.000000
     9  C    0.000349  -0.000150  -0.000804  -0.000039  -0.025880  -0.000000
    10  C    0.001713  -0.008877  -0.020869   0.002545   0.402765   0.000000
    11  C   -0.040473  -0.016800  -0.017490   0.000777  -0.027513   0.000000
    12  C    0.385561   0.426412  -0.015078   0.002537  -0.017048  -0.000000
    13  C    5.078506  -0.038667   0.001570  -0.000205   0.001489   0.000000
    14  C   -0.038667   4.861785   0.421539  -0.038823  -0.029521  -0.000000
    15  C    0.001570   0.421539   4.622052   0.391650   0.428710  -0.000000
    16  C   -0.000205  -0.038823   0.391650   5.030169  -0.035137  -0.000000
    17  C    0.001489  -0.029521   0.428710  -0.035137   4.927988  -0.000000
    18  H    0.000000  -0.000000  -0.000000  -0.000000  -0.000000   0.619244
    19  H    0.000000  -0.000000   0.000000  -0.000000  -0.000000  -0.031501
    20  H   -0.000000   0.000000   0.000000  -0.000000  -0.000000  -0.031779
    21  H    0.000000  -0.000000   0.000000   0.000000   0.000000  -0.002733
    22  H    0.000000  -0.000000  -0.000000  -0.000000  -0.000000  -0.002141
    23  H    0.000000  -0.000000  -0.000000  -0.000000  -0.000000  -0.000050
    24  H   -0.000000   0.000000   0.000000  -0.000000  -0.000000  -0.000035
    25  H    0.000000  -0.000000  -0.000000   0.000000   0.000002   0.000002
    26  H    0.000111  -0.000003  -0.000000   0.000000   0.000001   0.000001
    27  H    0.000005  -0.000000  -0.000000  -0.000000   0.000000   0.000006
    28  H   -0.000050  -0.000197   0.000122   0.000002   0.000558   0.000000
    29  H    0.000000  -0.000000  -0.000000   0.000000   0.000035  -0.000000
    30  H   -0.000805   0.000197   0.000089   0.000001   0.002782  -0.000000
    31  H   -0.000000  -0.000042  -0.000045   0.000001   0.002838   0.000000
    32  H   -0.000248   0.000718   0.004696  -0.000143  -0.047315  -0.000000
    33  H   -0.007479   0.003008   0.000894   0.000009   0.003455  -0.000000
    34  H   -0.001580  -0.011354  -0.001159  -0.000138   0.001444   0.000000
    35  H   -0.045690  -0.047782  -0.002629   0.000115  -0.001907  -0.000000
    36  H    0.370528  -0.004293   0.000140   0.000006  -0.000031   0.000000
    37  H    0.362147  -0.005670   0.000195  -0.000000  -0.000018   0.000000
    38  H    0.360664   0.004208  -0.000160   0.000002  -0.000014  -0.000000
    39  H   -0.006381   0.352276  -0.026952  -0.001952   0.004661   0.000000
    40  H   -0.001347   0.353178  -0.027737  -0.008681  -0.005700   0.000000
    41  H    0.000019  -0.045835   0.365010  -0.042419  -0.050529   0.000000
    42  H   -0.000001  -0.008611  -0.023303   0.371298  -0.006789   0.000000
    43  H    0.000002   0.004066  -0.021765   0.365532  -0.001736  -0.000000
    44  H    0.000000  -0.002012  -0.020538   0.368967   0.003613   0.000000
    45  H    0.000007   0.004832  -0.030481  -0.001458   0.359061  -0.000000
    46  H   -0.000024  -0.005824  -0.039592  -0.011143   0.345237   0.000000
              19         20         21         22         23         24
     1  C    0.377496   0.374005  -0.031355  -0.037612  -0.003552   0.000106
     2  C   -0.033369  -0.028066   0.335393   0.350175  -0.059768  -0.001931
     3  C   -0.003889  -0.004671  -0.023790  -0.023117   0.339082  -0.075683
     4  O    0.000156   0.015806   0.003906  -0.002456  -0.015444   0.307468
     5  C    0.000370   0.000368  -0.005016  -0.004611  -0.036705  -0.002372
     6  N   -0.000007  -0.000031   0.004526   0.000091   0.000360   0.000275
     7  C    0.000005  -0.000003   0.000005   0.000184  -0.004830  -0.001867
[...]
 0002321,0.00000004,-0.00000609,0.00000019,0.00001926,-0.00000291,0.000
 02846,-0.00002688,0.00001105,-0.00000231,0.00000543,-0.00000927,0.0000
 4524,0.00002108,0.00002225,-0.00001975,0.00002137,-0.00001902,-0.00005
 677,0.00002122,0.00001846,0.00000536,0.00002127,0.00000820,0.00001182,
 -0.00003486,0.00003572,0.00004728,-0.00003681,0.00012270,0.00001762,0.
 00000937,0.00002132,-0.00001217,-0.00014057,-0.00000459,-0.00000110,0.
 00003141,-0.00000181,0.00002883,0.00001690,0.00000542,-0.00016809,-0.0
 0005468,-0.00003565,0.00011540,0.00011174,-0.00007986,0.00050833,0.000
 05820,0.00004791,0.00081797,-0.00029818,-0.00003154,-0.01671879,-0.001
 96287,-0.00700314,0.29477176,0.00000246,0.00000052,0.00000090,-0.00000
 028,-0.00000524,0.00000278,-0.00000204,-0.00003065,0.00001605,0.000006
 67,0.00002030,-0.00003738,-0.00000384,-0.00000148,0.00004929,-0.000016
 38,0.00004480,-0.00003233,-0.00008741,-0.00009186,0.00002232,0.0000528
 6,0.00002115,-0.00003191,0.00004605,-0.00001536,-0.00001190,0.00017685
 ,-0.00008850,-0.00017455,-0.00002561,0.00011035,-0.00032145,-0.0018599
 5,0.00071013,-0.00081647,-0.00008017,-0.00070778,0.00029954,-0.0006031
 9,-0.00603362,0.00252970,-0.02939347,-0.00269379,-0.01142403,-0.021833
 36,-0.04868889,-0.00853368,-0.00019023,0.00116252,-0.00132820,-0.00000
 344,0.00000227,0.00000006,0.00000105,-0.00000009,0.00000091,0.00000028
 ,0.00000039,-0.00000283,0.00000509,-0.00000110,-0.00000522,0.,0.000004
 35,0.00000006,0.00000741,0.00001214,0.00000216,-0.00000384,-0.00000312
 ,0.00000960,0.00000184,0.00001896,-0.00000875,0.00006500,-0.00005402,0
 .00003452,0.00000250,0.00001151,-0.00000991,0.00003943,0.00002041,0.00
 003630,-0.00001276,0.00000848,-0.00000623,-0.00004908,-0.00002041,0.00
 000605,0.00000791,0.00003487,-0.00000909,0.00006877,0.00005416,-0.0000
 0183,0.00004725,-0.00001556,0.00011080,-0.00000465,0.00000282,0.000038
 02,0.00008273,0.00002036,-0.00005359,-0.00000758,0.00002829,0.00001887
 ,0.00004063,0.00001273,-0.00000526,-0.00028994,-0.00006913,-0.00009454
 ,0.00028073,-0.00003801,-0.00002009,-0.00024402,0.00019288,0.00024583,
 0.00060374,0.00124078,-0.00050511,0.02119357,0.00224285,0.00936366,0.0
 2712857,0.05303237,0.00000117,-0.00000363,-0.00000406,-0.00000037,-0.0
 0000355,0.00001305,-0.00000673,-0.00001058,-0.00000043,0.00002421,-0.0
 0000420,-0.00002181,-0.00003242,-0.00000015,0.00005259,0.00001255,0.00
 001261,-0.00005438,-0.00001762,0.00002377,-0.00000135,0.00004511,-0.00
 003502,0.00000287,-0.00002763,0.00000914,0.00002818,-0.00008988,-0.000
 05506,0.00004257,0.00001996,-0.00015671,0.00011588,0.00021062,0.000335
 69,0.00047493,0.00003421,0.00009153,-0.00004049,0.00047208,0.00087478,
 -0.00023548,0.00710593,0.00014534,0.00114046,-0.08648766,-0.00888540,-
 0.08010144,0.00100624,-0.00015240,0.00080986,0.00000279,-0.00000217,0.
 00000069,0.00000035,0.00000175,0.00000221,-0.00000146,0.00000223,-0.00
 000170,0.00000262,0.00000013,-0.00000596,0.00000138,0.00000089,-0.0000
 0049,0.00000092,0.00000451,0.00000098,-0.00002292,0.00001590,-0.000005
 32,0.00000703,0.00000114,-0.00001121,0.00002027,-0.00002096,0.00003822
 ,0.00000871,-0.00000332,0.00000321,-0.00001764,0.00000914,0.00000255,-
 0.00001358,0.00001278,-0.00000808,-0.00001355,0.00000382,-0.00000354,0
 .00000582,-0.00002163,-0.00000535,-0.00000861,-0.00002702,0.00001336,-
 0.00004206,-0.00002774,0.00002849,0.00000902,0.00000138,0.00000009,0.0
 0002321,0.00003033,-0.00001612,0.00000052,-0.00000338,-0.00000136,-0.0
 0000328,0.00000997,0.00000134,0.00003664,-0.00000930,0.00002166,0.0002
 9051,0.00014286,0.00044437,-0.00026354,0.00012329,-0.00005134,-0.00031
 111,-0.00038840,0.00002570,0.01339269,0.00182506,0.00464713,0.09520750
 ,0.00882505,0.08325314,-0.00000091,-0.00000195,-0.00000085,0.00000413,
 0.00000385,0.00000056,-0.00000825,-0.00001262,-0.00000708,0.00000917,-
 0.00000134,0.00000792,0.00001276,0.00000591,-0.00000096,0.00000212,-0.
 00001115,0.00002572,-0.00004935,-0.00003626,-0.00001598,0.00003470,-0.
 00000600,0.00001245,-0.00011492,-0.00004496,0.00005035,0.00053563,-0.0
 0014305,0.00070630,0.00020613,0.00020141,0.00010673,0.00006528,-0.0000
 0820,-0.00020666,-0.00001149,0.00003270,-0.00002014,0.00064169,0.00043
 199,0.00124951,-0.00169500,-0.00083472,0.01190924,-0.04703886,-0.00066
 684,0.00580468,-0.00091064,-0.00224033,-0.00013805,0.00000087,0.000000
 38,0.00000030,0.00000088,0.00000017,-0.00000029,-0.00000014,-0.0000001
 6,0.00000095,-0.00000135,-0.00000052,0.00000138,-0.00000044,0.00000080
 ,0.00000049,0.00000439,0.00000407,0.00000076,-0.00000965,0.00000282,-0
 .00000560,-0.00000106,0.00000370,0.00000234,0.00000083,-0.00000352,-0.
 00001597,0.00000099,0.00000659,-0.00000587,0.00000462,0.00000580,0.000
 00627,-0.00000610,0.00001430,-0.00001006,0.00001076,0.00000761,-0.0000
 1467,0.00003492,-0.00005905,-0.00000690,-0.00012101,-0.00019215,0.0000
 5918,0.00000386,0.00000663,-0.00006411,-0.00000245,-0.00000131,-0.0000
 0267,-0.00000446,0.00003588,0.00001037,-0.00000220,-0.00000604,0.00000
 552,-0.00002166,-0.00001769,-0.00002485,0.00002705,0.00001778,-0.00000
 249,-0.00008282,-0.00024002,-0.00048101,-0.00005593,-0.00000263,0.0000
 4847,0.00027977,0.00030805,-0.00053698,-0.00072999,-0.00323831,0.01907
 541,0.00156663,0.00425602,-0.03039807,0.04699556,0.00000082,-0.0000070
 7,-0.00000699,0.00000541,0.00000199,0.00001979,-0.00001345,-0.00001672
 ,-0.00002094,0.00004318,-0.00001758,-0.00000683,-0.00003094,0.00000946
 ,0.00006676,0.00003036,-0.00000665,-0.00006514,-0.00005970,0.00002481,
 -0.00003763,0.00011160,-0.00008055,0.00003630,-0.00014431,0.00018763,0
 .00006742,0.00001848,0.00051559,0.00209839,0.00033992,0.00010672,0.000
 12800,0.00025049,-0.00008472,-0.00013141,0.00000916,0.00006338,-0.0000
 7844,0.00113491,0.00115960,0.00069126,-0.00060164,-0.00431552,0.031279
 95,-0.00066404,-0.05150053,0.03537918,-0.00265813,-0.00592846,-0.00065
 656,0.00000658,-0.00000342,0.00000147,0.00000063,0.00000228,0.00000139
 ,-0.00000259,0.00000225,-0.00000047,0.00000130,0.00000125,-0.00000455,
 0.00000037,-0.00000072,0.00000023,0.00000333,0.00000418,0.00000016,-0.
 00004678,0.00002849,-0.00002125,0.00000538,-0.00000168,-0.00000781,0.0
 0000613,-0.00000575,0.00002398,0.00002194,-0.00000771,0.00001396,-0.00
 002792,0.00000300,-0.00000902,-0.00002936,0.00004525,-0.00002344,0.000
 02919,0.00000017,-0.00003722,0.00002378,-0.00008704,-0.00001862,-0.000
 34348,-0.00066130,0.00019714,-0.00007271,-0.00001239,-0.00010268,-0.00
 002342,0.00000434,-0.00000686,0.00000741,-0.00002403,0.00001462,0.0000
 0582,-0.00000665,-0.00000090,-0.00003700,-0.00000630,-0.00003192,0.000
 03835,0.00001291,0.00001294,-0.00043123,0.00009508,-0.00072342,-0.0000
 9135,0.00001005,-0.00016685,0.00073389,0.00118966,-0.00031356,-0.00052
 879,0.00338456,-0.02307877,0.00056700,-0.00051622,-0.00286480,0.002606
 98,0.05628081,-0.00000040,0.00000770,0.00000949,-0.00000434,-0.0000026
 5,-0.00002438,0.00001425,-0.00000176,0.00002821,-0.00004969,0.00003311
 ,-0.00000188,0.00004091,-0.00000922,-0.00006224,-0.00004718,0.00002090
 ,0.00005920,0.00003879,-0.00006700,0.00005386,-0.00008822,0.00008998,-
 0.00006038,0.00012400,0.00001822,-0.00005143,-0.00043285,-0.00063702,-
 0.00045753,-0.00012095,-0.00006401,0.00000642,0.00014967,0.00016375,0.
 00029630,-0.00000404,0.00003450,-0.00000256,-0.00044372,-0.00069556,0.
 00029489,-0.00019558,0.00015301,-0.00659949,0.00637904,0.03644008,-0.3
 0144962,0.00075519,0.00241858,0.00112445,-0.00001027,0.00000669,-0.000
 00152,0.00000050,-0.00000269,-0.00000233,0.00000364,-0.00000345,-0.000
 00045,0.00000048,-0.00000226,0.00000475,-0.00000075,0.00000329,0.00000
 033,0.00000054,0.00000253,-0.00000019,0.00005246,-0.00003874,0.0000250
 7,-0.00000657,0.00000750,0.00000934,0.00001195,-0.00000682,-0.00002336
 ,-0.00001960,0.00001088,-0.00001639,0.00004256,0.00000195,0.00001107,0
 .00002459,-0.00003434,0.00002798,-0.00000197,-0.00002775,0.00000143,-0
 .00002518,0.00011038,-0.00000524,0.00014067,0.00023880,-0.00006614,0.0
 0008425,0.00003624,0.00008624,-0.00000234,-0.00000900,0.00000948,-0.00
 000365,-0.00000327,-0.00001341,0.00000460,0.00000047,-0.00000766,0.000
 02271,0.00000799,0.00004208,0.00001243,-0.00000241,0.00000249,0.000597
 59,0.00018020,0.00057174,0.00001954,0.00004042,-0.00004829,-0.00020536
 ,0.00046650,0.00060340,-0.00042692,0.00183975,-0.01241598,0.00075958,0
 .00101241,-0.01063298,-0.00705414,-0.04145964,0.32809471,-0.00000061,-
 0.00000175,0.00000629,0.00001605,0.00000214,-0.00000571,0.00004758,-0.
 00010081,-0.00000221,-0.00002160,0.00006388,-0.00000729,0.00042624,0.0
 0022734,0.00004917,0.00001037,0.00001968,0.00010285,-0.00077230,0.0001
 5305,-0.00040370,0.00032079,0.00018972,0.00003841,-0.00030416,0.000588
 12,-0.00007943,-0.01158922,-0.00101138,-0.00426642,0.00062989,-0.00283
 701,0.00175333,0.00007562,0.00023672,0.00036517,0.00008479,0.00000818,
 -0.00004952,0.00136447,-0.00021628,-0.00001792,0.00003158,-0.00005152,
 0.00078055,0.00035283,0.00006826,0.00045390,-0.26472819,-0.02058016,-0
 .08411165,-0.00001028,0.00000765,0.00000144,0.00000465,0.00000072,-0.0
 0000145,0.00000434,-0.00000425,-0.00000172,-0.00000237,-0.00000251,0.0
 0000336,-0.00000265,0.00001108,0.00000242,0.00003114,0.00002597,0.0000
 0185,0.00002870,-0.00006049,0.00002456,-0.00012262,0.00017581,0.000061
 90,0.00006881,-0.00002968,-0.00001157,-0.00002914,0.00001387,-0.000021
 86,0.00058790,0.00105217,-0.00003968,-0.00006547,0.00013172,-0.0001223
 6,0.00005027,-0.00015564,-0.00002381,0.00008036,-0.00007193,0.00000184
 ,0.00002130,0.00000642,0.00038173,-0.00083685,-0.00026860,-0.00064462,
 0.00044426,0.00009217,0.00009353,0.00000060,-0.00004381,-0.00011805,0.
 00000810,0.00000427,0.00002044,-0.00003378,0.00001488,-0.00007125,0.00
 000708,-0.00001093,0.00003177,-0.00001346,-0.00014780,-0.00010330,0.00
 032863,-0.00006801,0.00018859,0.00066286,-0.00009779,-0.00055077,-0.00
 004720,-0.00004336,-0.00002899,0.00045639,0.00048011,-0.00023119,0.000
 32476,0.00012303,0.00001500,0.28964885,0.00000202,0.00001464,0.0000218
 6,-0.00000699,-0.00000826,-0.00003990,0.00005380,-0.00005138,0.0000906
 4,-0.00005940,0.00006915,-0.00007090,0.00044254,0.00023058,-0.00011968
 ,-0.00001735,0.00004571,0.00007417,-0.00068423,-0.00153551,0.00035085,
 0.00032021,0.00019144,-0.00023362,-0.00014168,0.00144819,-0.00053404,-
 0.02814367,-0.00270378,-0.01126467,-0.00068111,-0.00560186,0.00241374,
 0.00006063,-0.00004859,0.00052056,0.00010624,0.00007243,-0.00013154,-0
 .00011065,0.00008816,0.00135555,0.00382882,-0.00074328,0.00068730,0.00
 111169,0.00035110,0.00024952,-0.02008654,-0.04861983,-0.00815099,-0.00
 001996,0.00001043,-0.00000415,-0.00000148,-0.00000526,-0.00000298,0.00
 000527,-0.00000368,-0.00000482,0.00000618,-0.00000231,0.00000178,-0.00
 000379,0.00000565,0.00000083,0.00001726,0.00001223,0.00000178,0.000068
 33,-0.00005868,0.00006759,-0.00012136,0.00014120,0.00005838,0.00009445
 ,-0.00004403,-0.00002172,-0.00003126,0.00002065,-0.00002018,0.00135998
 ,-0.00086465,0.00063322,-0.00010034,0.00008335,-0.00004211,0.00011910,
 -0.00016063,-0.00008858,0.00000170,0.00034127,0.00007718,0.00054611,0.
 00096269,0.00010036,-0.00185951,-0.00031220,-0.00076447,-0.00014185,0.
 00017655,0.00015254,0.00003848,-0.00001509,-0.00011433,-0.00000852,-0.
 00000211,0.00002104,-0.00006663,0.00002502,-0.00009767,0.00006495,0.00
 004094,0.00004968,0.00031776,0.00042518,0.00030342,-0.00045212,0.00009
 649,-0.00011158,-0.00041372,0.00018401,-0.00008309,0.00008199,-0.00000
 842,0.00004043,-0.00029631,0.00006616,0.00018946,-0.00009979,-0.000031
 63,-0.00019115,0.02329336,0.05398149,0.00000278,0.00000399,0.00000431,
 -0.00000498,-0.00000577,-0.00000842,0.00000456,-0.00003765,0.00006478,
 0.00001644,0.00002103,-0.00007372,0.00005406,-0.00003257,0.00004433,-0
 .00004844,0.00007445,0.00001339,-0.00041184,0.00028920,0.00022888,0.00
 020286,0.00003617,-0.00016666,-0.00060793,-0.00027204,0.00015387,0.008
 28458,-0.00039861,0.00288100,0.00053261,0.00187285,-0.00015216,0.00044
 561,0.00066110,-0.00014047,0.00000819,-0.00016297,0.00017910,0.0024229
 7,0.00133805,-0.00644658,-0.03220835,-0.00168053,-0.01324153,-0.001146
 61,-0.00116634,0.00122000,-0.08323594,-0.00816102,-0.07893252,-0.00000
 699,0.00000411,-0.00000127,0.00000028,-0.00000136,0.00000082,0.0000000
 9,0.00000089,-0.00000436,0.00000887,-0.00000246,-0.00000746,-0.0000003
 8,0.00000473,0.00000025,0.00000750,0.00001314,0.00000410,-0.00001074,0
 .00000913,0.00002240,-0.00001924,0.00005550,0.00000124,0.00010683,-0.0
 0007067,0.00001775,-0.00001072,0.00003137,-0.00002868,0.00002203,0.000
 50011,0.00025802,0.00000088,0.00001206,-0.00003937,-0.00011528,0.00001
 101,-0.00007056,0.00013697,-0.00005858,-0.00010322,0.00002188,-0.00061
 930,0.00030576,0.00049838,0.00033958,0.00049518,-0.00035774,0.00005895
 ,-0.00007135,-0.00002458,-0.00010836,0.00002115,-0.00000392,0.00002742
 ,-0.00000863,0.00009166,0.00003332,0.00008705,-0.00012982,-0.00008764,
 0.00000650,-0.00210862,-0.00034812,-0.00096180,-0.00001132,0.00020628,
 0.00013490,0.00036287,-0.00056527,0.00135164,0.00013106,0.00011568,-0.
 00001883,0.00082898,0.00066079,0.00005726,0.00036860,-0.00028711,0.000
 22724,0.09297841,0.00629663,0.08796084,0.00000449,0.00000668,0.0000088
 3,-0.00000207,-0.00000382,-0.00001328,0.00003805,-0.00003379,0.0000505
 8,-0.00002563,0.00003993,-0.00007050,0.00018432,0.00007835,0.00005133,
 -0.00005182,0.00007177,-0.00000196,-0.00036654,-0.00036656,0.00015207,
 0.00020807,0.00018903,-0.00020190,-0.00115075,-0.00211460,0.00033973,0
 .00630438,-0.01038455,-0.00548646,0.00082208,-0.00036628,-0.00013830,-
 0.00006848,-0.00008597,-0.00002659,-0.00001087,0.00002440,-0.00002159,
 0.00071608,-0.00071582,-0.00053309,-0.00127616,0.00057230,0.00094481,-
 0.00005911,0.00045987,-0.00008179,-0.12339072,0.09834355,0.05739461,-0
 .00001010,0.00000519,-0.00000184,-0.00000157,-0.00000347,-0.00000076,0
 .00000193,-0.00000021,-0.00000458,0.00000814,-0.00000164,-0.00000458,-
 0.00000271,0.00000314,0.00000058,0.00001401,0.00000770,0.00000333,0.00
 003010,-0.00002075,0.00004368,-0.00007513,0.00009729,0.00002201,0.0001
 0116,-0.00005521,0.00000867,-0.00000753,0.00002268,-0.00001727,0.00047
 560,0.00004549,0.00025879,-0.00003439,0.00001498,-0.00007686,-0.000079
 47,-0.00008001,-0.00007212,0.00047857,-0.00060639,-0.00008805,0.000639
 34,0.00067761,-0.00041902,0.00019440,0.00016046,0.00007670,0.00002223,
 -0.00004998,0.00012807,-0.00008367,0.00001546,0.00005282,-0.00000757,-
 0.00000094,-0.00000311,-0.00000413,-0.00000153,0.00000694,0.00000940,0
 .00001374,-0.00000048,0.00007076,-0.00005902,0.00008286,0.00045144,0.0
 0012956,0.00003534,0.00116336,-0.00050393,0.00018814,0.00017789,-0.000
 53453,0.00029756,-0.00007223,0.00011375,0.00004726,0.00010116,-0.00031
 864,-0.00015123,-0.01753931,0.02160743,0.01292349,0.13210298,-0.000000
 79,-0.00002449,-0.00002675,0.00002599,0.00001825,0.00006327,-0.0000130
 3,-0.00002396,-0.00017718,0.00007954,-0.00004822,0.00009212,0.00004817
 ,0.00003536,0.00018729,0.00010658,-0.00004029,-0.00002291,-0.00073263,
 0.00000034,-0.00071734,0.00012072,-0.00002914,0.00041974,-0.00427000,-
 0.00358658,0.00209123,0.01674943,-0.02376796,-0.01139955,0.00152797,0.
 00060582,-0.00041843,-0.00024383,-0.00008101,-0.00001666,0.00001264,-0
 .00001047,-0.00006412,0.00011123,-0.00000956,-0.00007917,-0.00208717,0
 .00201890,0.00165604,-0.00057611,0.00115021,0.00062602,0.09733095,-0.1
 7192345,-0.07596657,0.00002297,-0.00001113,0.00000665,0.00000384,0.000
 00741,0.00000284,-0.00000563,0.00000274,0.00000592,-0.00000876,0.00000
 312,-0.00000073,0.00000005,-0.00000047,-0.00000059,0.00002845,0.000009
 05,0.00001270,-0.00009421,0.00004280,-0.00008216,0.00000388,0.00006752
 ,-0.00000155,0.00000812,-0.00000214,0.00001140,0.00003085,-0.00000364,
 0.00000862,0.00008191,0.00013115,0.00003707,-0.00002744,0.00004875,-0.
 00019897,-0.00019025,0.00036019,-0.00005224,0.00109289,-0.00176014,-0.
 00023130,0.00037293,0.00110273,0.00038697,-0.00008230,0.00038687,0.000
 39794,-0.00107310,0.00032267,-0.00000460,0.00002486,0.00009357,0.00018
 479,-0.00005141,0.00002075,-0.00000902,-0.00002347,0.00000351,-0.00000
 456,0.00000269,0.00001476,-0.00000596,-0.00020759,0.00009505,-0.000012
 66,-0.00040202,0.00008117,-0.00027922,-0.00027895,0.00058385,0.0012161
 6,0.00029099,0.00036358,-0.00014896,-0.00004479,-0.00000173,-0.0000171
 2,-0.00008481,0.00018919,-0.00008709,-0.00118665,0.00173648,0.00138883
 ,-0.10639269,0.19182854,-0.00000309,0.00000459,0.00000627,0.00000020,0
 .00000229,-0.00001784,-0.00000687,-0.00001014,0.00003624,-0.00001673,0
 .00000737,0.00000510,0.00011619,0.00006091,-0.00007872,-0.00000372,-0.
 00005669,0.00010102,0.00012294,-0.00006492,0.00016665,0.00007109,0.000
 05698,-0.00008282,0.00087745,0.00186820,0.00008293,-0.00458424,0.00724
 954,0.00267024,0.00003815,-0.00041649,-0.00010464,-0.00016886,0.000092
 15,-0.00016166,-0.00000886,-0.00008395,0.00003587,0.00160527,-0.000759
 15,0.00144426,0.02009495,-0.02394819,-0.01842395,-0.00003478,-0.001834
 02,0.00130868,0.05732091,-0.07635423,-0.09121221,-0.00000454,0.0000024
 4,-0.00000157,-0.00000016,-0.00000136,-0.00000077,0.00000213,-0.000001
 20,0.00000098,-0.00000429,-0.00000149,0.00000467,-0.00000049,0.0000004
 6,0.00000021,-0.00000068,0.00000036,-0.00000298,0.00002439,-0.00001360
 ,0.00001752,-0.00004455,0.00000522,0.00001585,-0.00003117,0.00001498,-
 0.00004055,-0.00001741,0.00000267,-0.00000836,0.00016330,-0.00009496,0
 .00008112,-0.00000533,0.00001386,0.00001340,-0.00003428,0.00021445,0.0
 0002640,-0.00025022,0.00055645,0.00018390,-0.00066818,0.00007845,0.000
 80151,-0.00015789,0.00002336,-0.00003641,-0.00017484,-0.00011005,0.000
 10392,0.00004809,0.00019377,0.00004747,-0.00004606,0.00000687,-0.00000
 050,0.00000216,-0.00000073,0.00001242,-0.00004124,-0.00000816,-0.00000
 880,-0.00009485,0.00046890,0.00039233,-0.00104498,0.00050309,0.0000538
 5,-0.00023770,0.00128971,-0.00671536,-0.00022210,0.00120026,0.00016733
 ,0.00000584,0.00014870,-0.00001790,-0.00044009,0.00012986,0.00035323,-
 0.00644205,0.00833365,0.00473585,-0.06570282,0.08122980,0.10404582\\0.
 00000064,-0.00000075,0.00000137,-0.00000164,0.00000223,0.00000132,0.00
 000102,0.00000125,-0.00000207,-0.00000108,-0.00000398,0.00000159,0.000
 00157,-0.00000065,-0.00000292,-0.00000203,-0.00000155,0.00000323,0.000
 00027,-0.00000106,0.00000671,0.00000196,0.00000261,-0.00000860,-0.0000
 0513,0.00000466,0.00000347,0.00000276,-0.00000142,-0.00000571,-0.00000
 307,-0.00000075,-0.00000175,-0.00000089,-0.00000227,-0.00000010,0.0000
 0246,0.00000129,-0.00000087,-0.00000113,-0.00000050,0.00000169,0.00000
 191,0.00000040,0.00000114,-0.00000007,0.00000059,-0.00000068,0.0000007
 9,-0.00000226,0.00000024,-0.00000038,0.00000016,0.00000153,-0.00000092
 ,-0.00000011,0.00000212,-0.00000111,-0.00000032,0.00000103,0.00000115,
 -0.00000045,0.00000107,-0.00000002,-0.00000001,0.00000106,-0.00000057,
 -0.00000035,0.00000181,-0.00000281,0.00000121,0.00000198,-0.00000132,-
 0.00000038,0.00000073,-0.00000024,0.00000118,0.00000107,0.00000086,0.0
 0000096,0.00000175,0.00000023,0.00000026,-0.00000074,-0.00000210,-0.00
 000144,-0.00000019,0.00000190,-0.00000050,-0.00000114,-0.00000151,0.00
 000041,-0.00000171,-0.00000059,-0.00000052,0.00000027,0.00000076,-0.00
 000058,-0.00000210,0.00000003,0.00000003,-0.00000177,0.00000186,0.0000
 0047,-0.00000228,0.00000060,0.00000043,-0.00000242,0.00000157,-0.00000
 020,-0.00000146,0.00000081,0.00000021,-0.00000137,0.00000045,-0.000000
 25,-0.00000097,0.00000122,0.00000085,-0.00000023,0.00000020,0.00000123
 ,0.00000043,0.00000016,0.00000028,0.00000030,0.00000038,-0.00000011,0.
 00000114,0.00000086,0.00000036,0.00000075,0.00000051,0.,0.00000250,-0.
 00000031,-0.00000064,-0.00000123\\\@


 IN NATURE THERE ARE NEITHER REWARDS OR
 PUNISHMENTS -- THERE ARE CONSEQUENCES.

                            -- ROBERT GREEN INGERSOLL
 Job cpu time:       0 days 20 hours 54 minutes 22.6 seconds.
 Elapsed time:       0 days  5 hours 13 minutes 37.9 seconds.
 File lengths (MBytes):  RWF=   1217 Int=      0 D2E=      0 Chk=     33 Scr=      1
 Normal termination of Gaussian 16 at Tue May 23 23:24:33 2023.
### All Done ###
