### Starting Gaussian ###
 Entering Gaussian System, Link 0=g16
 Initial command:
 /cluster/software/gaussian/gaussian-16-A.03/avx2/g16/l1.exe "/local/scratch/cz9n3/Gau-32318.inp" -scrdir="/local/scratch/cz9n3/"
 Entering Link 1 = /cluster/software/gaussian/gaussian-16-A.03/avx2/g16/l1.exe PID=     32320.
  
 Copyright (c) 1988,1990,1992,1993,1995,1998,2003,2009,2016,
            Gaussian, Inc.  All Rights Reserved.
  
 This is part of the Gaussian(R) 16 program.  It is based on
 the Gaussian(R) 09 system (copyright 2009, Gaussian, Inc.),
 the Gaussian(R) 03 system (copyright 2003, Gaussian, Inc.),
 the Gaussian(R) 98 system (copyright 1998, Gaussian, Inc.),
 the Gaussian(R) 94 system (copyright 1995, Gaussian, Inc.),
 the Gaussian 92(TM) system (copyright 1992, Gaussian, Inc.),
 the Gaussian 90(TM) system (copyright 1990, Gaussian, Inc.),
 the Gaussian 88(TM) system (copyright 1988, Gaussian, Inc.),
 the Gaussian 86(TM) system (copyright 1986, Carnegie Mellon
 University), and the Gaussian 82(TM) system (copyright 1983,
 Carnegie Mellon University). Gaussian is a federally registered
 trademark of Gaussian, Inc.
  
 This software contains proprietary and confidential information,
 including trade secrets, belonging to Gaussian, Inc.
  
 This software is provided under written license and may be
 used, copied, transmitted, or stored only in accord with that
 written license.
  
 The following legend is applicable only to US Government
 contracts under FAR:
  
                    RESTRICTED RIGHTS LEGEND
  
 Use, reproduction and disclosure by the US Government is
 subject to restrictions as set forth in subparagraphs (a)
 and (c) of the Commercial Computer Software - Restricted
 Rights clause in FAR 52.227-19.
  
 Gaussian, Inc.
 340 Quinnipiac St., Bldg. 40, Wallingford CT 06492
  
  
 ---------------------------------------------------------------
 Warning -- This program may not be used in any manner that
 competes with the business of Gaussian, Inc. or will provide
 assistance to any competitor of Gaussian, Inc.  The licensee
 of this program is prohibited from giving any competitor of
 Gaussian, Inc. access to this program.  By using this program,
 the user acknowledges that Gaussian, Inc. is engaged in the
 business of creating and licensing software in the field of
 computational chemistry and represents and warrants to the
 licensee that it is not a competitor of Gaussian, Inc. and that
 it will not use this program in any manner prohibited above.
 ---------------------------------------------------------------
  

 Cite this work as:
 Gaussian 16, Revision A.03,
 M. J. Frisch, G. W. Trucks, H. B. Schlegel, G. E. Scuseria, 
 M. A. Robb, J. R. Cheeseman, G. Scalmani, V. Barone, 
 G. A. Petersson, H. Nakatsuji, X. Li, M. Caricato, A. V. Marenich, 
 J. Bloino, B. G. Janesko, R. Gomperts, B. Mennucci, H. P. Hratchian, 
 J. V. Ortiz, A. F. Izmaylov, J. L. Sonnenberg, D. Williams-Young, 
 F. Ding, F. Lipparini, F. Egidi, J. Goings, B. Peng, A. Petrone, 
 T. Henderson, D. Ranasinghe, V. G. Zakrzewski, J. Gao, N. Rega, 
 G. Zheng, W. Liang, M. Hada, M. Ehara, K. Toyota, R. Fukuda, 
 J. Hasegawa, M. Ishida, T. Nakajima, Y. Honda, O. Kitao, H. Nakai, 
 T. Vreven, K. Throssell, J. A. Montgomery, Jr., J. E. Peralta, 
 F. Ogliaro, M. J. Bearpark, J. J. Heyd, E. N. Brothers, K. N. Kudin, 
 V. N. Staroverov, T. A. Keith, R. Kobayashi, J. Normand, 
 K. Raghavachari, A. P. Rendell, J. C. Burant, S. S. Iyengar, 
 J. Tomasi, M. Cossi, J. M. Millam, M. Klene, C. Adamo, R. Cammi, 
 J. W. Ochterski, R. L. Martin, K. Morokuma, O. Farkas, 
 J. B. Foresman, and D. J. Fox, Gaussian, Inc., Wallingford CT, 2016.
 
 ******************************************
 Gaussian 16:  ES64L-G16RevA.03 25-Dec-2016
                21-May-2023 
 ******************************************
 %chk=CCCqCCrCqdCC1CCCqOCrC1rOO.chk
 %NProcShared=20
 Will use up to   20 processors via shared memory.
 -----------------------------
 # opt freq b3lyp/6-31g(2df,p)
 -----------------------------
 1/18=20,19=15,26=3,38=1/1,3;
 2/9=110,12=2,17=6,18=5,40=1/2;
 3/5=1,6=6,7=104,11=2,25=1,30=1,71=1,74=-5/1,2,3;
 4//1;
 5/5=2,38=5/2;
 6/7=2,8=2,9=2,10=2,28=1/1;
 7//1,2,3,16;
 1/18=20,19=15,26=3/3(2);
 2/9=110/2;
 99//99;
 2/9=110/2;
 3/5=1,6=6,7=104,11=2,25=1,30=1,71=1,74=-5/1,2,3;
 4/5=5,16=3,69=1/1;
 5/5=2,38=5/2;
 7//1,2,3,16;
 1/18=20,19=15,26=3/3(-5);
 2/9=110/2;
 6/7=2,8=2,9=2,10=2,19=2,28=1/1;
 99/9=1/99;
 -------------------
 Title Card Required
 -------------------
 Symbolic Z-matrix:
 Charge =  0 Multiplicity = 1
 C                     0.56604   0.19197  -0.07935 
 C                     2.00347   0.62286  -0.28303 
 C                     2.88528   1.69701  -0.82631 
 C                     2.50748   2.9791   -0.0911 
 C                     0.99117   3.14029  -0.03946 
 C                     4.43216   1.34448  -0.68376 
 C                     5.06926   0.26091  -0.07527 
 C                     4.6104   -1.03111   0.67722 
 C                     3.18752  -1.4262    0.47564 
 C                     2.76657  -2.81753   0.67164 
 C                     4.09146  -3.46413   0.46873 
 O                     4.29958  -4.10031   1.71229 
 C                     5.39133  -4.97435   1.6231 
 C                     5.17829  -2.35764   0.16457 
 O                     5.1407    2.35714  -1.35172 
 O                     6.57382   2.17908  -1.23275 
 H                     0.57183  -0.86541   0.24095 
 H                     0.01235   0.23004  -1.01151 
 H                     0.04623   0.6827    0.74085 
 H                     2.2359   -0.09369  -1.05268 
 H                     2.38362   0.65265   0.74151 
 H                     2.68857   1.78458  -1.90493 
 H                     2.96713   3.83747  -0.58101 
 H                     2.89063   2.92776   0.93686 
 H                     0.5267    2.849    -0.99085 
 H                     0.69095   4.14701   0.22939 
 H                     0.57831   2.51478   0.75456 
 H                     6.15943   0.28937  -0.09187 
 H                     4.82075  -0.8973    1.74689 
 H                     3.08433  -1.38396  -0.60761 
 H                     2.57258  -0.93065   1.20859 
 H                     1.99831  -3.05003  -0.08295 
 H                     2.28532  -2.93318   1.65087 
 H                     3.9964   -4.18128  -0.35471 
 H                     5.46034  -5.50452   2.56781 
 H                     6.30153  -4.398     1.46659 
 H                     5.2311   -5.67079   0.79715 
 H                     5.32801  -2.2971   -0.91995 
 H                     6.14173  -2.54249   0.63793 
 H                     6.8116    2.98702  -1.71835 
 

 GradGradGradGradGradGradGradGradGradGradGradGradGradGradGradGradGradGrad
 Berny optimization.
 Initialization pass.
                           ----------------------------
                           !    Initial Parameters    !
                           ! (Angstroms and Degrees)  !
 --------------------------                            --------------------------
 ! Name  Definition              Value          Derivative Info.                !
 --------------------------------------------------------------------------------
 ! R1    R(1,2)                  1.5144         estimate D2E/DX2                !
 ! R2    R(1,17)                 1.1048         estimate D2E/DX2                !
 ! R3    R(1,18)                 1.0849         estimate D2E/DX2                !
 ! R4    R(1,19)                 1.088          estimate D2E/DX2                !
 ! R5    R(2,3)                  1.4922         estimate D2E/DX2                !
 ! R6    R(2,20)                 1.077          estimate D2E/DX2                !
 ! R7    R(2,21)                 1.0932         estimate D2E/DX2                !
 ! R8    R(3,4)                  1.5255         estimate D2E/DX2                !
 ! R9    R(3,6)                  1.5929         estimate D2E/DX2                !
 ! R10   R(3,22)                 1.0999         estimate D2E/DX2                !
 ! R11   R(4,5)                  1.5257         estimate D2E/DX2                !
 ! R12   R(4,23)                 1.09           estimate D2E/DX2                !
 ! R13   R(4,24)                 1.0982         estimate D2E/DX2                !
 ! R14   R(5,25)                 1.0981         estimate D2E/DX2                !
 ! R15   R(5,26)                 1.0844         estimate D2E/DX2                !
 ! R16   R(5,27)                 1.0919         estimate D2E/DX2                !
 ! R17   R(6,7)                  1.3965         estimate D2E/DX2                !
 ! R18   R(6,15)                 1.4049         estimate D2E/DX2                !
 ! R19   R(7,8)                  1.564          estimate D2E/DX2                !
 ! R20   R(7,28)                 1.0907         estimate D2E/DX2                !
 ! R21   R(8,9)                  1.4904         estimate D2E/DX2                !
 ! R22   R(8,14)                 1.5313         estimate D2E/DX2                !
 ! R23   R(8,29)                 1.0983         estimate D2E/DX2                !
 ! R24   R(9,10)                 1.4668         estimate D2E/DX2                !
 ! R25   R(9,30)                 1.089          estimate D2E/DX2                !
 ! R26   R(9,31)                 1.0775         estimate D2E/DX2                !
 ! R27   R(10,11)                1.4882         estimate D2E/DX2                !
 ! R28   R(10,32)                1.1017         estimate D2E/DX2                !
 ! R29   R(10,33)                1.0972         estimate D2E/DX2                !
 ! R30   R(11,12)                1.4123         estimate D2E/DX2                !
 ! R31   R(11,14)                1.5805         estimate D2E/DX2                !
 ! R32   R(11,34)                1.0961         estimate D2E/DX2                !
 ! R33   R(12,13)                1.4014         estimate D2E/DX2                !
 ! R34   R(13,35)                1.0855         estimate D2E/DX2                !
 ! R35   R(13,36)                1.0886         estimate D2E/DX2                !
 ! R36   R(13,37)                1.0922         estimate D2E/DX2                !
 ! R37   R(14,38)                1.0965         estimate D2E/DX2                !
 ! R38   R(14,39)                1.0892         estimate D2E/DX2                !
 ! R39   R(15,16)                1.449          estimate D2E/DX2                !
 ! R40   R(16,40)                0.9722         estimate D2E/DX2                !
 ! A1    A(2,1,17)             107.8379         estimate D2E/DX2                !
 ! A2    A(2,1,18)             111.0321         estimate D2E/DX2                !
 ! A3    A(2,1,19)             115.2485         estimate D2E/DX2                !
 ! A4    A(17,1,18)            106.5801         estimate D2E/DX2                !
 ! A5    A(17,1,19)            102.4518         estimate D2E/DX2                !
 ! A6    A(18,1,19)            112.8348         estimate D2E/DX2                !
 ! A7    A(1,2,3)              144.5602         estimate D2E/DX2                !
 ! A8    A(1,2,20)              96.4111         estimate D2E/DX2                !
 ! A9    A(1,2,21)             102.2263         estimate D2E/DX2                !
 ! A10   A(3,2,20)              95.2337         estimate D2E/DX2                !
 ! A11   A(3,2,21)              96.6673         estimate D2E/DX2                !
 ! A12   A(20,2,21)            127.796          estimate D2E/DX2                !
 ! A13   A(2,3,4)              106.4502         estimate D2E/DX2                !
 ! A14   A(2,3,6)              112.4566         estimate D2E/DX2                !
 ! A15   A(2,3,22)             107.979          estimate D2E/DX2                !
 ! A16   A(4,3,6)              112.5429         estimate D2E/DX2                !
 ! A17   A(4,3,22)             111.1879         estimate D2E/DX2                !
 ! A18   A(6,3,22)             106.2035         estimate D2E/DX2                !
 ! A19   A(3,4,5)              110.5632         estimate D2E/DX2                !
 ! A20   A(3,4,23)             109.9257         estimate D2E/DX2                !
 ! A21   A(3,4,24)             108.9912         estimate D2E/DX2                !
 ! A22   A(5,4,23)             110.5553         estimate D2E/DX2                !
 ! A23   A(5,4,24)             108.6617         estimate D2E/DX2                !
 ! A24   A(23,4,24)            108.0827         estimate D2E/DX2                !
 ! A25   A(4,5,25)             111.2865         estimate D2E/DX2                !
 ! A26   A(4,5,26)             112.4341         estimate D2E/DX2                !
 ! A27   A(4,5,27)             109.8694         estimate D2E/DX2                !
 ! A28   A(25,5,26)            110.1197         estimate D2E/DX2                !
 ! A29   A(25,5,27)            108.5519         estimate D2E/DX2                !
 ! A30   A(26,5,27)            104.2921         estimate D2E/DX2                !
 ! A31   A(3,6,7)              130.8228         estimate D2E/DX2                !
 ! A32   A(3,6,15)             106.7197         estimate D2E/DX2                !
 ! A33   A(7,6,15)             122.4367         estimate D2E/DX2                !
 ! A34   A(6,7,8)              135.788          estimate D2E/DX2                !
 ! A35   A(6,7,28)             115.4116         estimate D2E/DX2                !
 ! A36   A(8,7,28)             108.792          estimate D2E/DX2                !
 ! A37   A(7,8,9)              115.7223         estimate D2E/DX2                !
 ! A38   A(7,8,14)             116.4708         estimate D2E/DX2                !
 ! A39   A(7,8,29)             108.1642         estimate D2E/DX2                !
 ! A40   A(9,8,14)              94.5386         estimate D2E/DX2                !
 ! A41   A(9,8,29)             110.2951         estimate D2E/DX2                !
 ! A42   A(14,8,29)            111.1338         estimate D2E/DX2                !
 ! A43   A(8,9,10)             120.4887         estimate D2E/DX2                !
 ! A44   A(8,9,30)             102.3993         estimate D2E/DX2                !
 ! A45   A(8,9,31)             109.326          estimate D2E/DX2                !
 ! A46   A(10,9,30)             98.1939         estimate D2E/DX2                !
 ! A47   A(10,9,31)            100.4614         estimate D2E/DX2                !
 ! A48   A(30,9,31)            127.2113         estimate D2E/DX2                !
 ! A49   A(9,10,11)             97.9567         estimate D2E/DX2                !
 ! A50   A(9,10,32)            107.9867         estimate D2E/DX2                !
 ! A51   A(9,10,33)            110.1891         estimate D2E/DX2                !
 ! A52   A(11,10,32)           115.8337         estimate D2E/DX2                !
 ! A53   A(11,10,33)           117.7999         estimate D2E/DX2                !
 ! A54   A(32,10,33)           106.4503         estimate D2E/DX2                !
 ! A55   A(10,11,12)           101.9387         estimate D2E/DX2                !
 ! A56   A(10,11,14)           109.5274         estimate D2E/DX2                !
 ! A57   A(10,11,34)           108.0296         estimate D2E/DX2                !
 ! A58   A(12,11,14)           112.5497         estimate D2E/DX2                !
 ! A59   A(12,11,34)           112.3066         estimate D2E/DX2                !
 ! A60   A(14,11,34)           111.9079         estimate D2E/DX2                !
 ! A61   A(11,12,13)           109.8602         estimate D2E/DX2                !
 ! A62   A(12,13,35)           107.3833         estimate D2E/DX2                !
 ! A63   A(12,13,36)           109.2877         estimate D2E/DX2                !
 ! A64   A(12,13,37)           109.3626         estimate D2E/DX2                !
 ! A65   A(35,13,36)           109.3016         estimate D2E/DX2                !
 ! A66   A(35,13,37)           110.8569         estimate D2E/DX2                !
 ! A67   A(36,13,37)           110.5805         estimate D2E/DX2                !
 ! A68   A(8,14,11)            106.6794         estimate D2E/DX2                !
 ! A69   A(8,14,38)            109.5075         estimate D2E/DX2                !
 ! A70   A(8,14,39)            109.2407         estimate D2E/DX2                !
 ! A71   A(11,14,38)           108.838          estimate D2E/DX2                !
 ! A72   A(11,14,39)           113.9402         estimate D2E/DX2                !
 ! A73   A(38,14,39)           108.5681         estimate D2E/DX2                !
 ! A74   A(6,15,16)            111.7892         estimate D2E/DX2                !
 ! A75   A(15,16,40)            95.6682         estimate D2E/DX2                !
 ! D1    D(17,1,2,3)           168.9949         estimate D2E/DX2                !
 ! D2    D(17,1,2,20)           60.5626         estimate D2E/DX2                !
 ! D3    D(17,1,2,21)          -70.385          estimate D2E/DX2                !
 ! D4    D(18,1,2,3)            52.5783         estimate D2E/DX2                !
 ! D5    D(18,1,2,20)          -55.854          estimate D2E/DX2                !
 ! D6    D(18,1,2,21)          173.1984         estimate D2E/DX2                !
 ! D7    D(19,1,2,3)           -77.2899         estimate D2E/DX2                !
 ! D8    D(19,1,2,20)          174.2778         estimate D2E/DX2                !
 ! D9    D(19,1,2,21)           43.3302         estimate D2E/DX2                !
 ! D10   D(1,2,3,4)             58.39           estimate D2E/DX2                !
 ! D11   D(1,2,3,6)           -177.9283         estimate D2E/DX2                !
 ! D12   D(1,2,3,22)           -61.0833         estimate D2E/DX2                !
 ! D13   D(20,2,3,4)           167.1789         estimate D2E/DX2                !
 ! D14   D(20,2,3,6)           -69.1394         estimate D2E/DX2                !
 ! D15   D(20,2,3,22)           47.7055         estimate D2E/DX2                !
 ! D16   D(21,2,3,4)           -63.7477         estimate D2E/DX2                !
 ! D17   D(21,2,3,6)            59.934          estimate D2E/DX2                !
 ! D18   D(21,2,3,22)          176.7789         estimate D2E/DX2                !
 ! D19   D(2,3,4,5)            -46.0643         estimate D2E/DX2                !
 ! D20   D(2,3,4,23)          -168.3996         estimate D2E/DX2                !
 ! D21   D(2,3,4,24)            73.3115         estimate D2E/DX2                !
 ! D22   D(6,3,4,5)           -169.6923         estimate D2E/DX2                !
 ! D23   D(6,3,4,23)            67.9724         estimate D2E/DX2                !
 ! D24   D(6,3,4,24)           -50.3165         estimate D2E/DX2                !
 ! D25   D(22,3,4,5)            71.299          estimate D2E/DX2                !
 ! D26   D(22,3,4,23)          -51.0363         estimate D2E/DX2                !
 ! D27   D(22,3,4,24)         -169.3252         estimate D2E/DX2                !
 ! D28   D(2,3,6,7)             -4.3939         estimate D2E/DX2                !
 ! D29   D(2,3,6,15)           173.9407         estimate D2E/DX2                !
 ! D30   D(4,3,6,7)            115.8269         estimate D2E/DX2                !
 ! D31   D(4,3,6,15)           -65.8385         estimate D2E/DX2                !
 ! D32   D(22,3,6,7)          -122.2934         estimate D2E/DX2                !
 ! D33   D(22,3,6,15)           56.0413         estimate D2E/DX2                !
 ! D34   D(3,4,5,25)           -40.5093         estimate D2E/DX2                !
 ! D35   D(3,4,5,26)          -164.5825         estimate D2E/DX2                !
 ! D36   D(3,4,5,27)            79.7473         estimate D2E/DX2                !
 ! D37   D(23,4,5,25)           81.4567         estimate D2E/DX2                !
 ! D38   D(23,4,5,26)          -42.6165         estimate D2E/DX2                !
 ! D39   D(23,4,5,27)         -158.2867         estimate D2E/DX2                !
 ! D40   D(24,4,5,25)         -160.0839         estimate D2E/DX2                !
 ! D41   D(24,4,5,26)           75.843          estimate D2E/DX2                !
 ! D42   D(24,4,5,27)          -39.8272         estimate D2E/DX2                !
 ! D43   D(3,6,7,8)              1.063          estimate D2E/DX2                !
 ! D44   D(3,6,7,28)          -177.734          estimate D2E/DX2                !
 ! D45   D(15,6,7,8)          -177.0471         estimate D2E/DX2                !
 ! D46   D(15,6,7,28)            4.1558         estimate D2E/DX2                !
 ! D47   D(3,6,15,16)          177.1238         estimate D2E/DX2                !
 ! D48   D(7,6,15,16)           -4.3693         estimate D2E/DX2                !
 ! D49   D(6,7,8,9)             17.2788         estimate D2E/DX2                !
 ! D50   D(6,7,8,14)           127.0342         estimate D2E/DX2                !
 ! D51   D(6,7,8,29)          -107.0024         estimate D2E/DX2                !
 ! D52   D(28,7,8,9)          -163.8689         estimate D2E/DX2                !
 ! D53   D(28,7,8,14)          -54.1135         estimate D2E/DX2                !
 ! D54   D(28,7,8,29)           71.8498         estimate D2E/DX2                !
 ! D55   D(7,8,9,10)           156.4905         estimate D2E/DX2                !
 ! D56   D(7,8,9,30)            49.1057         estimate D2E/DX2                !
 ! D57   D(7,8,9,31)           -88.0561         estimate D2E/DX2                !
 ! D58   D(14,8,9,10)           34.176          estimate D2E/DX2                !
 ! D59   D(14,8,9,30)          -73.2087         estimate D2E/DX2                !
 ! D60   D(14,8,9,31)          149.6294         estimate D2E/DX2                !
 ! D61   D(29,8,9,10)          -80.3419         estimate D2E/DX2                !
 ! D62   D(29,8,9,30)          172.2734         estimate D2E/DX2                !
 ! D63   D(29,8,9,31)           35.1116         estimate D2E/DX2                !
 ! D64   D(7,8,14,11)         -150.2847         estimate D2E/DX2                !
 ! D65   D(7,8,14,38)          -32.6554         estimate D2E/DX2                !
 ! D66   D(7,8,14,39)           86.1254         estimate D2E/DX2                !
 ! D67   D(9,8,14,11)          -28.5564         estimate D2E/DX2                !
 ! D68   D(9,8,14,38)           89.0728         estimate D2E/DX2                !
 ! D69   D(9,8,14,39)         -152.1464         estimate D2E/DX2                !
 ! D70   D(29,8,14,11)          85.2546         estimate D2E/DX2                !
 ! D71   D(29,8,14,38)        -157.1162         estimate D2E/DX2                !
 ! D72   D(29,8,14,39)         -38.3353         estimate D2E/DX2                !
 ! D73   D(8,9,10,11)          -22.8319         estimate D2E/DX2                !
 ! D74   D(8,9,10,32)         -143.3615         estimate D2E/DX2                !
 ! D75   D(8,9,10,33)          100.7509         estimate D2E/DX2                !
 ! D76   D(30,9,10,11)          86.8336         estimate D2E/DX2                !
 ! D77   D(30,9,10,32)         -33.696          estimate D2E/DX2                !
 ! D78   D(30,9,10,33)        -149.5836         estimate D2E/DX2                !
 ! D79   D(31,9,10,11)        -142.7823         estimate D2E/DX2                !
 ! D80   D(31,9,10,32)          96.6881         estimate D2E/DX2                !
 ! D81   D(31,9,10,33)         -19.1995         estimate D2E/DX2                !
 ! D82   D(9,10,11,12)         119.2898         estimate D2E/DX2                !
 ! D83   D(9,10,11,14)          -0.1081         estimate D2E/DX2                !
 ! D84   D(9,10,11,34)        -122.233          estimate D2E/DX2                !
 ! D85   D(32,10,11,12)       -126.2484         estimate D2E/DX2                !
 ! D86   D(32,10,11,14)        114.3537         estimate D2E/DX2                !
 ! D87   D(32,10,11,34)         -7.7712         estimate D2E/DX2                !
 ! D88   D(33,10,11,12)          1.409          estimate D2E/DX2                !
 ! D89   D(33,10,11,14)       -117.989          estimate D2E/DX2                !
 ! D90   D(33,10,11,34)        119.8861         estimate D2E/DX2                !
 ! D91   D(10,11,12,13)        168.9089         estimate D2E/DX2                !
 ! D92   D(14,11,12,13)        -73.8507         estimate D2E/DX2                !
 ! D93   D(34,11,12,13)         53.5247         estimate D2E/DX2                !
 ! D94   D(10,11,14,8)          20.0461         estimate D2E/DX2                !
 ! D95   D(10,11,14,38)        -98.0238         estimate D2E/DX2                !
 ! D96   D(10,11,14,39)        140.6712         estimate D2E/DX2                !
 ! D97   D(12,11,14,8)         -92.5929         estimate D2E/DX2                !
 ! D98   D(12,11,14,38)        149.3372         estimate D2E/DX2                !
 ! D99   D(12,11,14,39)         28.0322         estimate D2E/DX2                !
 ! D100  D(34,11,14,8)         139.8204         estimate D2E/DX2                !
 ! D101  D(34,11,14,38)         21.7505         estimate D2E/DX2                !
 ! D102  D(34,11,14,39)        -99.5545         estimate D2E/DX2                !
 ! D103  D(11,12,13,35)       -175.0493         estimate D2E/DX2                !
 ! D104  D(11,12,13,36)         66.4928         estimate D2E/DX2                !
 ! D105  D(11,12,13,37)        -54.6877         estimate D2E/DX2                !
 ! D106  D(6,15,16,40)        -177.6446         estimate D2E/DX2                !
 --------------------------------------------------------------------------------
 Trust Radius=3.00D-01 FncErr=1.00D-07 GrdErr=1.00D-06 EigMax=2.50D+02 EigMin=1.00D-04
 Number of steps in this run=    231 maximum allowed number of steps=    240.
 GradGradGradGradGradGradGradGradGradGradGradGradGradGradGradGradGradGrad

                          Input orientation:                          
 ---------------------------------------------------------------------
 Center     Atomic      Atomic             Coordinates (Angstroms)
 Number     Number       Type             X           Y           Z
 ---------------------------------------------------------------------
      1          6           0        0.566040    0.191970   -0.079350
      2          6           0        2.003470    0.622860   -0.283030
      3          6           0        2.885280    1.697010   -0.826310
      4          6           0        2.507480    2.979100   -0.091100
      5          6           0        0.991170    3.140290   -0.039460
      6          6           0        4.432160    1.344480   -0.683760
      7          6           0        5.069260    0.260910   -0.075270
      8          6           0        4.610400   -1.031110    0.677220
      9          6           0        3.187520   -1.426200    0.475640
     10          6           0        2.766570   -2.817530    0.671640
     11          6           0        4.091460   -3.464130    0.468730
     12          8           0        4.299580   -4.100310    1.712290
     13          6           0        5.391330   -4.974350    1.623100
     14          6           0        5.178290   -2.357640    0.164570
     15          8           0        5.140700    2.357140   -1.351720
     16          8           0        6.573820    2.179080   -1.232750
     17          1           0        0.571830   -0.865410    0.240950
     18          1           0        0.012350    0.230040   -1.011510
     19          1           0        0.046230    0.682700    0.740850
     20          1           0        2.235900   -0.093690   -1.052680
     21          1           0        2.383620    0.652650    0.741510
     22          1           0        2.688570    1.784580   -1.904930
     23          1           0        2.967130    3.837470   -0.581010
     24          1           0        2.890630    2.927760    0.936860
     25          1           0        0.526700    2.849000   -0.990850
     26          1           0        0.690950    4.147010    0.229390
     27          1           0        0.578310    2.514780    0.754560
     28          1           0        6.159430    0.289370   -0.091870
     29          1           0        4.820750   -0.897300    1.746890
     30          1           0        3.084330   -1.383960   -0.607610
     31          1           0        2.572580   -0.930650    1.208590
     32          1           0        1.998310   -3.050030   -0.082950
     33          1           0        2.285320   -2.933180    1.650870
     34          1           0        3.996400   -4.181280   -0.354710
     35          1           0        5.460340   -5.504520    2.567810
     36          1           0        6.301530   -4.398000    1.466590
     37          1           0        5.231100   -5.670790    0.797150
     38          1           0        5.328010   -2.297100   -0.919950
     39          1           0        6.141730   -2.542490    0.637930
     40          1           0        6.811600    2.987020   -1.718350
 ---------------------------------------------------------------------
                    Distance matrix (angstroms):
                    1          2          3          4          5
     1  C    0.000000
     2  C    1.514383   0.000000
     3  C    2.863908   1.492160   0.000000
     4  C    3.396678   2.417174   1.525458   0.000000
     5  C    2.979080   2.724249   2.507956   1.525728   0.000000
     6  C    4.079274   2.565123   1.592933   2.593766   3.934523
     7  C    4.503750   3.094065   2.719598   3.735174   4.992287
     8  C    4.292455   3.233231   3.560798   4.592861   5.568935
     9  C    3.130279   2.485196   3.397185   4.493364   5.093340
    10  C    3.803079   3.651027   4.758048   5.852335   6.257262
    11  C    5.108429   4.650627   5.456131   6.658650   7.313578
    12  O    5.964307   5.617985   6.484879   7.522093   8.151104
    13  C    7.271356   6.814667   7.535711   8.632059   9.379387
    14  C    5.275686   4.377580   4.762344   5.973222   6.913815
    15  O    5.218659   3.740593   2.408059   2.984936   4.421985
    16  O    6.432135   4.920558   3.742047   4.298665   5.789115
    17  H    1.104843   2.130515   3.613460   4.317089   4.037339
    18  H    1.084871   2.156281   3.231103   3.824939   3.220640
    19  H    1.088001   2.209683   3.397796   3.467470   2.746187
    20  H    1.953818   1.076953   1.918214   3.231165   3.610345
    21  H    2.046860   1.093199   1.949464   2.474055   2.955873
    22  H    3.220913   2.109387   1.099902   2.179369   2.863406
    23  H    4.393924   3.369147   2.156024   1.089995   2.164198
    24  H    3.731079   2.754587   2.150242   1.098245   2.146233
    25  H    2.809304   2.763613   2.630029   2.179442   1.098055
    26  H    3.969038   3.795381   3.454285   2.183234   1.084388
    27  H    2.467996   2.585930   2.913762   2.156949   1.091872
    28  H    5.594252   4.173699   3.638806   4.535569   5.902661
    29  H    4.756492   3.790584   4.134954   4.874003   5.844558
    30  H    3.017350   2.302376   3.095130   4.431234   5.017265
    31  H    2.635388   2.227602   3.338143   4.120628   4.542140
    32  H    3.544288   3.678339   4.886071   6.050597   6.271864
    33  H    3.964360   4.057688   5.285360   6.167566   6.435766
    34  H    5.564936   5.201603   6.000941   7.318293   7.920617
    35  H    7.963142   7.590917   8.367378   9.368084  10.074923
    36  H    7.506904   6.836924   7.353727   8.440546   9.343122
    37  H    7.543407   7.155027   7.900821   9.111953   9.813870
    38  H    5.438606   4.470391   4.682800   6.039923   7.010610
    39  H    6.251406   5.290823   5.542727   6.650354   7.699423
    40  H    7.036025   5.546847   4.227984   4.601462   6.059667
                    6          7          8          9         10
     6  C    0.000000
     7  C    1.396524   0.000000
     8  C    2.743622   1.564004   0.000000
     9  C    3.251154   2.586656   1.490409   0.000000
    10  C    4.683335   3.916254   2.567301   1.466770   0.000000
    11  C    4.956515   3.889467   2.496468   2.229420   1.488152
    12  O    5.950157   4.775774   3.253916   3.149102   2.253574
    13  C    6.794794   5.513269   4.129610   4.331606   3.527962
    14  C    3.870667   2.631770   1.531336   2.219800   2.506993
    15  O    1.404877   2.455322   3.984728   4.633338   6.042159
    16  O    2.363187   2.698673   4.219991   5.232941   6.564142
    17  H    4.543220   4.647092   4.065444   2.685405   2.968695
    18  H    4.569914   5.142941   5.058100   3.877686   4.439190
    19  H    4.658739   5.106348   4.875740   3.792822   4.433582
    20  H    2.651036   3.018112   3.083758   2.239849   3.267139
    21  H    2.589699   2.834299   2.792442   2.244674   3.491945
    22  H    2.173718   3.367033   4.276569   4.028048   5.274866
    23  H    2.893418   4.179295   5.290232   5.373202   6.774834
    24  H    2.740347   3.589279   4.324081   4.388375   5.752746
    25  H    4.196487   5.307669   5.874889   5.244797   6.315889
    26  H    4.762843   5.862098   6.509652   6.111806   7.280701
    27  H    4.276742   5.092856   5.370016   4.734670   5.764450
    28  H    2.108804   1.090668   2.175928   3.478146   4.663397
    29  H    3.329360   2.173356   1.098338   2.136177   3.010499
    30  H    3.044147   2.632286   2.025878   1.088973   1.947453
    31  H    3.495031   3.049840   2.108354   1.077468   1.971361
    32  H    5.059280   4.515874   3.387759   2.088796   1.101674
    33  H    5.325204   4.575160   3.157825   2.113319   1.097209
    34  H    5.552674   4.578446   3.371268   2.989019   2.103732
    35  H    7.651056   6.354447   4.930327   5.116208   4.251091
    36  H    6.410509   5.059769   3.849542   4.417084   3.952945
    37  H    7.214251   5.997697   4.682551   4.721878   3.772367
    38  H    3.757584   2.706261   2.160705   2.699599   3.060226
    39  H    4.447250   3.085109   2.151926   3.162246   3.386516
    40  H    3.070838   3.628655   5.170049   6.117521   7.467739
                   11         12         13         14         15
    11  C    0.000000
    12  O    1.412261   0.000000
    13  C    2.302824   1.401363   0.000000
    14  C    1.580517   2.490877   3.003309   0.000000
    15  O    6.188871   7.196826   7.916004   4.952747   0.000000
    16  O    6.395543   7.299052   7.792671   4.947912   1.449031
    17  H    4.380984   5.150295   6.482384   4.842732   5.813433
    18  H    5.698872   6.674680   7.934751   5.896286   5.562398
    19  H    5.799494   6.473937   7.832667   5.992813   5.756407
    20  H    4.137349   5.287423   6.398233   3.907023   3.812329
    21  H    4.465311   5.215740   6.441013   4.147877   3.858547
    22  H    5.928855   7.093065   8.089193   5.257330   2.578140
    23  H    7.461865   8.369170   9.401224   6.620008   2.740397
    24  H    6.520536   7.209730   8.316716   5.810789   3.259758
    25  H    7.395505   8.356704   9.576125   7.076820   4.654154
    26  H    8.339676   9.123568  10.355443   7.902588   5.050131
    27  H    6.940554   7.650132   8.944640   6.726692   5.027591
    28  H    4.321983   5.097384   5.589083   2.834618   2.626919
    29  H    2.958745   3.245318   4.118643   2.182697   4.505012
    30  H    2.549495   3.773238   4.815518   2.434950   4.333380
    31  H    3.045145   3.644583   4.946583   3.148969   4.894894
    32  H    2.203884   3.101906   4.257487   3.263885   6.381370
    33  H    2.222950   2.328778   3.716779   3.302970   6.719838
    34  H    1.096081   2.090685   2.546865   2.234318   6.712257
    35  H    3.231588   2.012730   1.085504   3.969631   8.790369
    36  H    2.598509   2.038821   1.088641   2.668332   7.410959
    37  H    2.505192   2.042454   1.092198   3.373412   8.311045
    38  H    2.195324   3.352301   3.693072   1.096478   4.677976
    39  H    2.254253   2.640941   2.729030   1.089246   5.382113
    40  H    7.334836   8.264973   8.750192   5.897328   1.822930
                   16         17         18         19         20
    16  O    0.000000
    17  H    6.889455   0.000000
    18  H    6.848401   1.755473   0.000000
    19  H    6.981668   1.709620   1.810197   0.000000
    20  H    4.900557   2.244584   2.247370   2.934993   0.000000
    21  H    4.877035   2.416123   2.979027   2.337583   1.948836
    22  H    3.962654   4.013457   3.221327   3.898237   2.111667
    23  H    4.022839   5.341363   4.682906   4.497949   4.026312
    24  H    4.339772   4.499918   4.399811   3.628957   3.676425
    25  H    6.088922   3.913593   2.669070   2.814692   3.403617
    26  H    6.373285   5.013849   4.164491   3.560716   4.691920
    27  H    6.325206   3.418994   2.942677   1.907830   3.580201
    28  H    2.245959   5.715379   6.215774   6.182180   4.057583
    29  H    4.627702   4.508014   5.656888   5.128797   3.894205
    30  H    5.026191   2.702148   3.493593   3.914011   1.607084
    31  H    5.624987   2.223417   3.582014   3.033830   2.434584
    32  H    7.042792   2.629129   3.945266   4.292148   3.120380
    33  H    7.269230   3.033083   4.718116   4.349281   3.921011
    34  H    6.918687   4.803903   5.980283   6.361006   4.504988
    35  H    8.644177   7.129737   8.682010   8.422117   7.265125
    36  H    7.114672   6.841845   8.192284   8.091291   6.434528
    37  H    8.218507   6.716385   8.082475   8.200785   6.595236
    38  H    4.656831   5.100850   5.886515   6.287660   3.799181
    39  H    5.096996   5.830435   6.926534   6.896924   4.910223
    40  H    0.972170   7.590442   7.370913   7.558293   5.556161
                   21         22         23         24         25
    21  H    0.000000
    22  H    2.894461   0.000000
    23  H    3.497516   2.458601   0.000000
    24  H    2.339091   3.069765   1.771258   0.000000
    25  H    3.357555   2.577249   2.664721   3.051300   0.000000
    26  H    3.916370   3.758575   2.435890   2.612600   1.789076
    27  H    2.593616   3.472647   3.039690   2.355973   1.777870
    28  H    3.883714   4.191624   4.797817   4.324863   6.252001
    29  H    3.058224   5.007441   5.592233   4.360344   6.322092
    30  H    2.541437   3.446638   5.222813   4.584085   4.960473
    31  H    1.661538   4.132788   5.108161   3.881021   4.827931
    32  H    3.812878   5.212439   6.973115   6.129455   6.147233
    33  H    3.700645   5.921451   7.161554   5.935219   6.595835
    34  H    5.212450   6.301197   8.087704   7.309537   7.865642
    35  H    7.121258   8.989944  10.168773   8.964751  10.333739
    36  H    6.433104   7.914855   9.117777   8.098247   9.586797
    37  H    6.935210   8.327559   9.870760   8.912485   9.895208
    38  H    4.486748   4.959530   6.581913   6.057039   7.038462
    39  H    4.933867   6.092125   7.229647   6.370451   7.952965
    40  H    5.577383   4.298843   4.098385   4.735785   6.328371
                   26         27         28         29         30
    26  H    0.000000
    27  H    1.718332   0.000000
    28  H    6.699916   6.067767   0.000000
    29  H    6.693513   5.534014   2.565402   0.000000
    30  H    6.084445   4.830716   3.538681   2.965748   0.000000
    31  H    5.502908   4.006775   4.005638   2.311957   1.940608
    32  H    7.321484   5.803872   5.335409   3.993586   2.056817
    33  H    7.395384   5.779059   5.332045   3.253065   2.852934
    34  H    8.979287   7.599410   4.973379   3.985072   2.953105
    35  H   11.016684   9.561970   6.413407   4.723289   5.719067
    36  H   10.296915   9.002709   4.941703   3.811322   4.872075
    37  H   10.831644   9.415616   6.097185   4.884322   4.995887
    38  H    8.021837   6.965474   2.840212   3.054307   2.442433
    39  H    8.638710   7.519390   2.924441   2.383575   3.498751
    40  H    6.526992   6.722514   3.216843   5.573088   5.850791
                   31         32         33         34         35
    31  H    0.000000
    32  H    2.547476   0.000000
    33  H    2.070811   1.761295   0.000000
    34  H    3.877856   2.312130   2.916830   0.000000
    35  H    5.577358   5.003669   4.187281   3.526359   0.000000
    36  H    5.098446   4.768207   4.278972   2.945798   1.773322
    37  H    5.450315   4.253691   4.111078   2.251645   1.793163
    38  H    3.740356   3.514879   4.033817   2.375461   4.740203
    39  H    3.957589   4.236177   4.006318   2.876353   3.600326
    40  H    6.471816   7.892292   8.178485   7.821086   9.607462
                   36         37         38         39         40
    36  H    0.000000
    37  H    1.792753   0.000000
    38  H    3.325221   3.786768   0.000000
    39  H    2.038414   3.262033   1.774640   0.000000
    40  H    8.058693   9.153327   5.546206   6.047831   0.000000
 Stoichiometry    C13H24O3
 Framework group  C1[X(C13H24O3)]
 Deg. of freedom   114
 Full point group                 C1      NOp   1
 Largest Abelian subgroup         C1      NOp   1
 Largest concise Abelian subgroup C1      NOp   1
                         Standard orientation:                         
 ---------------------------------------------------------------------
 Center     Atomic      Atomic             Coordinates (Angstroms)
 Number     Number       Type             X           Y           Z
 ---------------------------------------------------------------------
      1          6           0       -1.288296   -2.876740   -0.432000
      2          6           0       -1.401405   -1.372823   -0.294897
      3          6           0       -2.336310   -0.212220   -0.369010
      4          6           0       -3.440549   -0.481361    0.648459
      5          6           0       -3.939854   -1.918196    0.529953
      6          6           0       -1.600923    1.178448   -0.118637
      7          6           0       -0.278553    1.462251    0.229317
      8          6           0        1.014646    0.624421    0.497251
      9          6           0        0.994412   -0.776686   -0.010499
     10          6           0        2.247922   -1.484219   -0.292500
     11          6           0        3.117966   -0.292568   -0.486378
     12          8           0        4.080632   -0.464823    0.532485
     13          6           0        5.137233    0.436741    0.346487
     14          6           0        2.262546    1.022729   -0.295899
     15          8           0       -2.551269    2.186173   -0.353183
     16          8           0       -2.012510    3.505341   -0.090073
     17          1           0       -0.214369   -3.136201   -0.438208
     18          1           0       -1.693456   -3.212792   -1.380608
     19          1           0       -1.663095   -3.449347    0.413809
     20          1           0       -0.870592   -1.129319   -1.199757
     21          1           0       -1.077664   -1.209368    0.736392
     22          1           0       -2.740095   -0.166255   -1.391081
     23          1           0       -4.260254    0.221969    0.501830
     24          1           0       -3.039189   -0.331075    1.659629
     25          1           0       -4.019986   -2.226982   -0.520739
     26          1           0       -4.886364   -2.070504    1.036726
     27          1           0       -3.249736   -2.594060    1.039002
     28          1           0       -0.049620    2.518452    0.376232
     29          1           0        1.211932    0.635284    1.577670
     30          1           0        0.654219   -0.648510   -1.036999
     31          1           0        0.570191   -1.422117    0.740761
     32          1           0        2.090432   -2.113608   -1.182866
     33          1           0        2.491109   -2.166770    0.531424
     34          1           0        3.557581   -0.352945   -1.488620
     35          1           0        5.891248    0.211405    1.094154
     36          1           0        4.774162    1.452074    0.496214
     37          1           0        5.541267    0.318177   -0.661280
     38          1           0        1.965159    1.397626   -1.282447
     39          1           0        2.786022    1.817582    0.233854
     40          1           0       -2.836737    3.985075   -0.278802
 ---------------------------------------------------------------------
 Rotational constants (GHZ):           0.7350170           0.2860078           0.2153084
 Standard basis: 6-31G(2df,p) (6D, 7F)
 There are   616 symmetry adapted cartesian basis functions of A   symmetry.
 There are   568 symmetry adapted basis functions of A   symmetry.
   568 basis functions,   872 primitive gaussians,   616 cartesian basis functions
    63 alpha electrons       63 beta electrons
       nuclear repulsion energy      1205.5744370948 Hartrees.
 NAtoms=   40 NActive=   40 NUniq=   40 SFac= 1.00D+00 NAtFMM=   60 NAOKFM=F Big=F
 Integral buffers will be    131072 words long.
 Raffenetti 2 integral format.
 Two-electron integral symmetry is turned on.
 One-electron integrals computed using PRISM.
 PrsmSu:  requested number of processors reduced to:  12 ShMem   1 Linda.
 NBasis=   568 RedAO= T EigKep=  3.18D-04  NBF=   568
 NBsUse=   568 1.00D-06 EigRej= -1.00D+00 NBFU=   568
 ExpMin= 1.61D-01 ExpMax= 5.48D+03 ExpMxC= 8.25D+02 IAcc=3 IRadAn=         5 AccDes= 0.00D+00
 Harris functional with IExCor=  402 and IRadAn=       5 diagonalized for initial guess.
 HarFok:  IExCor=  402 AccDes= 0.00D+00 IRadAn=         5 IDoV= 1 UseB2=F ITyADJ=14
 ICtDFT=  3500011 ScaDFX=  1.000000  1.000000  1.000000  1.000000
 FoFCou: FMM=F IPFlag=           0 FMFlag=      100000 FMFlg1=           0
         NFxFlg=           0 DoJE=T BraDBF=F KetDBF=T FulRan=T
         wScrn=  0.000000 ICntrl=       500 IOpCl=  0 I1Cent=   200000004 NGrid=           0
         NMat0=    1 NMatS0=      1 NMatT0=    0 NMatD0=    1 NMtDS0=    0 NMtDT0=    0
 Petite list used in FoFCou.
 Requested convergence on RMS density matrix=1.00D-08 within 128 cycles.
 Requested convergence on MAX density matrix=1.00D-06.
 Requested convergence on             energy=1.00D-06.
 No special actions if energy rises.
 Integral accuracy reduced to 1.0D-05 until final iterations.
 Initial convergence to 1.0D-05 achieved.  Increase integral accuracy.
 SCF Done:  E(RB3LYP) =  -735.250652813     A.U. after   13 cycles
            NFock= 13  Conv=0.77D-08     -V/T= 2.0067

 **********************************************************************

            Population analysis using the SCF density.

 **********************************************************************

 Orbital symmetries:
       Occupied  (A) (A) (A) (A) (A) (A) (A) (A) (A) (A) (A) (A)
                 (A) (A) (A) (A) (A) (A) (A) (A) (A) (A) (A) (A)
                 (A) (A) (A) (A) (A) (A) (A) (A) (A) (A) (A) (A)
                 (A) (A) (A) (A) (A) (A) (A) (A) (A) (A) (A) (A)
                 (A) (A) (A) (A) (A) (A) (A) (A) (A) (A) (A) (A)
                 (A) (A) (A)
       Virtual   (A) (A) (A) (A) (A) (A) (A) (A) (A) (A) (A) (A)
                 (A) (A) (A) (A) (A) (A) (A) (A) (A) (A) (A) (A)
                 (A) (A) (A) (A) (A) (A) (A) (A) (A) (A) (A) (A)
                 (A) (A) (A) (A) (A) (A) (A) (A) (A) (A) (A) (A)
                 (A) (A) (A) (A) (A) (A) (A) (A) (A) (A) (A) (A)
                 (A) (A) (A) (A) (A) (A) (A) (A) (A) (A) (A) (A)
                 (A) (A) (A) (A) (A) (A) (A) (A) (A) (A) (A) (A)
                 (A) (A) (A) (A) (A) (A) (A) (A) (A) (A) (A) (A)
                 (A) (A) (A) (A) (A) (A) (A) (A) (A) (A) (A) (A)
                 (A) (A) (A) (A) (A) (A) (A) (A) (A) (A) (A) (A)
                 (A) (A) (A) (A) (A) (A) (A) (A) (A) (A) (A) (A)
                 (A) (A) (A) (A) (A) (A) (A) (A) (A) (A) (A) (A)
                 (A) (A) (A) (A) (A) (A) (A) (A) (A) (A) (A) (A)
                 (A) (A) (A) (A) (A) (A) (A) (A) (A) (A) (A) (A)
                 (A) (A) (A) (A) (A) (A) (A) (A) (A) (A) (A) (A)
                 (A) (A) (A) (A) (A) (A) (A) (A) (A) (A) (A) (A)
                 (A) (A) (A) (A) (A) (A) (A) (A) (A) (A) (A) (A)
                 (A) (A) (A) (A) (A) (A) (A) (A) (A) (A) (A) (A)
                 (A) (A) (A) (A) (A) (A) (A) (A) (A) (A) (A) (A)
                 (A) (A) (A) (A) (A) (A) (A) (A) (A) (A) (A) (A)
                 (A) (A) (A) (A) (A) (A) (A) (A) (A) (A) (A) (A)
                 (A) (A) (A) (A) (A) (A) (A) (A) (A) (A) (A) (A)
                 (A) (A) (A) (A) (A) (A) (A) (A) (A) (A) (A) (A)
                 (A) (A) (A) (A) (A) (A) (A) (A) (A) (A) (A) (A)
                 (A) (A) (A) (A) (A) (A) (A) (A) (A) (A) (A) (A)
                 (A) (A) (A) (A) (A) (A) (A) (A) (A) (A) (A) (A)
                 (A) (A) (A) (A) (A) (A) (A) (A) (A) (A) (A) (A)
                 (A) (A) (A) (A) (A) (A) (A) (A) (A) (A) (A) (A)
                 (A) (A) (A) (A) (A) (A) (A) (A) (A) (A) (A) (A)
                 (A) (A) (A) (A) (A) (A) (A) (A) (A) (A) (A) (A)
                 (A) (A) (A) (A) (A) (A) (A) (A) (A) (A) (A) (A)
                 (A) (A) (A) (A) (A) (A) (A) (A) (A) (A) (A) (A)
                 (A) (A) (A) (A) (A) (A) (A) (A) (A) (A) (A) (A)
                 (A) (A) (A) (A) (A) (A) (A) (A) (A) (A) (A) (A)
                 (A) (A) (A) (A) (A) (A) (A) (A) (A) (A) (A) (A)
                 (A) (A) (A) (A) (A) (A) (A) (A) (A) (A) (A) (A)
                 (A) (A) (A) (A) (A) (A) (A) (A) (A) (A) (A) (A)
                 (A) (A) (A) (A) (A) (A) (A) (A) (A) (A) (A) (A)
                 (A) (A) (A) (A) (A) (A) (A) (A) (A) (A) (A) (A)
                 (A) (A) (A) (A) (A) (A) (A) (A) (A) (A) (A) (A)
                 (A) (A) (A) (A) (A) (A) (A) (A) (A) (A) (A) (A)
                 (A) (A) (A) (A) (A) (A) (A) (A) (A) (A) (A) (A)
                 (A)
 The electronic state is 1-A.
 Alpha  occ. eigenvalues --  -19.21418 -19.20148 -19.12941 -10.24725 -10.21813
 Alpha  occ. eigenvalues --  -10.20981 -10.19515 -10.18211 -10.17609 -10.17461
 Alpha  occ. eigenvalues --  -10.17248 -10.17048 -10.16408 -10.15737 -10.15247
 Alpha  occ. eigenvalues --  -10.14301  -1.12671  -1.03021  -0.92583  -0.84655
 Alpha  occ. eigenvalues --   -0.81815  -0.74971  -0.74593  -0.71099  -0.70056
 Alpha  occ. eigenvalues --   -0.68199  -0.64981  -0.60962  -0.58397  -0.56392
 Alpha  occ. eigenvalues --   -0.55698  -0.52676  -0.51684  -0.49966  -0.49376
 Alpha  occ. eigenvalues --   -0.48665  -0.46678  -0.45387  -0.44808  -0.43728
 Alpha  occ. eigenvalues --   -0.43046  -0.42492  -0.41722  -0.40624  -0.39678
 Alpha  occ. eigenvalues --   -0.38707  -0.38313  -0.36742  -0.35702  -0.35611
 Alpha  occ. eigenvalues --   -0.35496  -0.34361  -0.33625  -0.32855  -0.32699
 Alpha  occ. eigenvalues --   -0.31884  -0.30396  -0.30011  -0.28317  -0.27971
 Alpha  occ. eigenvalues --   -0.24562  -0.21574  -0.20600
 Alpha virt. eigenvalues --    0.01408   0.03005   0.05146   0.08045   0.08695
 Alpha virt. eigenvalues --    0.09550   0.10883   0.11923   0.12402   0.12521
 Alpha virt. eigenvalues --    0.13676   0.14230   0.14939   0.15457   0.15767
 Alpha virt. eigenvalues --    0.16012   0.17145   0.17268   0.17794   0.18057
 Alpha virt. eigenvalues --    0.19072   0.19324   0.19936   0.20321   0.20449
 Alpha virt. eigenvalues --    0.22399   0.23606   0.23872   0.24236   0.25344
 Alpha virt. eigenvalues --    0.26159   0.26407   0.27428   0.28613   0.29553
 Alpha virt. eigenvalues --    0.31084   0.32576   0.34083   0.36014   0.37421
 Alpha virt. eigenvalues --    0.41429   0.43756   0.44776   0.45447   0.46185
 Alpha virt. eigenvalues --    0.47777   0.49143   0.50339   0.50712   0.50798
 Alpha virt. eigenvalues --    0.51785   0.53067   0.53294   0.53934   0.54802
 Alpha virt. eigenvalues --    0.55464   0.57008   0.57532   0.58129   0.59459
 Alpha virt. eigenvalues --    0.59604   0.60740   0.61525   0.62167   0.63254
 Alpha virt. eigenvalues --    0.64301   0.64528   0.64762   0.65779   0.66301
 Alpha virt. eigenvalues --    0.67842   0.68147   0.69461   0.69627   0.70957
 Alpha virt. eigenvalues --    0.71607   0.72597   0.73584   0.74243   0.74391
 Alpha virt. eigenvalues --    0.75025   0.75288   0.76395   0.76877   0.77043
 Alpha virt. eigenvalues --    0.77858   0.78647   0.79102   0.79261   0.79581
 Alpha virt. eigenvalues --    0.79993   0.80317   0.80705   0.81029   0.81559
 Alpha virt. eigenvalues --    0.81973   0.83218   0.83546   0.84279   0.85397
 Alpha virt. eigenvalues --    0.86276   0.86905   0.87852   0.88489   0.90227
 Alpha virt. eigenvalues --    0.90431   0.91799   0.92000   0.92545   0.92931
 Alpha virt. eigenvalues --    0.93246   0.94930   0.95398   0.95878   0.97371
 Alpha virt. eigenvalues --    0.98200   0.98545   0.99968   1.00449   1.01944
 Alpha virt. eigenvalues --    1.03378   1.05243   1.08775   1.10049   1.11064
 Alpha virt. eigenvalues --    1.13209   1.14927   1.16502   1.16937   1.19014
 Alpha virt. eigenvalues --    1.20293   1.21824   1.22882   1.23357   1.24168
 Alpha virt. eigenvalues --    1.25449   1.26304   1.28310   1.28821   1.31601
 Alpha virt. eigenvalues --    1.31887   1.33374   1.34538   1.36133   1.37049
 Alpha virt. eigenvalues --    1.37944   1.38965   1.40375   1.42080   1.42678
 Alpha virt. eigenvalues --    1.44167   1.44440   1.45449   1.46228   1.48316
 Alpha virt. eigenvalues --    1.48868   1.50184   1.51939   1.53733   1.54238
 Alpha virt. eigenvalues --    1.54870   1.55567   1.57040   1.58123   1.58705
 Alpha virt. eigenvalues --    1.58860   1.59855   1.62035   1.63514   1.63956
 Alpha virt. eigenvalues --    1.66211   1.67204   1.68906   1.69422   1.70532
 Alpha virt. eigenvalues --    1.71438   1.72731   1.73743   1.75276   1.76210
 Alpha virt. eigenvalues --    1.76911   1.78350   1.80410   1.81164   1.82652
 Alpha virt. eigenvalues --    1.83220   1.84705   1.85741   1.86663   1.87073
 Alpha virt. eigenvalues --    1.88042   1.88791   1.90518   1.93256   1.94488
 Alpha virt. eigenvalues --    1.94950   1.95930   1.97107   1.99490   2.00542
 Alpha virt. eigenvalues --    2.01382   2.04419   2.05503   2.07128   2.09253
 Alpha virt. eigenvalues --    2.10378   2.11984   2.14255   2.15996   2.18188
 Alpha virt. eigenvalues --    2.18262   2.20909   2.23199   2.24681   2.25467
 Alpha virt. eigenvalues --    2.28186   2.28847   2.30758   2.32676   2.34060
 Alpha virt. eigenvalues --    2.35081   2.36245   2.36726   2.37736   2.39250
 Alpha virt. eigenvalues --    2.39366   2.41230   2.42183   2.42762   2.45043
 Alpha virt. eigenvalues --    2.47210   2.47583   2.49627   2.50381   2.51146
 Alpha virt. eigenvalues --    2.53284   2.56004   2.56931   2.57476   2.59833
 Alpha virt. eigenvalues --    2.63779   2.64204   2.66195   2.67507   2.67614
 Alpha virt. eigenvalues --    2.69518   2.72085   2.73404   2.75254   2.75651
 Alpha virt. eigenvalues --    2.75969   2.77699   2.78015   2.79309   2.80462
 Alpha virt. eigenvalues --    2.81396   2.83294   2.84151   2.84695   2.86632
 Alpha virt. eigenvalues --    2.87042   2.88635   2.88970   2.89634   2.90350
 Alpha virt. eigenvalues --    2.91175   2.91864   2.92482   2.92947   2.93488
 Alpha virt. eigenvalues --    2.94115   2.94488   2.96292   2.96788   2.97729
 Alpha virt. eigenvalues --    2.98581   2.99463   3.00735   3.03000   3.03315
 Alpha virt. eigenvalues --    3.04619   3.07772   3.08360   3.09002   3.09808
 Alpha virt. eigenvalues --    3.11313   3.12559   3.13064   3.15573   3.17992
 Alpha virt. eigenvalues --    3.18408   3.19874   3.22252   3.22535   3.23396
 Alpha virt. eigenvalues --    3.26138   3.27536   3.28586   3.30585   3.32056
 Alpha virt. eigenvalues --    3.32821   3.35753   3.37707   3.38052   3.38957
 Alpha virt. eigenvalues --    3.39740   3.40708   3.40800   3.43397   3.45146
 Alpha virt. eigenvalues --    3.46636   3.47375   3.48434   3.49448   3.51190
 Alpha virt. eigenvalues --    3.52928   3.54708   3.55565   3.56598   3.57535
 Alpha virt. eigenvalues --    3.58429   3.59500   3.60641   3.61750   3.62659
 Alpha virt. eigenvalues --    3.63804   3.64844   3.66073   3.67432   3.69831
 Alpha virt. eigenvalues --    3.71015   3.72124   3.73769   3.74081   3.75097
 Alpha virt. eigenvalues --    3.77542   3.78667   3.79611   3.80376   3.82878
 Alpha virt. eigenvalues --    3.86041   3.87643   3.88072   3.90268   3.91375
 Alpha virt. eigenvalues --    3.93247   3.94335   3.95649   3.97190   3.98708
 Alpha virt. eigenvalues --    3.99212   4.03384   4.03971   4.06193   4.06717
 Alpha virt. eigenvalues --    4.08464   4.09692   4.11561   4.12231   4.16253
 Alpha virt. eigenvalues --    4.19408   4.20677   4.22797   4.25389   4.26325
 Alpha virt. eigenvalues --    4.28589   4.29921   4.31041   4.31853   4.33467
 Alpha virt. eigenvalues --    4.34093   4.35885   4.37021   4.39633   4.40456
 Alpha virt. eigenvalues --    4.42390   4.42772   4.43788   4.45975   4.46650
 Alpha virt. eigenvalues --    4.47266   4.47978   4.49602   4.49733   4.50979
 Alpha virt. eigenvalues --    4.52263   4.52727   4.53745   4.54703   4.56379
 Alpha virt. eigenvalues --    4.57245   4.57396   4.58235   4.60054   4.60480
 Alpha virt. eigenvalues --    4.62759   4.63556   4.65573   4.65950   4.67398
 Alpha virt. eigenvalues --    4.69045   4.70068   4.70406   4.71815   4.73158
 Alpha virt. eigenvalues --    4.73288   4.74383   4.74755   4.75361   4.75822
 Alpha virt. eigenvalues --    4.76472   4.77482   4.79623   4.80121   4.80377
 Alpha virt. eigenvalues --    4.80985   4.82928   4.83270   4.83339   4.84265
 Alpha virt. eigenvalues --    4.85595   4.86810   4.88085   4.88452   4.88892
 Alpha virt. eigenvalues --    4.90826   4.91384   4.94359   4.94690   4.96050
 Alpha virt. eigenvalues --    4.96744   4.98629   4.99938   5.01538   5.02507
 Alpha virt. eigenvalues --    5.03117   5.04896   5.06349   5.08035   5.10228
 Alpha virt. eigenvalues --    5.13602   5.16094   5.17242   5.21039   5.23022
 Alpha virt. eigenvalues --    5.25066   5.28548   5.29730   5.32999   5.33542
 Alpha virt. eigenvalues --    5.36404   5.37800   5.40097   5.40654   5.41954
 Alpha virt. eigenvalues --    5.42489   5.43491   5.44678   5.47636   5.48242
 Alpha virt. eigenvalues --    5.53828   5.54130   5.56628   5.58205   5.62946
 Alpha virt. eigenvalues --    5.63765   5.65906   5.70049   5.75967   5.79059
 Alpha virt. eigenvalues --    5.85809   5.87444   5.89530   5.93356   5.98875
 Alpha virt. eigenvalues --    5.99713   6.07169   6.08402   6.12084   6.16276
 Alpha virt. eigenvalues --    6.28166   6.31140   6.36835   6.58053   6.85263
 Alpha virt. eigenvalues --    6.99378   7.24394   7.34564   7.75751  10.49174
 Alpha virt. eigenvalues --   11.15689  11.39028  11.49481  11.68691  11.79130
 Alpha virt. eigenvalues --   12.02018  12.18422  12.28701  12.50488  12.74038
 Alpha virt. eigenvalues --   12.92883  13.06828  13.17861  13.66378  13.71062
          Condensed to atoms (all electrons):
               1          2          3          4          5          6
     1  C    5.101051   0.393886   0.004551  -0.007842  -0.005914   0.002745
     2  C    0.393886   4.703905   0.392493  -0.026223  -0.006391  -0.039205
     3  C    0.004551   0.392493   4.997210   0.367427  -0.031055   0.401107
     4  C   -0.007842  -0.026223   0.367427   4.852112   0.391068  -0.036108
     5  C   -0.005914  -0.006391  -0.031055   0.391068   4.975483   0.002020
     6  C    0.002745  -0.039205   0.401107  -0.036108   0.002020   4.523134
     7  C    0.000263   0.000583  -0.041006  -0.002182  -0.000105   0.612328
     8  C    0.000902  -0.000553  -0.010686   0.000081  -0.000005  -0.009777
     9  C   -0.001950  -0.035662   0.004947  -0.000342   0.000040  -0.007014
    10  C   -0.001620   0.003821  -0.000181   0.000006  -0.000002   0.000382
    11  C    0.000065  -0.000171   0.000007  -0.000000   0.000000   0.000033
    12  O   -0.000000  -0.000001   0.000000  -0.000000   0.000000   0.000000
    13  C    0.000000  -0.000000  -0.000000  -0.000000   0.000000   0.000000
    14  C   -0.000048   0.000117   0.000131  -0.000006   0.000000  -0.000670
    15  O   -0.000018   0.000666  -0.029764   0.002135   0.000243   0.338002
    16  O    0.000000  -0.000027   0.000630  -0.000001  -0.000001  -0.056279
    17  H    0.378804  -0.027409   0.004974  -0.000277   0.000711   0.000075
    18  H    0.361435  -0.022167  -0.004367   0.000388  -0.000795  -0.000102
    19  H    0.367668  -0.024238  -0.002931   0.001663  -0.006434  -0.000080
    20  H   -0.070108   0.397099  -0.076750   0.010313  -0.000275  -0.008514
    21  H   -0.073938   0.394614  -0.071886   0.000138  -0.002928  -0.016197
    22  H   -0.003815  -0.045249   0.328653  -0.033935  -0.003985  -0.033884
    23  H    0.000144   0.005217  -0.027611   0.362376  -0.036725   0.001209
    24  H   -0.000187  -0.011742  -0.030070   0.362816  -0.037538  -0.002240
    25  H    0.001118  -0.005226  -0.004462  -0.029749   0.380421   0.000327
    26  H    0.000394   0.000613   0.003481  -0.021349   0.369021  -0.000074
    27  H   -0.005609   0.000279  -0.005139  -0.022896   0.382563  -0.000067
    28  H    0.000002   0.000133   0.004583  -0.000073   0.000002  -0.010298
    29  H    0.000004  -0.000159   0.000177   0.000033  -0.000000   0.000310
    30  H   -0.000288  -0.021283   0.002874  -0.000011   0.000007   0.002309
    31  H    0.000111  -0.024411   0.003746  -0.000265   0.000058   0.001214
    32  H   -0.000225   0.000455  -0.000020   0.000000   0.000000  -0.000014
    33  H   -0.000018  -0.000077   0.000005  -0.000000   0.000000  -0.000012
    34  H    0.000000   0.000004   0.000000   0.000000  -0.000000  -0.000004
    35  H    0.000000   0.000000   0.000000   0.000000  -0.000000  -0.000000
    36  H    0.000000   0.000000  -0.000000   0.000000  -0.000000  -0.000000
    37  H    0.000000  -0.000000   0.000000  -0.000000   0.000000   0.000000
    38  H    0.000000  -0.000010   0.000038   0.000001   0.000000   0.001318
    39  H    0.000000  -0.000001  -0.000001   0.000000  -0.000000  -0.000037
    40  H   -0.000000  -0.000001  -0.000117   0.000015  -0.000000   0.002353
               7          8          9         10         11         12
     1  C    0.000263   0.000902  -0.001950  -0.001620   0.000065  -0.000000
     2  C    0.000583  -0.000553  -0.035662   0.003821  -0.000171  -0.000001
     3  C   -0.041006  -0.010686   0.004947  -0.000181   0.000007   0.000000
     4  C   -0.002182   0.000081  -0.000342   0.000006  -0.000000  -0.000000
     5  C   -0.000105  -0.000005   0.000040  -0.000002   0.000000   0.000000
     6  C    0.612328  -0.009777  -0.007014   0.000382   0.000033   0.000000
     7  C    5.050281   0.371302  -0.025788   0.004889   0.001906   0.000146
     8  C    0.371302   4.843915   0.427982  -0.001632  -0.042431   0.005839
     9  C   -0.025788   0.427982   4.791112   0.338200  -0.055157  -0.004081
    10  C    0.004889  -0.001632   0.338200   5.119018   0.363823  -0.025494
    11  C    0.001906  -0.042431  -0.055157   0.363823   4.679827   0.335047
    12  O    0.000146   0.005839  -0.004081  -0.025494   0.335047   7.712500
    13  C   -0.000000  -0.000039  -0.000473   0.007694  -0.097599   0.368574
    14  C   -0.036913   0.348819  -0.045316  -0.082399   0.407936  -0.035352
    15  O   -0.021288   0.001764   0.000024   0.000000   0.000000  -0.000000
    16  O    0.008679   0.000228  -0.000004  -0.000000  -0.000000   0.000000
    17  H   -0.000049  -0.000049   0.003117  -0.001861   0.000204   0.000001
    18  H    0.000004  -0.000027   0.000033   0.000108  -0.000003   0.000000
    19  H    0.000006  -0.000021  -0.000361   0.000152  -0.000002   0.000000
    20  H    0.002599  -0.000641  -0.024389   0.004514  -0.000283  -0.000001
    21  H    0.005223   0.001326  -0.017098   0.002728  -0.000139   0.000000
    22  H    0.003400   0.000107  -0.000011   0.000017  -0.000001   0.000000
    23  H    0.000148  -0.000005   0.000004   0.000000  -0.000000   0.000000
    24  H    0.002869  -0.000010  -0.000028   0.000001  -0.000000   0.000000
    25  H    0.000011  -0.000000  -0.000002   0.000000  -0.000000   0.000000
    26  H    0.000000   0.000000   0.000000  -0.000000   0.000000   0.000000
    27  H    0.000005   0.000000  -0.000016   0.000001  -0.000000   0.000000
    28  H    0.342818  -0.059876   0.003692  -0.000159   0.000004   0.000000
    29  H   -0.041102   0.354965  -0.040809   0.000871  -0.000494   0.001517
    30  H   -0.009249  -0.059541   0.393950  -0.066590   0.005280   0.000100
    31  H   -0.000480  -0.054324   0.396954  -0.076967   0.010140  -0.000194
    32  H   -0.000025   0.004998  -0.024978   0.365424  -0.022314   0.002242
    33  H   -0.000086  -0.002353  -0.022037   0.355016  -0.014404   0.002093
    34  H    0.000073   0.006912   0.000976  -0.033466   0.337341  -0.030405
    35  H    0.000000  -0.000008   0.000014  -0.000490   0.006130  -0.020600
    36  H   -0.000035  -0.000081   0.000273  -0.000360   0.000779  -0.039236
    37  H    0.000003   0.000156  -0.000138   0.000815  -0.010702  -0.034043
    38  H   -0.001768  -0.030444  -0.006418   0.003788  -0.017400   0.002605
    39  H    0.001305  -0.023298   0.006298   0.004932  -0.020398  -0.004642
    40  H   -0.000351  -0.000024   0.000000  -0.000000  -0.000000   0.000000
              13         14         15         16         17         18
     1  C    0.000000  -0.000048  -0.000018   0.000000   0.378804   0.361435
     2  C   -0.000000   0.000117   0.000666  -0.000027  -0.027409  -0.022167
     3  C   -0.000000   0.000131  -0.029764   0.000630   0.004974  -0.004367
     4  C   -0.000000  -0.000006   0.002135  -0.000001  -0.000277   0.000388
     5  C    0.000000   0.000000   0.000243  -0.000001   0.000711  -0.000795
     6  C    0.000000  -0.000670   0.338002  -0.056279   0.000075  -0.000102
     7  C   -0.000000  -0.036913  -0.021288   0.008679  -0.000049   0.000004
     8  C   -0.000039   0.348819   0.001764   0.000228  -0.000049  -0.000027
     9  C   -0.000473  -0.045316   0.000024  -0.000004   0.003117   0.000033
    10  C    0.007694  -0.082399   0.000000  -0.000000  -0.001861   0.000108
    11  C   -0.097599   0.407936   0.000000  -0.000000   0.000204  -0.000003
    12  O    0.368574  -0.035352  -0.000000   0.000000   0.000001   0.000000
    13  C    4.851440  -0.003298  -0.000000   0.000000   0.000000  -0.000000
    14  C   -0.003298   5.108158  -0.000005  -0.000001   0.000034   0.000002
    15  O   -0.000000  -0.000005   7.868429   0.108462   0.000000   0.000000
    16  O    0.000000  -0.000001   0.108462   7.927703  -0.000000  -0.000000
    17  H    0.000000   0.000034   0.000000  -0.000000   0.616456  -0.035681
    18  H   -0.000000   0.000002   0.000000  -0.000000  -0.035681   0.606530
    19  H   -0.000000   0.000000   0.000000  -0.000000  -0.042840  -0.026668
    20  H   -0.000000  -0.000185   0.000088  -0.000000  -0.017234   0.000372
    21  H   -0.000000   0.000080   0.000032  -0.000002  -0.010039   0.007643
    22  H   -0.000000   0.000015  -0.000078  -0.000104  -0.000212   0.002052
    23  H    0.000000   0.000000   0.004061  -0.000077   0.000009  -0.000003
    24  H   -0.000000   0.000001  -0.000733  -0.000026  -0.000005   0.000031
    25  H   -0.000000   0.000000  -0.000005  -0.000000   0.000089   0.001417
    26  H    0.000000  -0.000000  -0.000000  -0.000000  -0.000015  -0.000038
    27  H   -0.000000  -0.000000  -0.000002   0.000000   0.000242   0.000216
    28  H   -0.000001  -0.003678  -0.013559   0.014143  -0.000000  -0.000000
    29  H    0.000194  -0.039331  -0.000022   0.000001   0.000010   0.000000
    30  H    0.000047  -0.000191  -0.000058   0.000000   0.001370   0.000071
    31  H    0.000041   0.013078  -0.000004   0.000000   0.005134  -0.000309
    32  H   -0.000344   0.003527  -0.000000  -0.000000   0.001224   0.000004
    33  H    0.000702   0.002284  -0.000000  -0.000000   0.000969   0.000000
    34  H   -0.012120  -0.065764  -0.000000  -0.000000  -0.000009   0.000000
    35  H    0.379628   0.000002   0.000000  -0.000000  -0.000000   0.000000
    36  H    0.366198   0.005439   0.000000   0.000000   0.000000   0.000000
    37  H    0.371283  -0.002660  -0.000000   0.000000  -0.000000  -0.000000
    38  H    0.000103   0.337633  -0.000022   0.000003  -0.000003  -0.000000
    39  H   -0.002823   0.344902   0.000000  -0.000001  -0.000000  -0.000000
    40  H    0.000000   0.000000  -0.034129   0.294185   0.000000   0.000000
              19         20         21         22         23         24
     1  C    0.367668  -0.070108  -0.073938  -0.003815   0.000144  -0.000187
     2  C   -0.024238   0.397099   0.394614  -0.045249   0.005217  -0.011742
     3  C   -0.002931  -0.076750  -0.071886   0.328653  -0.027611  -0.030070
     4  C    0.001663   0.010313   0.000138  -0.033935   0.362376   0.362816
     5  C   -0.006434  -0.000275  -0.002928  -0.003985  -0.036725  -0.037538
     6  C   -0.000080  -0.008514  -0.016197  -0.033884   0.001209  -0.002240
     7  C    0.000006   0.002599   0.005223   0.003400   0.000148   0.002869
     8  C   -0.000021  -0.000641   0.001326   0.000107  -0.000005  -0.000010
     9  C   -0.000361  -0.024389  -0.017098  -0.000011   0.000004  -0.000028
    10  C    0.000152   0.004514   0.002728   0.000017   0.000000   0.000001
    11  C   -0.000002  -0.000283  -0.000139  -0.000001  -0.000000  -0.000000
    12  O    0.000000  -0.000001   0.000000   0.000000   0.000000   0.000000
    13  C   -0.000000  -0.000000  -0.000000  -0.000000   0.000000  -0.000000
    14  C    0.000000  -0.000185   0.000080   0.000015   0.000000   0.000001
    15  O    0.000000   0.000088   0.000032  -0.000078   0.004061  -0.000733
    16  O   -0.000000  -0.000000  -0.000002  -0.000104  -0.000077  -0.000026
    17  H   -0.042840  -0.017234  -0.010039  -0.000212   0.000009  -0.000005
    18  H   -0.026668   0.000372   0.007643   0.002052  -0.000003   0.000031
    19  H    0.607361   0.008264  -0.002494  -0.000086  -0.000057  -0.000004
    20  H    0.008264   0.713634  -0.007995  -0.002621  -0.000507   0.000092
    21  H   -0.002494  -0.007995   0.696307   0.011339  -0.000546   0.009801
    22  H   -0.000086  -0.002621   0.011339   0.694471  -0.006104   0.006994
    23  H   -0.000057  -0.000507  -0.000546  -0.006104   0.644322  -0.037538
    24  H   -0.000004   0.000092   0.009801   0.006994  -0.037538   0.644884
    25  H   -0.000332  -0.000145   0.000717   0.005633  -0.000411   0.005801
    26  H    0.000107  -0.000032  -0.000158  -0.000137  -0.005651   0.000703
    27  H    0.005854   0.000282   0.001138  -0.000071   0.004886  -0.008676
    28  H   -0.000000  -0.000051  -0.000076  -0.000129   0.000007  -0.000030
    29  H   -0.000004  -0.000081  -0.000386  -0.000007   0.000001  -0.000017
    30  H   -0.000145  -0.020140  -0.003542  -0.000405   0.000003  -0.000013
    31  H    0.000264  -0.005828  -0.028035  -0.000123   0.000004  -0.000079
    32  H    0.000025   0.000547   0.000126  -0.000002  -0.000000  -0.000000
    33  H   -0.000048  -0.000149  -0.000151   0.000000   0.000000   0.000000
    34  H    0.000000   0.000029   0.000002   0.000000  -0.000000   0.000000
    35  H    0.000000   0.000000   0.000000   0.000000  -0.000000   0.000000
    36  H    0.000000   0.000000   0.000000  -0.000000  -0.000000  -0.000000
    37  H   -0.000000  -0.000000   0.000000   0.000000  -0.000000   0.000000
    38  H   -0.000000  -0.000013   0.000002  -0.000006   0.000000  -0.000000
    39  H   -0.000000  -0.000001   0.000003  -0.000000   0.000000  -0.000000
    40  H    0.000000   0.000000   0.000000   0.000003   0.000007   0.000001
              25         26         27         28         29         30
     1  C    0.001118   0.000394  -0.005609   0.000002   0.000004  -0.000288
     2  C   -0.005226   0.000613   0.000279   0.000133  -0.000159  -0.021283
     3  C   -0.004462   0.003481  -0.005139   0.004583   0.000177   0.002874
     4  C   -0.029749  -0.021349  -0.022896  -0.000073   0.000033  -0.000011
     5  C    0.380421   0.369021   0.382563   0.000002  -0.000000   0.000007
     6  C    0.000327  -0.000074  -0.000067  -0.010298   0.000310   0.002309
     7  C    0.000011   0.000000   0.000005   0.342818  -0.041102  -0.009249
     8  C   -0.000000   0.000000   0.000000  -0.059876   0.354965  -0.059541
     9  C   -0.000002   0.000000  -0.000016   0.003692  -0.040809   0.393950
    10  C    0.000000  -0.000000   0.000001  -0.000159   0.000871  -0.066590
    11  C   -0.000000   0.000000  -0.000000   0.000004  -0.000494   0.005280
    12  O    0.000000   0.000000   0.000000   0.000000   0.001517   0.000100
    13  C   -0.000000   0.000000  -0.000000  -0.000001   0.000194   0.000047
    14  C    0.000000  -0.000000  -0.000000  -0.003678  -0.039331  -0.000191
    15  O   -0.000005  -0.000000  -0.000002  -0.013559  -0.000022  -0.000058
    16  O   -0.000000  -0.000000   0.000000   0.014143   0.000001   0.000000
    17  H    0.000089  -0.000015   0.000242  -0.000000   0.000010   0.001370
    18  H    0.001417  -0.000038   0.000216  -0.000000   0.000000   0.000071
    19  H   -0.000332   0.000107   0.005854  -0.000000  -0.000004  -0.000145
    20  H   -0.000145  -0.000032   0.000282  -0.000051  -0.000081  -0.020140
    21  H    0.000717  -0.000158   0.001138  -0.000076  -0.000386  -0.003542
    22  H    0.005633  -0.000137  -0.000071  -0.000129  -0.000007  -0.000405
    23  H   -0.000411  -0.005651   0.004886   0.000007   0.000001   0.000003
    24  H    0.005801   0.000703  -0.008676  -0.000030  -0.000017  -0.000013
    25  H    0.600326  -0.030774  -0.036568  -0.000000   0.000000   0.000000
    26  H   -0.030774   0.619526  -0.035721  -0.000000   0.000000   0.000000
    27  H   -0.036568  -0.035721   0.598474  -0.000000  -0.000000  -0.000004
    28  H   -0.000000  -0.000000  -0.000000   0.606823   0.000615   0.000313
    29  H    0.000000   0.000000  -0.000000   0.000615   0.679538   0.009389
    30  H    0.000000   0.000000  -0.000004   0.000313   0.009389   0.707914
    31  H   -0.000001   0.000001  -0.000059  -0.000122  -0.006521  -0.020239
    32  H   -0.000000  -0.000000   0.000000   0.000003  -0.000232  -0.025016
    33  H    0.000000   0.000000  -0.000000   0.000003   0.001196   0.008522
    34  H    0.000000  -0.000000   0.000000   0.000006  -0.000132  -0.001477
    35  H    0.000000  -0.000000   0.000000   0.000000  -0.000008  -0.000000
    36  H   -0.000000  -0.000000  -0.000000  -0.000003  -0.000141  -0.000011
    37  H    0.000000  -0.000000   0.000000   0.000000   0.000005   0.000002
    38  H   -0.000000   0.000000  -0.000000   0.000970   0.006443   0.005606
    39  H   -0.000000  -0.000000   0.000000   0.001775  -0.006798  -0.000186
    40  H    0.000000   0.000000   0.000000  -0.000393   0.000000   0.000000
              31         32         33         34         35         36
     1  C    0.000111  -0.000225  -0.000018   0.000000   0.000000   0.000000
     2  C   -0.024411   0.000455  -0.000077   0.000004   0.000000   0.000000
     3  C    0.003746  -0.000020   0.000005   0.000000   0.000000  -0.000000
     4  C   -0.000265   0.000000  -0.000000   0.000000   0.000000   0.000000
     5  C    0.000058   0.000000   0.000000  -0.000000  -0.000000  -0.000000
     6  C    0.001214  -0.000014  -0.000012  -0.000004  -0.000000  -0.000000
     7  C   -0.000480  -0.000025  -0.000086   0.000073   0.000000  -0.000035
     8  C   -0.054324   0.004998  -0.002353   0.006912  -0.000008  -0.000081
     9  C    0.396954  -0.024978  -0.022037   0.000976   0.000014   0.000273
    10  C   -0.076967   0.365424   0.355016  -0.033466  -0.000490  -0.000360
    11  C    0.010140  -0.022314  -0.014404   0.337341   0.006130   0.000779
    12  O   -0.000194   0.002242   0.002093  -0.030405  -0.020600  -0.039236
    13  C    0.000041  -0.000344   0.000702  -0.012120   0.379628   0.366198
    14  C    0.013078   0.003527   0.002284  -0.065764   0.000002   0.005439
    15  O   -0.000004  -0.000000  -0.000000  -0.000000   0.000000   0.000000
    16  O    0.000000  -0.000000  -0.000000  -0.000000  -0.000000   0.000000
    17  H    0.005134   0.001224   0.000969  -0.000009  -0.000000   0.000000
    18  H   -0.000309   0.000004   0.000000   0.000000   0.000000   0.000000
    19  H    0.000264   0.000025  -0.000048   0.000000   0.000000   0.000000
    20  H   -0.005828   0.000547  -0.000149   0.000029   0.000000   0.000000
    21  H   -0.028035   0.000126  -0.000151   0.000002   0.000000   0.000000
    22  H   -0.000123  -0.000002   0.000000   0.000000   0.000000  -0.000000
    23  H    0.000004  -0.000000   0.000000  -0.000000  -0.000000  -0.000000
    24  H   -0.000079  -0.000000   0.000000   0.000000   0.000000  -0.000000
    25  H   -0.000001  -0.000000   0.000000   0.000000   0.000000  -0.000000
    26  H    0.000001  -0.000000   0.000000  -0.000000  -0.000000  -0.000000
    27  H   -0.000059   0.000000  -0.000000   0.000000   0.000000  -0.000000
    28  H   -0.000122   0.000003   0.000003   0.000006   0.000000  -0.000003
    29  H   -0.006521  -0.000232   0.001196  -0.000132  -0.000008  -0.000141
    30  H   -0.020239  -0.025016   0.008522  -0.001477  -0.000000  -0.000011
    31  H    0.725626   0.002477  -0.012684  -0.000621  -0.000003  -0.000002
    32  H    0.002477   0.663411  -0.048424  -0.007215   0.000008   0.000002
    33  H   -0.012684  -0.048424   0.625287   0.004575  -0.000047   0.000034
    34  H   -0.000621  -0.007215   0.004575   0.729726   0.000302  -0.002210
    35  H   -0.000003   0.000008  -0.000047   0.000302   0.588348  -0.036925
    36  H   -0.000002   0.000002   0.000034  -0.002210  -0.036925   0.649406
    37  H   -0.000001   0.000035   0.000091   0.016896  -0.033061  -0.050482
    38  H   -0.000161  -0.000175  -0.000122  -0.003321   0.000006  -0.001036
    39  H   -0.000596  -0.000116  -0.000071   0.003864  -0.000002   0.005405
    40  H   -0.000000   0.000000   0.000000   0.000000   0.000000  -0.000000
              37         38         39         40
     1  C    0.000000   0.000000   0.000000  -0.000000
     2  C   -0.000000  -0.000010  -0.000001  -0.000001
     3  C    0.000000   0.000038  -0.000001  -0.000117
     4  C   -0.000000   0.000001   0.000000   0.000015
     5  C    0.000000   0.000000  -0.000000  -0.000000
     6  C    0.000000   0.001318  -0.000037   0.002353
     7  C    0.000003  -0.001768   0.001305  -0.000351
     8  C    0.000156  -0.030444  -0.023298  -0.000024
     9  C   -0.000138  -0.006418   0.006298   0.000000
    10  C    0.000815   0.003788   0.004932  -0.000000
    11  C   -0.010702  -0.017400  -0.020398  -0.000000
    12  O   -0.034043   0.002605  -0.004642   0.000000
    13  C    0.371283   0.000103  -0.002823   0.000000
    14  C   -0.002660   0.337633   0.344902   0.000000
    15  O   -0.000000  -0.000022   0.000000  -0.034129
    16  O    0.000000   0.000003  -0.000001   0.294185
    17  H   -0.000000  -0.000003  -0.000000   0.000000
    18  H   -0.000000  -0.000000  -0.000000   0.000000
    19  H   -0.000000  -0.000000  -0.000000   0.000000
    20  H   -0.000000  -0.000013  -0.000001   0.000000
    21  H    0.000000   0.000002   0.000003   0.000000
    22  H    0.000000  -0.000006  -0.000000   0.000003
    23  H   -0.000000   0.000000   0.000000   0.000007
    24  H    0.000000  -0.000000  -0.000000   0.000001
    25  H    0.000000  -0.000000  -0.000000   0.000000
    26  H   -0.000000   0.000000  -0.000000   0.000000
    27  H    0.000000  -0.000000   0.000000   0.000000
    28  H    0.000000   0.000970   0.001775  -0.000393
    29  H    0.000005   0.006443  -0.006798   0.000000
    30  H    0.000002   0.005606  -0.000186   0.000000
    31  H   -0.000001  -0.000161  -0.000596  -0.000000
    32  H    0.000035  -0.000175  -0.000116   0.000000
    33  H    0.000091  -0.000122  -0.000071   0.000000
    34  H    0.016896  -0.003321   0.003864   0.000000
    35  H   -0.033061   0.000006  -0.000002   0.000000
    36  H   -0.050482  -0.001036   0.005405  -0.000000
    37  H    0.641523   0.000127   0.000533   0.000000
    38  H    0.000127   0.636985  -0.033912   0.000000
    39  H    0.000533  -0.033912   0.623798   0.000000
    40  H    0.000000   0.000000   0.000000   0.417106
 Mulliken charges:
               1
     1  C   -0.441565
     2  C   -0.003680
     3  C   -0.180988
     4  C   -0.169313
     5  C   -0.369484
     6  C    0.331711
     7  C   -0.228414
     8  C   -0.073469
     9  C   -0.055544
    10  C   -0.284979
    11  C    0.132976
    12  O   -0.236615
    13  C   -0.229207
    14  C   -0.256343
    15  O   -0.224221
    16  O   -0.297509
    17  H    0.122262
    18  H    0.109854
    19  H    0.115379
[...]
 00000224,-0.00000103,-0.00000460,0.00000434,0.00000222,0.00000458,0.00
 000338,0.00001056,0.00000012,-0.00000846,-0.00001253,0.00000716,0.0000
 0334,0.00000617,0.00000698,0.00001390,-0.00000679,-0.00002168,-0.00003
 117,0.00000846,0.00000579,-0.00000682,0.00000227,0.00000063,0.00001164
 ,0.00000994,0.00000682,0.00000061,-0.00000634,-0.00001552,0.00001115,-
 0.00001491,0.00008053,-0.00012568,0.00004861,-0.00000082,0.00002615,-0
 .00005207,0.00003603,0.00010167,0.00001484,-0.00002219,0.00000034,-0.0
 0008828,0.00020753,0.00011350,0.00008806,0.00037831,-0.00045579,0.0000
 3887,0.00335729,0.00395303,-0.00029520,0.12277193,0.22997333,0.0000027
 7,0.00000323,-0.00000034,0.00000105,-0.00000985,0.00000306,-0.00000765
 ,0.00000395,-0.00000150,0.00000512,0.00000241,-0.00000748,0.00000822,0
 .00000188,0.00001433,-0.00000189,0.00002898,-0.00000215,0.00007099,0.0
 0000231,0.00001672,-0.00011321,0.00005477,0.00008156,0.00009418,-0.000
 15905,-0.00005415,-0.00005212,-0.00011069,-0.00052678,-0.00184206,-0.0
 0162102,0.00444031,-0.02357700,-0.02532970,-0.00256630,0.02808250,0.04
 001148,-0.06066238,-0.00037350,0.00032417,-0.00038064,-0.00001130,-0.0
 0002597,0.00001022,0.00000418,-0.00000367,-0.00000071,0.00000067,-0.00
 000147,-0.00000061,-0.00000117,0.00000041,-0.00000079,0.00000120,-0.00
 000098,-0.00000023,-0.00000238,-0.00000108,0.00000039,0.00000298,0.000
 00029,-0.00000319,0.00000194,-0.00000052,-0.00000042,0.00000173,0.0000
 0549,0.,-0.00001699,0.00001352,0.00001862,-0.00000016,-0.00000068,-0.0
 0000923,-0.00000310,-0.00001343,-0.00000824,0.00000508,-0.00000292,-0.
 00000087,-0.00000288,0.00000166,-0.00001391,0.00003122,-0.00004183,-0.
 00000967,-0.00000775,0.00008112,-0.00003781,0.00001233,0.00001769,0.00
 001720,0.00001574,-0.00000186,-0.00015870,0.00031158,0.00019845,0.0000
 5934,0.00017120,-0.00018903,-0.00049704,0.01291324,0.02200811,-0.00312
 567,-0.01870871,-0.03738426,0.06315823,0.00001521,-0.00000280,-0.00000
 937,0.00000104,-0.00001645,0.00004258,0.00001124,-0.00002157,-0.000006
 77,-0.00001330,0.00000145,0.00000072,-0.00000093,-0.00000531,0.0000010
 5,0.00001899,-0.00015886,0.00005064,-0.00001820,-0.00003730,-0.0000025
 5,-0.00005767,0.00011721,0.00021636,0.00009884,-0.00001656,0.00015061,
 0.00017950,-0.00041359,0.00011500,-0.00054277,0.00004997,0.00520032,-0
 .02375719,0.01529333,-0.01914242,-0.12892530,0.10954225,-0.01106798,0.
 00004088,-0.00033690,-0.00032393,0.00001021,0.00013769,-0.00009432,0.0
 0001493,0.00003069,-0.00001959,-0.00000429,-0.00000265,0.00000226,-0.0
 0000629,0.00000973,-0.00000603,-0.00000555,0.00000985,0.00000478,0.000
 01349,0.00000445,0.00001507,0.00000570,-0.00000900,-0.00002918,-0.0000
 0030,0.00001643,0.00000312,0.00000433,0.00001174,-0.00000890,-0.000027
 54,-0.00001070,-0.00002064,0.00000014,0.00000619,-0.00000146,0.0000010
 6,0.00001025,0.00001539,0.00000596,-0.00000407,-0.00000273,0.00000286,
 0.00002517,-0.00001603,0.00011363,-0.00019668,0.00003533,0.00001723,-0
 .00000738,-0.00003382,-0.00001890,0.00000645,0.00000334,-0.00000628,-0
 .00003767,-0.00019307,0.00010215,0.00018713,0.00010169,0.00116034,-0.0
 0066661,-0.00134734,-0.00909978,0.01512720,-0.00100411,0.01112178,-0.0
 1338077,0.00263501,0.14939387,-0.00000907,0.00000151,0.00000598,-0.000
 00856,0.00001322,-0.00002363,-0.00000457,-0.00003681,-0.00000535,-0.00
 002367,0.00011113,-0.00005713,-0.00000184,-0.00001242,0.00002303,0.000
 02315,0.00006874,-0.00005315,0.00003789,0.00001410,-0.00000827,-0.0000
 2877,0.00005956,-0.00015212,-0.00007918,0.00000720,-0.00000207,-0.0002
 4631,0.00027018,0.00020124,-0.00108868,0.00129258,-0.00070001,-0.00164
 234,0.01176098,0.00192858,0.11232521,-0.20709719,0.01721142,-0.0001241
 4,-0.00054058,-0.00009414,0.00000102,-0.00005383,0.00004103,-0.0000305
 5,-0.00001191,0.00002951,0.00000848,0.00000324,-0.00000279,0.00000470,
 -0.00000755,0.00000714,-0.00000365,0.00000087,-0.00000189,0.00000435,0
 .00000234,0.00000622,-0.00000891,-0.00000952,0.00001352,0.00001497,-0.
 00000583,0.00002071,-0.00000060,-0.00001218,0.00000815,-0.00000087,-0.
 00004808,-0.00000182,0.00001465,-0.00002551,0.00000763,0.00000148,0.00
 002365,0.00000490,-0.00000823,0.00000727,-0.00000749,-0.00000807,0.000
 00025,0.00000468,-0.00005621,0.00000403,0.00001319,-0.00000514,0.00000
 135,0.00001416,0.00001319,0.00003682,-0.00001528,0.00008159,0.00004336
 ,0.00008860,-0.00007278,-0.00005775,-0.00009397,-0.00010218,0.00004289
 ,0.00152589,0.00050227,-0.00235793,0.00051697,0.01582422,-0.02165964,0
 .00094222,-0.12556513,0.21799989,0.00000556,-0.00000296,-0.00000273,-0
 .00000029,0.00000256,0.00000618,0.00000425,-0.00000970,0.00000035,-0.0
 0000720,-0.00000369,-0.00000207,0.00000809,0.00000054,-0.00000514,0.00
 001797,-0.00007045,0.00002570,0.00004707,-0.00005293,-0.00002215,-0.00
 007193,0.00001728,0.00012536,0.00010637,-0.00002656,0.00012649,-0.0000
 5415,-0.00021552,0.00021922,-0.00527686,0.00445288,0.00500943,-0.02596
 266,0.01731729,-0.01602359,-0.00833430,0.01547448,-0.05273482,0.000605
 46,-0.00038015,-0.00043552,0.,0.00005078,-0.00003998,0.00000062,0.0000
 1589,-0.00000505,-0.00000338,-0.00000054,-0.00000097,-0.00000218,0.000
 00238,0.00000082,-0.00000335,0.00000773,0.00000129,0.00000781,0.000000
 86,0.00001308,0.00000389,-0.00001023,-0.00001245,-0.00000123,0.0000057
 6,0.00000186,-0.00000217,-0.00000031,0.00000351,0.00000370,-0.00000572
 ,-0.00002151,-0.00000356,-0.00000096,0.00000828,0.00000609,0.00001262,
 0.00000753,-0.00001243,0.00000183,-0.00000427,-0.00000141,0.00002408,-
 0.00001331,0.00011137,-0.00015555,0.00001528,0.00000515,0.00000253,-0.
 00001935,-0.00000149,-0.00001526,0.00002493,0.00008206,-0.00004359,-0.
 00009922,0.00014137,0.00004116,0.00004536,0.00170964,-0.00114805,0.000
 57347,0.01432668,-0.02099271,0.00460795,-0.00243475,0.00708309,0.00126
 475,0.02489023,-0.02153044,0.05739715,0.00009232,0.00006064,-0.0000720
 6,-0.00013718,-0.00004679,0.00013753,-0.00009698,-0.00015039,0.0000462
 4,0.00007934,-0.00006749,-0.00000207,-0.00001276,0.00001214,-0.0000310
 2,0.00022494,0.00021655,-0.00023801,0.00130790,-0.00166368,0.00135607,
 -0.02016966,0.00773003,0.01936668,0.00091956,0.00078335,0.00101803,0.0
 0037931,-0.00051379,-0.00028383,-0.00567251,0.00445385,0.00456445,0.00
 050460,-0.00133988,0.00096574,-0.00054859,-0.00029294,-0.00052342,-0.1
 5584084,0.03625885,0.11832766,-0.00008192,-0.00004533,0.00002182,0.000
 04949,-0.00000610,-0.00001634,0.00000314,-0.00001076,0.00000430,-0.000
 04187,0.00003903,-0.00001357,-0.00002272,0.00002398,0.00000604,0.00003
 537,0.00000307,0.00008236,0.00004270,0.00002861,-0.00019542,0.00001795
 ,0.00002290,-0.00002023,0.00002187,0.00005905,-0.00000072,-0.00009677,
 -0.00000875,-0.00006678,-0.00000640,0.00001253,0.00000621,0.00000813,0
 .00000117,0.00000289,0.00001341,-0.00000791,-0.00001328,0.00028075,0.0
 0043913,-0.00091426,-0.00411921,0.00142480,-0.00285653,-0.00012103,-0.
 00039235,-0.00076207,0.00038455,-0.00002907,-0.00035511,-0.00019558,-0
 .00036490,0.00000262,0.00012153,0.00010354,-0.00002809,0.00081462,-0.0
 0040235,-0.00023460,0.00008714,0.00004006,0.00008499,0.00019240,0.0001
 2898,0.00014363,0.00011462,0.00004896,0.00010730,0.17222474,-0.0000605
 4,-0.00004135,0.00004037,0.00007868,0.00003375,-0.00004495,0.00009545,
 0.00004133,-0.00000944,-0.00006871,0.00020590,-0.00010680,0.00002010,-
 0.00003596,0.00008132,-0.00011515,-0.00026771,0.00013340,-0.00025566,0
 .00066206,-0.00160747,0.01041560,-0.00491327,-0.00951164,-0.00077682,0
 .00021241,-0.00000596,0.00062371,-0.00043900,-0.00060944,-0.01610140,0
 .00868525,0.01806575,-0.00360419,-0.00436804,0.00561821,-0.00129085,-0
 .00062104,-0.00113338,0.03661820,-0.06082044,-0.04368545,0.00007190,0.
 00007365,-0.00006993,-0.00006369,0.00005259,0.00000121,-0.00000237,0.0
 0000829,-0.00000076,0.00002774,-0.00002261,0.00000823,0.00001240,-0.00
 001496,-0.00000344,-0.00001674,0.00000313,-0.00005558,-0.00004591,-0.0
 0001575,0.00011582,0.00000839,-0.00001612,0.00003497,-0.00001498,-0.00
 003933,-0.00000475,-0.00002158,0.00001352,0.00011864,0.00002084,-0.000
 02800,-0.00001644,-0.00001046,0.00000867,0.00000320,-0.00000273,0.0000
 0480,0.00000364,-0.00009932,-0.00002731,0.00063275,0.00268396,-0.00017
 415,0.00205421,-0.00011195,0.00043486,0.00011243,-0.00003430,-0.000059
 29,0.00010274,-0.00046727,-0.00015781,-0.00019589,0.00031800,0.0001188
 8,0.00011352,0.00075203,0.00148126,-0.00013704,0.00019522,0.00008850,0
 .00017775,0.00043115,0.00028092,0.00018680,0.00019466,0.00009443,0.000
 18710,-0.04352192,0.06439311,0.00002785,0.00003642,-0.00000483,-0.0000
 6378,0.00001665,-0.00000842,-0.00004013,-0.00001952,-0.00001336,0.0000
 1539,0.00009490,-0.00007564,-0.00000321,-0.00001744,0.00002416,-0.0000
 0945,0.00015858,0.00002300,-0.00034147,0.00002889,0.00154546,-0.009744
 29,0.00327150,0.00940728,0.00017891,0.00036036,0.00070517,0.00004387,0
 .00020756,-0.00006862,0.00864661,-0.00707961,-0.01104925,0.00183893,0.
 00420111,-0.00341089,0.00130739,0.00020795,0.00141937,0.11782031,-0.04
 237059,-0.17464799,-0.00010730,-0.00020913,0.00009180,-0.00003045,-0.0
 0002605,0.00002229,0.00000488,-0.00000288,-0.00000119,-0.00000936,0.00
 000554,0.00000169,-0.00001436,0.00001209,-0.00000014,0.00001902,0.0000
 2029,0.00005220,0.00000512,-0.00000310,-0.00005177,0.00001468,0.000011
 57,0.00002063,0.00000221,-0.00000068,0.00000709,-0.00004373,-0.0000239
 5,0.00001234,0.00001241,-0.00001944,-0.00000017,0.00000305,0.00001203,
 0.00000067,-0.00000263,0.00000274,-0.00000854,0.00029550,-0.00039945,0
 .00007594,-0.00282981,0.00104722,-0.00039867,0.00018647,0.00004697,0.0
 0006516,0.00016032,0.00016198,0.00008274,0.00014556,0.00016891,0.00022
 836,-0.00008520,0.00010161,-0.00006847,-0.00079137,-0.00002878,0.00031
 230,-0.00002147,0.00001898,-0.00008405,-0.00012153,-0.00028449,0.00039
 716,-0.00014822,0.00014381,-0.00017445,-0.12963013,0.04443997,0.190044
 44,0.00000590,0.00000615,0.00002248,-0.00004987,-0.00000529,-0.0000523
 9,0.00002046,-0.00017365,-0.00004611,-0.00005357,0.00043197,-0.0003021
 3,0.00003333,-0.00007781,0.00018201,0.00020048,0.00022995,-0.00009512,
 0.00022696,-0.00062760,0.00108079,-0.00923657,-0.01705377,-0.01480092,
 -0.00458051,0.00067651,-0.00127637,-0.00120534,-0.00065036,-0.00084450
 ,-0.00422546,-0.00410477,-0.00415497,0.00022934,0.00068956,-0.00077844
 ,-0.00004329,-0.00052993,0.00002692,-0.09269839,-0.07116381,-0.0698732
 7,-0.00003041,0.00023587,-0.00018782,-0.00004258,0.00002256,0.00002598
 ,0.00001046,0.00000176,-0.00000530,0.00000190,-0.00000328,0.00000060,-
 0.00002172,0.00002201,0.00000549,0.00004588,0.00001206,0.00006138,-0.0
 0001596,-0.00002464,-0.00000240,0.00005356,0.00001988,0.00006499,0.000
 00751,-0.00000457,0.00000900,-0.00017427,-0.00009817,0.00021506,0.0000
 4624,-0.00006280,-0.00003511,-0.00000642,0.00003092,0.00001356,0.00001
 105,0.00000466,-0.00002587,-0.00004008,0.00008733,-0.00008527,0.001215
 47,-0.00045052,0.00071006,-0.00000947,-0.00016642,-0.00037049,-0.00060
 858,-0.00127041,-0.00083148,-0.00025117,-0.00034244,-0.00010817,-0.000
 15257,-0.00037830,-0.00012531,-0.00001275,-0.00022151,0.00020631,0.000
 11254,0.00011127,0.00004989,0.00050665,0.00024008,0.00020572,0.0000507
 4,0.00019848,-0.00001288,0.00924511,0.01410586,0.01327318,0.10143173,0
 .00000269,-0.00000710,0.00000414,0.00000623,0.00001537,-0.00000197,0.0
 0002502,0.00002524,0.00005105,-0.00001837,-0.00008926,0.00000885,0.000
 00919,-0.00000038,-0.00004225,-0.00010420,-0.00039266,-0.00013346,-0.0
 0020545,0.00119698,-0.00044025,0.00573390,0.00872275,0.00987749,0.0023
 8220,-0.00152771,0.00173205,-0.00150042,-0.00260307,0.00300756,-0.0102
 3871,-0.01497599,-0.01964003,0.00162445,0.00296010,-0.00045604,-0.0007
 6600,-0.00077881,-0.00040818,-0.07357549,-0.15806244,-0.10694690,0.000
 04453,0.00016667,-0.00008438,0.00001738,-0.00000741,-0.00000332,-0.000
 00470,-0.00000050,-0.00000032,0.00000084,0.00000072,-0.00000046,-0.000
 00108,0.00000624,0.00000163,-0.00000095,0.00000473,0.00000673,-0.00001
 340,-0.00000200,-0.00000366,-0.00000591,0.00000092,-0.00000556,0.00001
 356,-0.00001554,0.00000483,0.00004965,0.00004648,-0.00007686,-0.000010
 11,0.00000466,0.00001410,0.00000495,0.00000879,0.00001231,-0.00001086,
 0.00000227,0.00000146,0.00003501,-0.00002689,0.00004768,-0.00097312,0.
 00056071,-0.00045130,0.00007009,0.00002918,-0.00002044,0.00029599,0.00
 086371,0.00011278,-0.00019749,-0.00015436,-0.00023366,-0.00094782,-0.0
 0060017,-0.00089289,0.00015156,-0.00035843,0.00061306,0.00033886,0.000
 39140,0.00005568,0.00043115,0.00060892,0.00100349,0.00013208,0.0000653
 8,-0.00002663,-0.00306961,-0.00476294,-0.00426276,0.08029037,0.1686871
 0,0.00001880,0.00001856,-0.00000595,-0.00004330,-0.00003191,0.00001279
 ,-0.00001640,-0.00004302,-0.00006730,-0.00001536,0.00007771,-0.0000884
 2,0.00003590,-0.00001129,0.00008276,0.00000561,0.00038970,0.00007423,0
 .00040856,-0.00062061,0.00055810,-0.00322220,-0.00864689,-0.00793179,-
 0.00261776,0.00182348,-0.00025647,0.00137879,0.00256103,-0.00134847,0.
 00727321,0.01040745,0.01071651,-0.00141953,-0.00172503,0.00127349,0.00
 038227,0.00080865,-0.00117106,-0.07079889,-0.10799064,-0.15090017,0.00
 001272,0.00014378,-0.00006737,-0.00000771,0.00003146,0.00000011,0.0000
 1093,-0.00000226,-0.00000211,-0.00000772,0.00000577,-0.00000340,-0.000
 01506,0.00001459,0.00000537,0.00003119,0.00000327,0.00004437,0.0000091
 7,-0.00000823,-0.00003844,0.00002294,0.00002090,0.00003162,0.00002432,
 0.00009522,-0.00003253,-0.00012196,-0.00006177,0.00011449,0.00001989,-
 0.00002637,-0.00001758,-0.00000739,0.00000677,0.00001014,0.00002792,-0
 .00000911,-0.00002259,-0.00012372,-0.00009450,-0.00004317,0.00035969,0
 .00040120,0.00104670,0.00025054,0.00024867,0.00030970,-0.00041295,-0.0
 0088621,-0.00010663,0.00018642,0.00008806,0.00015826,0.00059026,0.0002
 8635,0.00044801,-0.00028488,-0.00038196,-0.00008389,0.00008084,-0.0001
 3838,0.00011291,0.00014036,0.00071235,-0.00141093,-0.00001461,0.000003
 83,0.00013440,-0.00998156,-0.01506373,-0.01448520,0.07785835,0.1175839
 7,0.16299919,0.00002685,0.00008786,-0.00002344,-0.00012108,-0.00017875
 ,-0.00019440,0.00059214,0.00060885,0.00023195,0.00003474,-0.00006930,0
 .00015611,-0.00002714,-0.00000550,-0.00001630,-0.00171362,-0.00258073,
 0.00068143,-0.00061516,0.00066453,-0.00028059,-0.00020996,-0.00025568,
 -0.00001320,-0.00005333,-0.00003450,-0.00004632,0.00001333,0.00000184,
 0.00001694,-0.00006188,-0.00001969,0.00003312,-0.00004425,0.00002132,-
 0.00008648,0.00006015,-0.00000216,0.00005948,0.00015497,0.00009964,-0.
 00009429,-0.02488206,0.00190679,0.00238312,-0.37516879,-0.10567057,-0.
 14746166,0.00005184,-0.00001461,-0.00000011,-0.00001150,-0.00001216,0.
 00000598,-0.00000244,-0.00001454,-0.00000155,-0.00002336,0.00001646,0.
 00002400,0.00008005,0.00004681,-0.00002594,-0.00006166,-0.00003148,0.0
 0005345,0.00002020,-0.00000183,0.00002195,0.00000849,0.00002870,0.0000
 0347,0.00000284,0.00000101,0.00000535,-0.00000206,-0.00002279,-0.00004
 501,0.00001218,0.00000159,-0.00000082,0.00012972,-0.00047527,0.0001392
 6,0.00000417,0.00004435,-0.00006235,-0.00000714,-0.00000557,0.00001486
 ,-0.00000482,-0.00000575,-0.00000569,-0.00000965,0.00002974,-0.0000095
 3,0.00000082,0.00000995,-0.00000905,-0.00000460,0.00004917,-0.00003060
 ,-0.00000094,-0.00000346,-0.00000603,-0.00000226,-0.00000561,-0.000000
 39,-0.00001446,0.00001484,-0.00000444,-0.00000150,0.00001266,0.0000362
 1,0.00000368,-0.00001602,-0.00001768,0.40184750,0.00000917,0.00006755,
 -0.00004222,-0.00000312,-0.00014874,-0.00008481,-0.00015348,0.00004141
 ,-0.00008038,0.00032772,0.00015630,-0.00002465,-0.00010550,-0.00000498
 ,-0.00005010,-0.00183340,0.00026693,0.00003007,0.00064240,0.00040910,0
 .00076184,0.00035651,-0.00030270,0.00012931,-0.00007748,0.00001342,-0.
 00011059,0.00004169,0.00003404,0.00002496,-0.00006113,-0.00012114,0.00
 016637,0.00000707,0.00003190,-0.00025153,0.00009115,0.00000126,0.00012
 498,-0.00000287,0.00009151,0.00009269,0.02375107,0.00011789,-0.0011724
 8,-0.12816556,-0.04480291,-0.06898144,0.00004106,-0.00001455,-0.000000
 12,0.00000336,-0.00001127,0.00001744,0.00001345,-0.00002295,-0.0000115
 0,-0.00006159,-0.00003064,-0.00002342,0.00003777,0.00001391,-0.0000040
 5,0.00010772,0.00005122,-0.00003229,-0.00009235,0.00000470,-0.00003552
 ,-0.00004973,-0.00005650,0.00002556,0.00004265,-0.00003063,0.00000285,
 0.00001525,-0.00002652,-0.00005315,-0.00000674,-0.00000282,0.00001953,
 -0.00073120,-0.00097794,-0.00041963,0.00006283,0.00010599,-0.00015037,
 -0.00002644,-0.00003019,-0.00001657,0.00004186,0.00000975,-0.00001667,
 -0.00001726,0.00003366,-0.00001220,0.00001315,0.00002307,-0.00001992,-
 0.00000379,0.00003805,-0.00003039,0.00000787,0.00000069,-0.00002669,-0
 .00001367,0.00000168,0.00000558,-0.00002390,0.00001175,-0.00000889,0.0
 0004280,-0.00007221,-0.00002975,-0.00000719,-0.00000268,0.00000915,0.1
 0577985,0.04513358,0.00000355,-0.00000867,0.00002129,-0.00006287,-0.00
 000158,-0.00006183,-0.00058643,0.00008925,-0.00125646,0.00062551,0.000
 17216,-0.00018591,-0.00016168,-0.00004943,-0.00008944,0.00481574,-0.00
 437520,0.00154272,-0.00156226,0.00051470,-0.00006325,-0.00035532,0.000
 08662,-0.00025699,0.00002662,-0.00002830,0.00010030,-0.00001916,-0.000
 02344,-0.00002077,-0.00000055,0.00007441,-0.00008807,-0.00000685,-0.00
 003378,0.00009077,-0.00001941,0.00002724,-0.00004876,0.00002475,0.0000
 3261,0.00001639,0.04496722,0.00715003,-0.00065332,-0.19255350,-0.07478
 760,-0.11882497,-0.00001055,0.00000287,-0.00000437,-0.00001000,0.00000
 220,-0.00001416,-0.00000004,0.00000629,0.00000436,0.00004089,0.0000088
 9,0.00001321,0.00002457,0.00003807,-0.00001127,-0.00017439,0.00025631,
 0.00005427,-0.00011702,-0.00012618,-0.00006776,-0.00007000,-0.00000172
 ,-0.00008017,-0.00000178,0.00002274,0.00001236,0.00003246,-0.00002516,
 -0.00002681,-0.00003458,0.00002541,0.00003659,0.00062942,0.00076855,0.
 00053901,-0.00001987,-0.00004265,0.00004609,0.00000744,0.00000507,-0.0
 0001141,-0.00000669,-0.00000028,-0.00000459,0.00000830,-0.00002828,0.0
 0000835,-0.00000953,-0.00001076,0.00000480,0.00000859,-0.00001935,0.00
 001542,-0.00000514,-0.00000122,0.00001078,-0.00000324,-0.00000851,-0.0
 0000212,0.00000956,-0.00001285,0.00000417,-0.00000546,0.00003005,0.000
 01241,0.00000251,-0.00000752,-0.00004968,0.14456918,0.07027900,0.11928
 886\\0.00000828,-0.00000102,0.00000321,-0.00001548,-0.00000194,0.00000
 923,0.00001243,0.00001152,0.00000029,-0.00000379,-0.00000279,-0.000004
 85,-0.00000071,-0.00000097,0.00000475,-0.00000136,-0.00001097,0.000005
 41,-0.00000386,0.00001011,0.00000639,-0.00000369,-0.00001372,-0.000015
 81,0.00001309,0.00001538,0.00000857,-0.00000135,-0.00000532,-0.0000017
 3,0.00000229,0.00001006,-0.00000773,-0.00000146,-0.00000267,0.00000801
 ,-0.00000087,0.00000198,-0.00000270,-0.00000060,-0.00000113,0.00000609
 ,0.00000556,0.00000283,-0.00001183,0.00000275,0.00000518,0.00000819,-0
 .00000139,-0.00000014,-0.00000038,-0.00000086,0.00000064,0.00000010,-0
 .00000162,-0.00000059,-0.00000150,0.00000127,-0.00000204,-0.00000275,0
 .00000372,0.00000026,-0.00000249,-0.00000221,-0.00000353,-0.00000099,0
 .00000018,-0.00000008,0.00000421,-0.00000069,-0.00000051,0.00000144,-0
 .00000100,-0.00000043,-0.00000033,-0.00000109,-0.00000008,0.00000023,-
 0.00000133,-0.00000082,0.00000058,0.00000090,-0.00000325,0.00000122,-0
 .00000291,-0.00000076,0.00000579,-0.00000249,-0.00000377,-0.00000388,0
 .00000034,-0.00000041,-0.00000259,0.00000061,0.00000141,-0.00000166,0.
 00000166,0.00000218,-0.00000020,-0.00000055,0.00000019,-0.00000113,0.0
 0000006,-0.00000096,-0.00000103,-0.00000025,-0.00000112,0.,0.00000030,
 -0.00000068,-0.00000015,0.00000178,-0.00000131,-0.00000222,-0.00000040
 ,-0.00000035,-0.00000342,-0.00000526,-0.00000039,-0.00000438\\\@


 TIMES HAVE CHANGED. IN THE BIBLE WHEN AN ASS
 SPOKE IT WAS CONSIDERED A MIRACLE.
 Job cpu time:       0 days 17 hours  0 minutes 36.3 seconds.
 Elapsed time:       0 days  4 hours 17 minutes 24.6 seconds.
 File lengths (MBytes):  RWF=    916 Int=      0 D2E=      0 Chk=     27 Scr=      1
 Normal termination of Gaussian 16 at Mon May 22 14:39:11 2023.
### All Done ###
