### Starting Gaussian ###
 Entering Gaussian System, Link 0=g16
 Initial command:
 /cluster/software/gaussian/gaussian-16-A.03/avx2/g16/l1.exe "/local/scratch/linjian/Gau-6960.inp" -scrdir="/local/scratch/linjian/"
 Entering Link 1 = /cluster/software/gaussian/gaussian-16-A.03/avx2/g16/l1.exe PID=      6961.
  
 Copyright (c) 1988,1990,1992,1993,1995,1998,2003,2009,2016,
            Gaussian, Inc.  All Rights Reserved.
  
 This is part of the Gaussian(R) 16 program.  It is based on
 the Gaussian(R) 09 system (copyright 2009, Gaussian, Inc.),
 the Gaussian(R) 03 system (copyright 2003, Gaussian, Inc.),
 the Gaussian(R) 98 system (copyright 1998, Gaussian, Inc.),
 the Gaussian(R) 94 system (copyright 1995, Gaussian, Inc.),
 the Gaussian 92(TM) system (copyright 1992, Gaussian, Inc.),
 the Gaussian 90(TM) system (copyright 1990, Gaussian, Inc.),
 the Gaussian 88(TM) system (copyright 1988, Gaussian, Inc.),
 the Gaussian 86(TM) system (copyright 1986, Carnegie Mellon
 University), and the Gaussian 82(TM) system (copyright 1983,
 Carnegie Mellon University). Gaussian is a federally registered
 trademark of Gaussian, Inc.
  
 This software contains proprietary and confidential information,
 including trade secrets, belonging to Gaussian, Inc.
  
 This software is provided under written license and may be
 used, copied, transmitted, or stored only in accord with that
 written license.
  
 The following legend is applicable only to US Government
 contracts under FAR:
  
                    RESTRICTED RIGHTS LEGEND
  
 Use, reproduction and disclosure by the US Government is
 subject to restrictions as set forth in subparagraphs (a)
 and (c) of the Commercial Computer Software - Restricted
 Rights clause in FAR 52.227-19.
  
 Gaussian, Inc.
 340 Quinnipiac St., Bldg. 40, Wallingford CT 06492
  
  
 ---------------------------------------------------------------
 Warning -- This program may not be used in any manner that
 competes with the business of Gaussian, Inc. or will provide
 assistance to any competitor of Gaussian, Inc.  The licensee
 of this program is prohibited from giving any competitor of
 Gaussian, Inc. access to this program.  By using this program,
 the user acknowledges that Gaussian, Inc. is engaged in the
 business of creating and licensing software in the field of
 computational chemistry and represents and warrants to the
 licensee that it is not a competitor of Gaussian, Inc. and that
 it will not use this program in any manner prohibited above.
 ---------------------------------------------------------------
  

 Cite this work as:
 Gaussian 16, Revision A.03,
 M. J. Frisch, G. W. Trucks, H. B. Schlegel, G. E. Scuseria, 
 M. A. Robb, J. R. Cheeseman, G. Scalmani, V. Barone, 
 G. A. Petersson, H. Nakatsuji, X. Li, M. Caricato, A. V. Marenich, 
 J. Bloino, B. G. Janesko, R. Gomperts, B. Mennucci, H. P. Hratchian, 
 J. V. Ortiz, A. F. Izmaylov, J. L. Sonnenberg, D. Williams-Young, 
 F. Ding, F. Lipparini, F. Egidi, J. Goings, B. Peng, A. Petrone, 
 T. Henderson, D. Ranasinghe, V. G. Zakrzewski, J. Gao, N. Rega, 
 G. Zheng, W. Liang, M. Hada, M. Ehara, K. Toyota, R. Fukuda, 
 J. Hasegawa, M. Ishida, T. Nakajima, Y. Honda, O. Kitao, H. Nakai, 
 T. Vreven, K. Throssell, J. A. Montgomery, Jr., J. E. Peralta, 
 F. Ogliaro, M. J. Bearpark, J. J. Heyd, E. N. Brothers, K. N. Kudin, 
 V. N. Staroverov, T. A. Keith, R. Kobayashi, J. Normand, 
 K. Raghavachari, A. P. Rendell, J. C. Burant, S. S. Iyengar, 
 J. Tomasi, M. Cossi, J. M. Millam, M. Klene, C. Adamo, R. Cammi, 
 J. W. Ochterski, R. L. Martin, K. Morokuma, O. Farkas, 
 J. B. Foresman, and D. J. Fox, Gaussian, Inc., Wallingford CT, 2016.
 
 ******************************************
 Gaussian 16:  ES64L-G16RevA.03 25-Dec-2016
                28-May-2023 
 ******************************************
 %chk=CCCqCrqCrCC.chk
 %NProcShared=20
 Will use up to   20 processors via shared memory.
 -----------------------------
 # opt freq b3lyp/6-31g(2df,p)
 -----------------------------
 1/18=20,19=15,26=3,38=1/1,3;
 2/9=110,12=2,17=6,18=5,40=1/2;
 3/5=1,6=6,7=104,11=2,25=1,30=1,71=1,74=-5/1,2,3;
 4//1;
 5/5=2,38=5/2;
 6/7=2,8=2,9=2,10=2,28=1/1;
 7//1,2,3,16;
 1/18=20,19=15,26=3/3(2);
 2/9=110/2;
 99//99;
 2/9=110/2;
 3/5=1,6=6,7=104,11=2,25=1,30=1,71=1,74=-5/1,2,3;
 4/5=5,16=3,69=1/1;
 5/5=2,38=5/2;
 7//1,2,3,16;
 1/18=20,19=15,26=3/3(-5);
 2/9=110/2;
 6/7=2,8=2,9=2,10=2,19=2,28=1/1;
 99/9=1/99;
 -------------------
 Title Card Required
 -------------------
 Symbolic Z-matrix:
 Charge =  0 Multiplicity = 1
 C                     0.9761   -0.19805  -0.07503 
 C                     2.49741  -0.04445  -0.0803 
 C                     3.00614   1.42894  -0.13089 
 C                     2.49595   2.10674  -1.41608 
 C                     2.49595   2.19329   1.10479 
 C                     4.56565   1.41717  -0.13049 
 C                     5.21765   2.79942  -0.17795 
 H                     0.70121  -1.25756  -0.03865 
 H                     0.52356   0.22227  -0.97638 
 H                     0.52356   0.2831    0.79537 
 H                     2.89383  -0.5997   -0.93971 
 H                     2.89383  -0.53945   0.81516 
 H                     1.40273   2.13848  -1.45652 
 H                     2.85108   1.57373  -2.30427 
 H                     2.82914   3.14652  -1.49113 
 H                     1.40273   2.22773   1.14296 
 H                     2.82914   3.23577   1.10835 
 H                     2.85108   1.72245   2.02745 
 H                     4.9289    0.83847  -0.98909 
 H                     4.9289    0.89872   0.76578 
 H                     4.94329   3.34566  -1.08362 
 H                     6.30879   2.70528  -0.17471 
 H                     4.94329   3.4065    0.68813 
 

 GradGradGradGradGradGradGradGradGradGradGradGradGradGradGradGradGradGrad
 Berny optimization.
 Initialization pass.
                           ----------------------------
                           !    Initial Parameters    !
                           ! (Angstroms and Degrees)  !
 --------------------------                            --------------------------
 ! Name  Definition              Value          Derivative Info.                !
 --------------------------------------------------------------------------------
 ! R1    R(1,2)                  1.5291         estimate D2E/DX2                !
 ! R2    R(1,8)                  1.0952         estimate D2E/DX2                !
 ! R3    R(1,9)                  1.0927         estimate D2E/DX2                !
 ! R4    R(1,10)                 1.0927         estimate D2E/DX2                !
 ! R5    R(2,3)                  1.5596         estimate D2E/DX2                !
 ! R6    R(2,11)                 1.0973         estimate D2E/DX2                !
 ! R7    R(2,12)                 1.0973         estimate D2E/DX2                !
 ! R8    R(3,4)                  1.5399         estimate D2E/DX2                !
 ! R9    R(3,5)                  1.5399         estimate D2E/DX2                !
 ! R10   R(3,6)                  1.5596         estimate D2E/DX2                !
 ! R11   R(4,13)                 1.0944         estimate D2E/DX2                !
 ! R12   R(4,14)                 1.095          estimate D2E/DX2                !
 ! R13   R(4,15)                 1.0944         estimate D2E/DX2                !
 ! R14   R(5,16)                 1.0944         estimate D2E/DX2                !
 ! R15   R(5,17)                 1.0944         estimate D2E/DX2                !
 ! R16   R(5,18)                 1.095          estimate D2E/DX2                !
 ! R17   R(6,7)                  1.529          estimate D2E/DX2                !
 ! R18   R(6,19)                 1.0973         estimate D2E/DX2                !
 ! R19   R(6,20)                 1.0973         estimate D2E/DX2                !
 ! R20   R(7,21)                 1.0927         estimate D2E/DX2                !
 ! R21   R(7,22)                 1.0952         estimate D2E/DX2                !
 ! R22   R(7,23)                 1.0927         estimate D2E/DX2                !
 ! A1    A(2,1,8)              110.3052         estimate D2E/DX2                !
 ! A2    A(2,1,9)              111.7516         estimate D2E/DX2                !
 ! A3    A(2,1,10)             111.7513         estimate D2E/DX2                !
 ! A4    A(8,1,9)              107.193          estimate D2E/DX2                !
 ! A5    A(8,1,10)             107.1927         estimate D2E/DX2                !
 ! A6    A(9,1,10)             108.4331         estimate D2E/DX2                !
 ! A7    A(1,2,3)              114.807          estimate D2E/DX2                !
 ! A8    A(1,2,11)             108.1383         estimate D2E/DX2                !
 ! A9    A(1,2,12)             108.1386         estimate D2E/DX2                !
 ! A10   A(3,2,11)             109.5608         estimate D2E/DX2                !
 ! A11   A(3,2,12)             109.5612         estimate D2E/DX2                !
 ! A12   A(11,2,12)            106.2821         estimate D2E/DX2                !
 ! A13   A(2,3,4)              109.562          estimate D2E/DX2                !
 ! A14   A(2,3,5)              109.5617         estimate D2E/DX2                !
 ! A15   A(2,3,6)              108.6056         estimate D2E/DX2                !
 ! A16   A(4,3,5)              109.965          estimate D2E/DX2                !
 ! A17   A(4,3,6)              109.5623         estimate D2E/DX2                !
 ! A18   A(5,3,6)              109.5625         estimate D2E/DX2                !
 ! A19   A(3,4,13)             111.996          estimate D2E/DX2                !
 ! A20   A(3,4,14)             110.8081         estimate D2E/DX2                !
 ! A21   A(3,4,15)             111.9955         estimate D2E/DX2                !
 ! A22   A(13,4,14)            107.9446         estimate D2E/DX2                !
 ! A23   A(13,4,15)            105.9034         estimate D2E/DX2                !
 ! A24   A(14,4,15)            107.9442         estimate D2E/DX2                !
 ! A25   A(3,5,16)             111.9961         estimate D2E/DX2                !
 ! A26   A(3,5,17)             111.9955         estimate D2E/DX2                !
 ! A27   A(3,5,18)             110.8082         estimate D2E/DX2                !
 ! A28   A(16,5,17)            105.9034         estimate D2E/DX2                !
 ! A29   A(16,5,18)            107.9444         estimate D2E/DX2                !
 ! A30   A(17,5,18)            107.9442         estimate D2E/DX2                !
 ! A31   A(3,6,7)              114.8073         estimate D2E/DX2                !
 ! A32   A(3,6,19)             109.5612         estimate D2E/DX2                !
 ! A33   A(3,6,20)             109.5609         estimate D2E/DX2                !
 ! A34   A(7,6,19)             108.1384         estimate D2E/DX2                !
 ! A35   A(7,6,20)             108.1385         estimate D2E/DX2                !
 ! A36   A(19,6,20)            106.2815         estimate D2E/DX2                !
 ! A37   A(6,7,21)             111.7517         estimate D2E/DX2                !
 ! A38   A(6,7,22)             110.306          estimate D2E/DX2                !
 ! A39   A(6,7,23)             111.7518         estimate D2E/DX2                !
 ! A40   A(21,7,22)            107.1928         estimate D2E/DX2                !
 ! A41   A(21,7,23)            108.4326         estimate D2E/DX2                !
 ! A42   A(22,7,23)            107.192          estimate D2E/DX2                !
 ! D1    D(8,1,2,3)           -180.0            estimate D2E/DX2                !
 ! D2    D(8,1,2,11)            57.3474         estimate D2E/DX2                !
 ! D3    D(8,1,2,12)           -57.3466         estimate D2E/DX2                !
 ! D4    D(9,1,2,3)             60.8583         estimate D2E/DX2                !
 ! D5    D(9,1,2,11)           -61.7943         estimate D2E/DX2                !
 ! D6    D(9,1,2,12)          -176.4883         estimate D2E/DX2                !
 ! D7    D(10,1,2,3)           -60.8588         estimate D2E/DX2                !
 ! D8    D(10,1,2,11)          176.4886         estimate D2E/DX2                !
 ! D9    D(10,1,2,12)           61.7946         estimate D2E/DX2                !
 ! D10   D(1,2,3,4)            -60.359          estimate D2E/DX2                !
 ! D11   D(1,2,3,5)             60.3595         estimate D2E/DX2                !
 ! D12   D(1,2,3,6)           -179.9997         estimate D2E/DX2                !
 ! D13   D(11,2,3,4)            61.5245         estimate D2E/DX2                !
 ! D14   D(11,2,3,5)          -177.7571         estimate D2E/DX2                !
 ! D15   D(11,2,3,6)           -58.1162         estimate D2E/DX2                !
 ! D16   D(12,2,3,4)           177.7569         estimate D2E/DX2                !
 ! D17   D(12,2,3,5)           -61.5247         estimate D2E/DX2                !
 ! D18   D(12,2,3,6)            58.1162         estimate D2E/DX2                !
 ! D19   D(2,3,4,13)            61.0693         estimate D2E/DX2                !
 ! D20   D(2,3,4,14)           -59.5265         estimate D2E/DX2                !
 ! D21   D(2,3,4,15)           179.8786         estimate D2E/DX2                !
 ! D22   D(5,3,4,13)           -59.4041         estimate D2E/DX2                !
 ! D23   D(5,3,4,14)          -179.9999         estimate D2E/DX2                !
 ! D24   D(5,3,4,15)            59.4051         estimate D2E/DX2                !
 ! D25   D(6,3,4,13)          -179.8786         estimate D2E/DX2                !
 ! D26   D(6,3,4,14)            59.5255         estimate D2E/DX2                !
 ! D27   D(6,3,4,15)           -61.0694         estimate D2E/DX2                !
 ! D28   D(2,3,5,16)           -61.0695         estimate D2E/DX2                !
 ! D29   D(2,3,5,17)          -179.8787         estimate D2E/DX2                !
 ! D30   D(2,3,5,18)            59.5263         estimate D2E/DX2                !
 ! D31   D(4,3,5,16)            59.4041         estimate D2E/DX2                !
 ! D32   D(4,3,5,17)           -59.4051         estimate D2E/DX2                !
 ! D33   D(4,3,5,18)           179.9998         estimate D2E/DX2                !
 ! D34   D(6,3,5,16)           179.8785         estimate D2E/DX2                !
 ! D35   D(6,3,5,17)            61.0693         estimate D2E/DX2                !
 ! D36   D(6,3,5,18)           -59.5257         estimate D2E/DX2                !
 ! D37   D(2,3,6,7)           -180.0            estimate D2E/DX2                !
 ! D38   D(2,3,6,19)            58.1159         estimate D2E/DX2                !
 ! D39   D(2,3,6,20)           -58.1158         estimate D2E/DX2                !
 ! D40   D(4,3,6,7)             60.3595         estimate D2E/DX2                !
 ! D41   D(4,3,6,19)           -61.5246         estimate D2E/DX2                !
 ! D42   D(4,3,6,20)          -177.7564         estimate D2E/DX2                !
 ! D43   D(5,3,6,7)            -60.3596         estimate D2E/DX2                !
 ! D44   D(5,3,6,19)           177.7563         estimate D2E/DX2                !
 ! D45   D(5,3,6,20)            61.5245         estimate D2E/DX2                !
 ! D46   D(3,6,7,21)           -60.8585         estimate D2E/DX2                !
 ! D47   D(3,6,7,22)           179.9994         estimate D2E/DX2                !
 ! D48   D(3,6,7,23)            60.8583         estimate D2E/DX2                !
 ! D49   D(19,6,7,21)           61.795          estimate D2E/DX2                !
 ! D50   D(19,6,7,22)          -57.3471         estimate D2E/DX2                !
 ! D51   D(19,6,7,23)         -176.4882         estimate D2E/DX2                !
 ! D52   D(20,6,7,21)          176.4882         estimate D2E/DX2                !
 ! D53   D(20,6,7,22)           57.3462         estimate D2E/DX2                !
 ! D54   D(20,6,7,23)          -61.7949         estimate D2E/DX2                !
 --------------------------------------------------------------------------------
 Trust Radius=3.00D-01 FncErr=1.00D-07 GrdErr=1.00D-06 EigMax=2.50D+02 EigMin=1.00D-04
 Number of steps in this run=    128 maximum allowed number of steps=    138.
 GradGradGradGradGradGradGradGradGradGradGradGradGradGradGradGradGradGrad

                          Input orientation:                          
 ---------------------------------------------------------------------
 Center     Atomic      Atomic             Coordinates (Angstroms)
 Number     Number       Type             X           Y           Z
 ---------------------------------------------------------------------
      1          6           0        0.976100   -0.198050   -0.075030
      2          6           0        2.497410   -0.044450   -0.080300
      3          6           0        3.006140    1.428940   -0.130890
      4          6           0        2.495950    2.106740   -1.416080
      5          6           0        2.495950    2.193290    1.104790
      6          6           0        4.565650    1.417170   -0.130490
      7          6           0        5.217650    2.799420   -0.177950
      8          1           0        0.701210   -1.257560   -0.038650
      9          1           0        0.523560    0.222270   -0.976380
     10          1           0        0.523560    0.283100    0.795370
     11          1           0        2.893830   -0.599700   -0.939710
     12          1           0        2.893830   -0.539450    0.815160
     13          1           0        1.402730    2.138480   -1.456520
     14          1           0        2.851080    1.573730   -2.304270
     15          1           0        2.829140    3.146520   -1.491130
     16          1           0        1.402730    2.227730    1.142960
     17          1           0        2.829140    3.235770    1.108350
     18          1           0        2.851080    1.722450    2.027450
     19          1           0        4.928900    0.838470   -0.989090
     20          1           0        4.928900    0.898720    0.765780
     21          1           0        4.943290    3.345660   -1.083620
     22          1           0        6.308790    2.705280   -0.174710
     23          1           0        4.943290    3.406500    0.688130
 ---------------------------------------------------------------------
                    Distance matrix (angstroms):
                    1          2          3          4          5
     1  C    0.000000
     2  C    1.529054   0.000000
     3  C    2.602168   1.559565   0.000000
     4  C    3.069270   2.532179   1.539942   0.000000
     5  C    3.069271   2.532177   1.539945   2.522355   0.000000
     6  C    3.936608   2.533075   1.559554   2.532174   2.532180
     7  C    5.194821   3.936602   2.602154   3.069271   3.069278
     8  H    1.095194   2.167880   3.540973   4.054247   4.054246
     9  H    1.092654   2.184075   2.886886   2.763130   3.479441
    10  H    1.092655   2.184072   2.886886   3.479439   2.763130
    11  H    2.141654   1.097286   2.186820   2.776698   3.484119
    12  H    2.141654   1.097280   2.186820   3.484116   2.776700
    13  H    2.747708   2.803121   2.198105   1.094428   2.785398
    14  H    3.409438   2.773018   2.183710   1.095034   3.483054
    15  H    4.077407   3.504679   2.198104   1.094436   2.785402
    16  H    2.747712   2.803122   2.198109   2.785400   1.094428
    17  H    4.077409   3.504679   2.198108   2.785403   1.094437
    18  H    3.409442   2.773018   2.183718   3.483058   1.095038
    19  H    4.187423   2.741822   2.186817   2.776702   3.484123
    20  H    4.187421   2.741818   2.186814   3.484117   2.776704
    21  H    5.414216   4.299049   2.886877   2.763137   3.479449
    22  H    6.072631   4.700696   3.540969   4.054257   4.054257
    23  H    5.414221   4.299054   2.886882   3.479447   2.763143
                    6          7          8          9         10
     6  C    0.000000
     7  C    1.529043   0.000000
     8  H    4.700693   6.072621   0.000000
     9  H    4.299047   5.414210   1.760907   0.000000
    10  H    4.299049   5.414213   1.760904   1.772794   0.000000
    11  H    2.741821   4.187414   2.460136   2.509016   3.067249
    12  H    2.741824   4.187417   2.460133   3.067248   2.509016
    13  H    3.504669   4.077401   3.746408   2.162252   3.047357
    14  H    2.773009   3.409429   4.215588   3.001181   4.085443
    15  H    2.803116   2.747708   5.102323   3.759243   4.329314
    16  H    3.504675   4.077407   3.746409   3.047361   2.162255
    17  H    2.803123   2.747717   5.102324   4.329316   3.759244
    18  H    2.773022   3.409444   4.215587   4.085448   3.001183
    19  H    1.097287   2.141646   4.813527   4.448245   4.785369
    20  H    1.097288   2.141650   4.813524   4.785366   4.448245
    21  H    2.184066   1.092653   6.346404   5.413047   5.695954
    22  H    2.167884   1.095198   6.867865   6.346408   6.346408
    23  H    2.184075   1.092664   6.346409   5.695957   5.413053
                   11         12         13         14         15
    11  H    0.000000
    12  H    1.755904   0.000000
    13  H    3.160396   3.815130   0.000000
    14  H    2.566642   3.768050   1.770689   0.000000
    15  H    3.787138   4.348509   1.746994   1.770691   0.000000
    16  H    3.815135   3.160398   2.601012   3.795896   3.133249
    17  H    4.348513   3.787140   3.133249   3.795897   2.601012
    18  H    3.768056   2.566645   3.795899   4.334272   3.795901
    19  H    2.492445   3.048851   3.787135   2.566640   3.160400
    20  H    3.048847   2.492445   4.348505   3.768047   3.815133
    21  H    4.448243   4.785366   3.759242   3.001177   2.162256
    22  H    4.813530   4.813530   5.102325   4.215589   3.746414
    23  H    4.785372   4.448252   4.329314   4.085443   3.047359
                   16         17         18         19         20
    16  H    0.000000
    17  H    1.746994   0.000000
    18  H    1.770691   1.770696   0.000000
    19  H    4.348512   3.815140   3.768059   0.000000
    20  H    3.787137   3.160403   2.566647   1.755904   0.000000
    21  H    4.329318   3.047366   4.085451   2.509013   3.067247
    22  H    5.102326   3.746415   4.215593   2.460140   2.460138
    23  H    3.759246   2.162259   3.001191   3.067255   2.509023
                   21         22         23
    21  H    0.000000
    22  H    1.760907   0.000000
    23  H    1.772794   1.760907   0.000000
 Stoichiometry    C7H16
 Framework group  C1[X(C7H16)]
 Deg. of freedom    63
 Full point group                 C1      NOp   1
 Largest Abelian subgroup         C1      NOp   1
 Largest concise Abelian subgroup C1      NOp   1
                         Standard orientation:                         
 ---------------------------------------------------------------------
 Center     Atomic      Atomic             Coordinates (Angstroms)
 Number     Number       Type             X           Y           Z
 ---------------------------------------------------------------------
      1          6           0        2.597412   -0.000202   -0.129445
      2          6           0        1.266536   -0.001347   -0.882287
      3          6           0       -0.000005    0.000043    0.027721
      4          6           0        0.000002   -1.259781    0.913308
      5          6           0        0.000006    1.262571    0.909453
      6          6           0       -1.266539   -0.001350   -0.882279
      7          6           0       -2.597409   -0.000200   -0.129447
      8          1           0        3.433929   -0.001280   -0.836331
      9          1           0        2.706522   -0.885636    0.501424
     10          1           0        2.706525    0.887156    0.498715
     11          1           0        1.246220   -0.880307   -1.538833
     12          1           0        1.246223    0.875595   -1.541517
     13          1           0        0.873495   -1.298104    1.571573
     14          1           0       -0.000005   -2.166676    0.299598
     15          1           0       -0.873499   -1.298101    1.571578
     16          1           0        0.873499    1.302905    1.567599
     17          1           0       -0.873495    1.302907    1.567604
     18          1           0        0.000004    2.167591    0.292972
     19          1           0       -1.246225   -0.880306   -1.538832
     20          1           0       -1.246222    0.875596   -1.541516
     21          1           0       -2.706525   -0.885630    0.501423
     22          1           0       -3.433936   -0.001271   -0.836328
     23          1           0       -2.706528    0.887162    0.498722
 ---------------------------------------------------------------------
 Rotational constants (GHZ):           4.1478871           1.5608508           1.5590497
 Standard basis: 6-31G(2df,p) (6D, 7F)
 There are   297 symmetry adapted cartesian basis functions of A   symmetry.
 There are   276 symmetry adapted basis functions of A   symmetry.
   276 basis functions,   420 primitive gaussians,   297 cartesian basis functions
    29 alpha electrons       29 beta electrons
       nuclear repulsion energy       339.4004745357 Hartrees.
 NAtoms=   23 NActive=   23 NUniq=   23 SFac= 1.00D+00 NAtFMM=   60 NAOKFM=F Big=F
 Integral buffers will be    131072 words long.
 Raffenetti 2 integral format.
 Two-electron integral symmetry is turned on.
 One-electron integrals computed using PRISM.
 PrsmSu:  requested number of processors reduced to:  13 ShMem   1 Linda.
 NBasis=   276 RedAO= T EigKep=  7.10D-04  NBF=   276
 NBsUse=   276 1.00D-06 EigRej= -1.00D+00 NBFU=   276
 ExpMin= 1.61D-01 ExpMax= 3.05D+03 ExpMxC= 4.57D+02 IAcc=3 IRadAn=         5 AccDes= 0.00D+00
 Harris functional with IExCor=  402 and IRadAn=       5 diagonalized for initial guess.
 HarFok:  IExCor=  402 AccDes= 0.00D+00 IRadAn=         5 IDoV= 1 UseB2=F ITyADJ=14
 ICtDFT=  3500011 ScaDFX=  1.000000  1.000000  1.000000  1.000000
 FoFCou: FMM=F IPFlag=           0 FMFlag=      100000 FMFlg1=           0
         NFxFlg=           0 DoJE=T BraDBF=F KetDBF=T FulRan=T
         wScrn=  0.000000 ICntrl=       500 IOpCl=  0 I1Cent=   200000004 NGrid=           0
         NMat0=    1 NMatS0=      1 NMatT0=    0 NMatD0=    1 NMtDS0=    0 NMtDT0=    0
 Petite list used in FoFCou.
 Requested convergence on RMS density matrix=1.00D-08 within 128 cycles.
 Requested convergence on MAX density matrix=1.00D-06.
 Requested convergence on             energy=1.00D-06.
 No special actions if energy rises.
 Integral accuracy reduced to 1.0D-05 until final iterations.
 Initial convergence to 1.0D-05 achieved.  Increase integral accuracy.
 SCF Done:  E(RB3LYP) =  -276.417102701     A.U. after   11 cycles
            NFock= 11  Conv=0.96D-08     -V/T= 2.0094

 **********************************************************************

            Population analysis using the SCF density.

 **********************************************************************

 Orbital symmetries:
       Occupied  (A) (A) (A) (A) (A) (A) (A) (A) (A) (A) (A) (A)
                 (A) (A) (A) (A) (A) (A) (A) (A) (A) (A) (A) (A)
                 (A) (A) (A) (A) (A)
       Virtual   (A) (A) (A) (A) (A) (A) (A) (A) (A) (A) (A) (A)
                 (A) (A) (A) (A) (A) (A) (A) (A) (A) (A) (A) (A)
                 (A) (A) (A) (A) (A) (A) (A) (A) (A) (A) (A) (A)
                 (A) (A) (A) (A) (A) (A) (A) (A) (A) (A) (A) (A)
                 (A) (A) (A) (A) (A) (A) (A) (A) (A) (A) (A) (A)
                 (A) (A) (A) (A) (A) (A) (A) (A) (A) (A) (A) (A)
                 (A) (A) (A) (A) (A) (A) (A) (A) (A) (A) (A) (A)
                 (A) (A) (A) (A) (A) (A) (A) (A) (A) (A) (A) (A)
                 (A) (A) (A) (A) (A) (A) (A) (A) (A) (A) (A) (A)
                 (A) (A) (A) (A) (A) (A) (A) (A) (A) (A) (A) (A)
                 (A) (A) (A) (A) (A) (A) (A) (A) (A) (A) (A) (A)
                 (A) (A) (A) (A) (A) (A) (A) (A) (A) (A) (A) (A)
                 (A) (A) (A) (A) (A) (A) (A) (A) (A) (A) (A) (A)
                 (A) (A) (A) (A) (A) (A) (A) (A) (A) (A) (A) (A)
                 (A) (A) (A) (A) (A) (A) (A) (A) (A) (A) (A) (A)
                 (A) (A) (A) (A) (A) (A) (A) (A) (A) (A) (A) (A)
                 (A) (A) (A) (A) (A) (A) (A) (A) (A) (A) (A) (A)
                 (A) (A) (A) (A) (A) (A) (A) (A) (A) (A) (A) (A)
                 (A) (A) (A) (A) (A) (A) (A) (A) (A) (A) (A) (A)
                 (A) (A) (A) (A) (A) (A) (A) (A) (A) (A) (A) (A)
                 (A) (A) (A) (A) (A) (A) (A)
 The electronic state is 1-A.
 Alpha  occ. eigenvalues --  -10.18826 -10.17203 -10.17203 -10.16640 -10.16640
 Alpha  occ. eigenvalues --  -10.16474 -10.16473  -0.81970  -0.74603  -0.71167
 Alpha  occ. eigenvalues --   -0.67860  -0.64146  -0.59161  -0.51988  -0.46159
 Alpha  occ. eigenvalues --   -0.45432  -0.43747  -0.42388  -0.39269  -0.39115
 Alpha  occ. eigenvalues --   -0.37892  -0.36481  -0.36231  -0.34479  -0.34278
 Alpha  occ. eigenvalues --   -0.32994  -0.30970  -0.30061  -0.29738
 Alpha virt. eigenvalues --    0.07727   0.11914   0.12442   0.12801   0.14221
 Alpha virt. eigenvalues --    0.14229   0.15406   0.15537   0.17109   0.17139
 Alpha virt. eigenvalues --    0.18629   0.20265   0.21198   0.22082   0.22518
 Alpha virt. eigenvalues --    0.23263   0.23419   0.23693   0.25134   0.27035
 Alpha virt. eigenvalues --    0.27771   0.28278   0.43512   0.45131   0.46550
 Alpha virt. eigenvalues --    0.47455   0.48238   0.50807   0.52680   0.52930
 Alpha virt. eigenvalues --    0.55949   0.56935   0.57504   0.61414   0.64059
 Alpha virt. eigenvalues --    0.64490   0.66286   0.67647   0.70129   0.70568
 Alpha virt. eigenvalues --    0.71727   0.72127   0.73346   0.73893   0.74249
 Alpha virt. eigenvalues --    0.75600   0.75685   0.75976   0.76548   0.77370
 Alpha virt. eigenvalues --    0.78127   0.79382   0.81437   0.82166   0.86583
 Alpha virt. eigenvalues --    0.87768   0.88625   0.89258   0.91402   0.91999
 Alpha virt. eigenvalues --    0.95257   0.95839   1.06813   1.08957   1.09432
 Alpha virt. eigenvalues --    1.11432   1.17919   1.22618   1.23785   1.24957
 Alpha virt. eigenvalues --    1.31081   1.32931   1.33144   1.38477   1.40419
 Alpha virt. eigenvalues --    1.40470   1.42614   1.43913   1.46605   1.51487
 Alpha virt. eigenvalues --    1.51862   1.52289   1.54378   1.55741   1.59239
 Alpha virt. eigenvalues --    1.61185   1.62986   1.63687   1.67502   1.70778
 Alpha virt. eigenvalues --    1.76630   1.79365   1.80142   1.85633   1.87123
 Alpha virt. eigenvalues --    1.87815   1.89239   1.92541   1.94616   1.97799
 Alpha virt. eigenvalues --    1.98355   1.98708   1.98715   2.00312   2.01315
 Alpha virt. eigenvalues --    2.17189   2.18151   2.23576   2.26721   2.28573
 Alpha virt. eigenvalues --    2.30193   2.30862   2.31706   2.31869   2.34619
 Alpha virt. eigenvalues --    2.36180   2.41673   2.43274   2.48586   2.49080
 Alpha virt. eigenvalues --    2.51891   2.54852   2.59258   2.68412   2.70176
 Alpha virt. eigenvalues --    2.71312   2.75398   2.78948   2.78948   2.80686
 Alpha virt. eigenvalues --    2.81412   2.82495   2.83852   2.86116   2.86195
 Alpha virt. eigenvalues --    2.86803   2.88688   2.90505   2.90583   2.92076
 Alpha virt. eigenvalues --    2.93699   2.97591   2.97854   2.99345   2.99691
 Alpha virt. eigenvalues --    3.03398   3.04101   3.06161   3.07494   3.07699
 Alpha virt. eigenvalues --    3.08554   3.17083   3.17918   3.18068   3.24935
 Alpha virt. eigenvalues --    3.26871   3.33336   3.34676   3.36891   3.40594
 Alpha virt. eigenvalues --    3.41106   3.43777   3.44128   3.46167   3.49468
 Alpha virt. eigenvalues --    3.53401   3.56513   3.59258   3.60351   3.60986
 Alpha virt. eigenvalues --    3.62741   3.63589   3.67292   3.69889   3.70218
 Alpha virt. eigenvalues --    3.77786   3.80397   3.80655   3.84984   3.85467
 Alpha virt. eigenvalues --    3.86805   3.92282   3.95249   3.95640   4.01521
 Alpha virt. eigenvalues --    4.06201   4.09648   4.13493   4.20850   4.21336
 Alpha virt. eigenvalues --    4.29244   4.34670   4.35838   4.37439   4.44520
 Alpha virt. eigenvalues --    4.44561   4.47634   4.48436   4.48590   4.53606
 Alpha virt. eigenvalues --    4.55231   4.55515   4.58205   4.60176   4.61436
 Alpha virt. eigenvalues --    4.63225   4.67778   4.68868   4.69403   4.69704
 Alpha virt. eigenvalues --    4.71469   4.77287   4.77835   4.78866   4.78920
 Alpha virt. eigenvalues --    4.81306   4.82919   4.85977   4.86493   4.89117
 Alpha virt. eigenvalues --    4.89434   4.89493   4.91971   4.92622   4.94666
 Alpha virt. eigenvalues --    4.97774   5.05009   5.07973   5.15188   5.15892
 Alpha virt. eigenvalues --    5.26553   5.36907   5.45607   5.52254   5.52417
 Alpha virt. eigenvalues --    5.55908   5.65223   5.69672   5.94482   5.95439
 Alpha virt. eigenvalues --   11.27295  11.54681  11.62628  12.03768  12.29047
 Alpha virt. eigenvalues --   12.34867  12.86339
          Condensed to atoms (all electrons):
               1          2          3          4          5          6
     1  C    4.979055   0.398133  -0.024347  -0.006200  -0.006200   0.002471
     2  C    0.398133   4.875620   0.417724  -0.044643  -0.044643  -0.035114
     3  C   -0.024347   0.417724   4.317617   0.407782   0.407781   0.417728
     4  C   -0.006200  -0.044643   0.407782   5.071375  -0.059690  -0.044644
     5  C   -0.006200  -0.044643   0.407781  -0.059690   5.071378  -0.044643
     6  C    0.002471  -0.035114   0.417728  -0.044644  -0.044643   4.875611
     7  C   -0.000157   0.002471  -0.024348  -0.006200  -0.006200   0.398136
     8  H    0.371719  -0.020453   0.002604   0.000247   0.000247  -0.000108
     9  H    0.379132  -0.028052  -0.005135   0.001145  -0.000560   0.000171
    10  H    0.379132  -0.028053  -0.005135  -0.000560   0.001145   0.000171
    11  H   -0.038882   0.356708  -0.021870  -0.007639   0.005852  -0.004331
    12  H   -0.038882   0.356709  -0.021870   0.005852  -0.007639  -0.004331
    13  H    0.000189  -0.006784  -0.018501   0.367147  -0.004440   0.005015
    14  H   -0.000070  -0.004424  -0.019232   0.363115   0.005557  -0.004424
    15  H    0.000138   0.005015  -0.018501   0.367145  -0.004440  -0.006784
    16  H    0.000189  -0.006784  -0.018501  -0.004440   0.367147   0.005015
    17  H    0.000138   0.005015  -0.018501  -0.004439   0.367145  -0.006784
    18  H   -0.000070  -0.004424  -0.019232   0.005557   0.363115  -0.004424
    19  H    0.000097  -0.004331  -0.021870  -0.007639   0.005852   0.356708
    20  H    0.000097  -0.004331  -0.021870   0.005852  -0.007639   0.356707
    21  H    0.000002   0.000171  -0.005135   0.001145  -0.000560  -0.028053
    22  H    0.000001  -0.000108   0.002604   0.000247   0.000247  -0.020452
    23  H    0.000002   0.000171  -0.005135  -0.000560   0.001145  -0.028052
               7          8          9         10         11         12
     1  C   -0.000157   0.371719   0.379132   0.379132  -0.038882  -0.038882
     2  C    0.002471  -0.020453  -0.028052  -0.028053   0.356708   0.356709
     3  C   -0.024348   0.002604  -0.005135  -0.005135  -0.021870  -0.021870
     4  C   -0.006200   0.000247   0.001145  -0.000560  -0.007639   0.005852
     5  C   -0.006200   0.000247  -0.000560   0.001145   0.005852  -0.007639
     6  C    0.398136  -0.000108   0.000171   0.000171  -0.004331  -0.004331
     7  C    4.979057   0.000001   0.000002   0.000002   0.000097   0.000097
     8  H    0.000001   0.607712  -0.032064  -0.032065  -0.002803  -0.002803
     9  H    0.000002  -0.032064   0.596037  -0.034420  -0.003854   0.005701
    10  H    0.000002  -0.032065  -0.034420   0.596038   0.005701  -0.003854
    11  H    0.000097  -0.002803  -0.003854   0.005701   0.653787  -0.039499
    12  H    0.000097  -0.002803   0.005701  -0.003854  -0.039499   0.653784
    13  H    0.000138  -0.000126   0.004271   0.000507   0.000025  -0.000002
    14  H   -0.000070  -0.000035   0.000612   0.000047   0.004339  -0.000041
    15  H    0.000189  -0.000000  -0.000209  -0.000031  -0.000078  -0.000184
    16  H    0.000138  -0.000126   0.000507   0.004271  -0.000002   0.000025
    17  H    0.000189  -0.000000  -0.000031  -0.000209  -0.000184  -0.000078
    18  H   -0.000070  -0.000035   0.000047   0.000612  -0.000041   0.004339
    19  H   -0.038882  -0.000002  -0.000003   0.000004   0.005374  -0.000161
    20  H   -0.038882  -0.000002   0.000004  -0.000003  -0.000161   0.005374
    21  H    0.379132   0.000000  -0.000001   0.000000  -0.000003   0.000004
    22  H    0.371718  -0.000000   0.000000   0.000000  -0.000002  -0.000002
    23  H    0.379130   0.000000   0.000000  -0.000001   0.000004  -0.000003
              13         14         15         16         17         18
     1  C    0.000189  -0.000070   0.000138   0.000189   0.000138  -0.000070
     2  C   -0.006784  -0.004424   0.005015  -0.006784   0.005015  -0.004424
     3  C   -0.018501  -0.019232  -0.018501  -0.018501  -0.018501  -0.019232
     4  C    0.367147   0.363115   0.367145  -0.004440  -0.004439   0.005557
     5  C   -0.004440   0.005557  -0.004440   0.367147   0.367145   0.363115
     6  C    0.005015  -0.004424  -0.006784   0.005015  -0.006784  -0.004424
     7  C    0.000138  -0.000070   0.000189   0.000138   0.000189  -0.000070
     8  H   -0.000126  -0.000035  -0.000000  -0.000126  -0.000000  -0.000035
     9  H    0.004271   0.000612  -0.000209   0.000507  -0.000031   0.000047
    10  H    0.000507   0.000047  -0.000031   0.004271  -0.000209   0.000612
    11  H    0.000025   0.004339  -0.000078  -0.000002  -0.000184  -0.000041
    12  H   -0.000002  -0.000041  -0.000184   0.000025  -0.000078   0.004339
    13  H    0.604293  -0.033308  -0.032283   0.003605  -0.000110  -0.000054
    14  H   -0.033308   0.611331  -0.033308  -0.000054  -0.000054  -0.000213
    15  H   -0.032283  -0.033308   0.604296  -0.000110   0.003605  -0.000054
    16  H    0.003605  -0.000054  -0.000110   0.604292  -0.032283  -0.033308
    17  H   -0.000110  -0.000054   0.003605  -0.032283   0.604296  -0.033307
    18  H   -0.000054  -0.000213  -0.000054  -0.033308  -0.033307   0.611332
    19  H   -0.000078   0.004339   0.000025  -0.000184  -0.000002  -0.000041
    20  H   -0.000184  -0.000041  -0.000002  -0.000078   0.000025   0.004339
    21  H   -0.000209   0.000612   0.004271  -0.000031   0.000507   0.000047
    22  H   -0.000000  -0.000035  -0.000126  -0.000000  -0.000126  -0.000035
    23  H   -0.000031   0.000047   0.000507  -0.000209   0.004271   0.000612
              19         20         21         22         23
     1  C    0.000097   0.000097   0.000002   0.000001   0.000002
     2  C   -0.004331  -0.004331   0.000171  -0.000108   0.000171
     3  C   -0.021870  -0.021870  -0.005135   0.002604  -0.005135
     4  C   -0.007639   0.005852   0.001145   0.000247  -0.000560
     5  C    0.005852  -0.007639  -0.000560   0.000247   0.001145
     6  C    0.356708   0.356707  -0.028053  -0.020452  -0.028052
     7  C   -0.038882  -0.038882   0.379132   0.371718   0.379130
     8  H   -0.000002  -0.000002   0.000000  -0.000000   0.000000
     9  H   -0.000003   0.000004  -0.000001   0.000000   0.000000
    10  H    0.000004  -0.000003   0.000000   0.000000  -0.000001
    11  H    0.005374  -0.000161  -0.000003  -0.000002   0.000004
    12  H   -0.000161   0.005374   0.000004  -0.000002  -0.000003
    13  H   -0.000078  -0.000184  -0.000209  -0.000000  -0.000031
    14  H    0.004339  -0.000041   0.000612  -0.000035   0.000047
    15  H    0.000025  -0.000002   0.004271  -0.000126   0.000507
    16  H   -0.000184  -0.000078  -0.000031  -0.000000  -0.000209
    17  H   -0.000002   0.000025   0.000507  -0.000126   0.004271
    18  H   -0.000041   0.004339   0.000047  -0.000035   0.000612
    19  H    0.653787  -0.039499  -0.003854  -0.002803   0.005701
    20  H   -0.039499   0.653788   0.005701  -0.002803  -0.003854
    21  H   -0.003854   0.005701   0.596038  -0.032065  -0.034420
    22  H   -0.002803  -0.002803  -0.032065   0.607714  -0.032065
    23  H    0.005701  -0.003854  -0.034420  -0.032065   0.596042
 Mulliken charges:
               1
     1  C   -0.395687
     2  C   -0.185592
     3  C    0.295343
     4  C   -0.409955
     5  C   -0.409956
     6  C   -0.185589
     7  C   -0.395687
     8  H    0.108091
     9  H    0.116700
    10  H    0.116699
    11  H    0.087461
    12  H    0.087462
    13  H    0.110921
    14  H    0.105312
    15  H    0.110919
    16  H    0.110921
    17  H    0.110919
    18  H    0.105311
    19  H    0.087461
    20  H    0.087461
    21  H    0.116700
    22  H    0.108090
    23  H    0.116698
 Sum of Mulliken charges =  -0.00000
 Mulliken charges with hydrogens summed into heavy atoms:
               1
     1  C   -0.054198
     2  C   -0.010670
     3  C    0.295343
     4  C   -0.082804
     5  C   -0.082805
     6  C   -0.010668
     7  C   -0.054199
 Electronic spatial extent (au):  <R**2>=            983.5177
 Charge=             -0.0000 electrons
 Dipole moment (field-independent basis, Debye):
    X=              0.0000    Y=             -0.0001    Z=             -0.0519  Tot=              0.0519
 Quadrupole moment (field-independent basis, Debye-Ang):
   XX=            -48.7991   YY=            -47.9531   ZZ=            -48.0784
   XY=              0.0000   XZ=              0.0000   YZ=             -0.0002
 Traceless Quadrupole moment (field-independent basis, Debye-Ang):
   XX=             -0.5222   YY=              0.3238   ZZ=              0.1985
   XY=              0.0000   XZ=              0.0000   YZ=             -0.0002
 Octapole moment (field-independent basis, Debye-Ang**2):
  XXX=             -0.0000  YYY=             -0.0076  ZZZ=              0.2627  XYY=              0.0001
  XXY=             -0.0011  XXZ=             -0.7047  XZZ=              0.0001  YZZ=              0.0054
  YYZ=             -1.6463  XYZ=             -0.0000
 Hexadecapole moment (field-independent basis, Debye-Ang**3):
 XXXX=           -872.2287 YYYY=           -254.3092 ZZZZ=           -255.5540 XXXY=              0.0000
 XXXZ=             -0.0001 YYYX=              0.0001 YYYZ=              0.0024 ZZZX=              0.0001
 ZZZY=             -0.0048 XXYY=           -183.9718 XXZZ=           -179.8991 YYZZ=            -84.1949
 XXYZ=              0.0060 YYXZ=              0.0001 ZZXY=              0.0001
 N-N= 3.394004745357D+02 E-N=-1.316871379323D+03  KE= 2.738489602739D+02
 PrsmSu:  requested number of processors reduced to:  13 ShMem   1 Linda.
 Calling FoFJK, ICntrl=      2127 FMM=F ISym2X=0 I1Cent= 0 IOpClX= 0 NMat=1 NMatS=1 NMatT=0.
 ***** Axes restored to original set *****
 -------------------------------------------------------------------
 Center     Atomic                   Forces (Hartrees/Bohr)
 Number     Number              X              Y              Z
 -------------------------------------------------------------------
      1        6          -0.001700559   -0.004175979    0.000144350
      2        6          -0.000178387    0.003919881   -0.000139533
      3        6           0.002573719   -0.003646411    0.000127833
      4        6          -0.001445646    0.002046463   -0.000226346
      5        6          -0.001443149    0.002055525    0.000086882
      6        6          -0.003634218    0.001467641   -0.000049481
      7        6           0.004510076    0.000219132   -0.000001301
      8        1          -0.000099621    0.000018945   -0.000000964
      9        1          -0.001288101    0.000084288    0.000173049
     10        1          -0.001288254    0.000072012   -0.000178756
     11        1           0.002336198    0.001319795   -0.000327758
     12        1           0.002337171    0.001338009    0.000239783
     13        1           0.000472670   -0.001157288    0.000293639
     14        1          -0.000080867    0.000082206   -0.000923790
     15        1           0.000940539   -0.000829680    0.000282340
     16        1           0.000472497   -0.001174890   -0.000213887
     17        1           0.000940558   -0.000847530   -0.000224683
     18        1          -0.000081701    0.000146816    0.000913576
     19        1          -0.002033702   -0.001767460   -0.000222041
     20        1          -0.002033566   -0.001747267    0.000342023
     21        1           0.000355290    0.001246312    0.000131946
     22        1           0.000012492    0.000099359   -0.000004074
     23        1           0.000356561    0.001230119   -0.000222808
 -------------------------------------------------------------------
 Cartesian Forces:  Max     0.004510076 RMS     0.001466872

 GradGradGradGradGradGradGradGradGradGradGradGradGradGradGradGradGradGrad
 Berny optimization.
 FormGI is forming the generalized inverse of G from B-inverse, IUseBI=4.
 Internal  Forces:  Max     0.010541592 RMS     0.002120837
 Search for a local minimum.
 Step number   1 out of a maximum of  128
 All quantities printed in internal units (Hartrees-Bohrs-Radians)
 Mixed Optimization -- RFO/linear search
 Second derivative matrix not updated -- first step.
 ITU=  0
     Eigenvalues ---    0.00230   0.00230   0.00238   0.00238   0.00382
     Eigenvalues ---    0.00382   0.03286   0.03286   0.04620   0.04729
     Eigenvalues ---    0.04735   0.04735   0.04864   0.05312   0.05312
     Eigenvalues ---    0.05341   0.05341   0.05367   0.05367   0.05598
     Eigenvalues ---    0.05598   0.08674   0.08674   0.12449   0.12449
     Eigenvalues ---    0.14348   0.14421   0.16000   0.16000   0.16000
     Eigenvalues ---    0.16000   0.16000   0.16000   0.16000   0.16000
     Eigenvalues ---    0.16000   0.16000   0.16000   0.16000   0.21945
     Eigenvalues ---    0.21945   0.26854   0.26855   0.28524   0.28524
     Eigenvalues ---    0.29511   0.29512   0.33984   0.33984   0.33984
     Eigenvalues ---    0.33985   0.34219   0.34219   0.34237   0.34237
     Eigenvalues ---    0.34305   0.34305   0.34306   0.34306   0.34507
     Eigenvalues ---    0.34508   0.34508   0.34508
 RFO step:  Lambda=-3.28630305D-03 EMin= 2.30000000D-03
 Linear search not attempted -- first point.
 Iteration  1 RMS(Cart)=  0.07015193 RMS(Int)=  0.00182831
 Iteration  2 RMS(Cart)=  0.00413426 RMS(Int)=  0.00025854
 Iteration  3 RMS(Cart)=  0.00001006 RMS(Int)=  0.00025851
 Iteration  4 RMS(Cart)=  0.00000001 RMS(Int)=  0.00025851
 Variable       Old X    -DE/DX   Delta X   Delta X   Delta X     New X
                                 (Linear)    (Quad)   (Total)
    R1        2.88949   0.00476   0.00000   0.01594   0.01594   2.90543
    R2        2.06962   0.00001   0.00000   0.00002   0.00002   2.06964
    R3        2.06482   0.00042   0.00000   0.00121   0.00121   2.06603
    R4        2.06482   0.00042   0.00000   0.00121   0.00121   2.06603
    R5        2.94715  -0.00248   0.00000  -0.00911  -0.00911   2.93804
    R6        2.07357   0.00043   0.00000   0.00126   0.00126   2.07483
    R7        2.07356   0.00044   0.00000   0.00127   0.00127   2.07483
    R8        2.91007   0.00058   0.00000   0.00201   0.00201   2.91207
    R9        2.91007   0.00058   0.00000   0.00200   0.00200   2.91207
   R10        2.94713  -0.00247   0.00000  -0.00910  -0.00910   2.93803
   R11        2.06817  -0.00052   0.00000  -0.00149  -0.00149   2.06668
   R12        2.06931   0.00068   0.00000   0.00198   0.00198   2.07129
   R13        2.06818  -0.00052   0.00000  -0.00151  -0.00151   2.06668
   R14        2.06817  -0.00052   0.00000  -0.00149  -0.00149   2.06668
   R15        2.06819  -0.00052   0.00000  -0.00151  -0.00151   2.06668
   R16        2.06932   0.00068   0.00000   0.00197   0.00197   2.07129
   R17        2.88947   0.00476   0.00000   0.01596   0.01596   2.90543
   R18        2.07357   0.00043   0.00000   0.00126   0.00126   2.07483
   R19        2.07357   0.00043   0.00000   0.00126   0.00126   2.07483
   R20        2.06481   0.00042   0.00000   0.00122   0.00122   2.06603
   R21        2.06962   0.00000   0.00000   0.00001   0.00001   2.06964
   R22        2.06484   0.00042   0.00000   0.00120   0.00120   2.06603
    A1        1.92519  -0.00038   0.00000  -0.00275  -0.00274   1.92245
    A2        1.95043   0.00139   0.00000   0.00873   0.00871   1.95914
    A3        1.95043   0.00139   0.00000   0.00873   0.00871   1.95914
    A4        1.87087  -0.00056   0.00000  -0.00382  -0.00381   1.86706
    A5        1.87087  -0.00056   0.00000  -0.00382  -0.00381   1.86705
    A6        1.89251  -0.00145   0.00000  -0.00815  -0.00819   1.88432
    A7        2.00376   0.01054   0.00000   0.05251   0.05250   2.05626
    A8        1.88737  -0.00158   0.00000   0.00702   0.00741   1.89478
    A9        1.88737  -0.00158   0.00000   0.00701   0.00741   1.89478
   A10        1.91220  -0.00472   0.00000  -0.03008  -0.03081   1.88139
   A11        1.91220  -0.00472   0.00000  -0.03008  -0.03081   1.88139
   A12        1.85497   0.00154   0.00000  -0.01003  -0.01084   1.84413
   A13        1.91222   0.00169   0.00000   0.01143   0.01134   1.92356
   A14        1.91221   0.00169   0.00000   0.01145   0.01135   1.92357
   A15        1.89553  -0.00477   0.00000  -0.05074  -0.05063   1.84490
   A16        1.91925  -0.00202   0.00000   0.00438   0.00412   1.92337
   A17        1.91222   0.00169   0.00000   0.01143   0.01134   1.92356
   A18        1.91223   0.00169   0.00000   0.01143   0.01134   1.92357
   A19        1.95470  -0.00100   0.00000  -0.00546  -0.00545   1.94925
   A20        1.93397   0.00109   0.00000   0.00543   0.00544   1.93940
   A21        1.95469  -0.00099   0.00000  -0.00545  -0.00545   1.94924
   A22        1.88399  -0.00020   0.00000  -0.00238  -0.00237   1.88162
   A23        1.84836   0.00133   0.00000   0.01049   0.01049   1.85885
   A24        1.88398  -0.00020   0.00000  -0.00237  -0.00237   1.88161
   A25        1.95470  -0.00100   0.00000  -0.00546  -0.00546   1.94924
   A26        1.95469  -0.00099   0.00000  -0.00545  -0.00545   1.94924
   A27        1.93397   0.00110   0.00000   0.00543   0.00544   1.93941
   A28        1.84836   0.00133   0.00000   0.01049   0.01049   1.85885
   A29        1.88399  -0.00020   0.00000  -0.00238  -0.00237   1.88162
   A30        1.88398  -0.00020   0.00000  -0.00238  -0.00237   1.88161
   A31        2.00377   0.01054   0.00000   0.05250   0.05250   2.05626
   A32        1.91220  -0.00472   0.00000  -0.03008  -0.03081   1.88139
   A33        1.91220  -0.00472   0.00000  -0.03008  -0.03081   1.88139
   A34        1.88737  -0.00158   0.00000   0.00702   0.00741   1.89478
   A35        1.88737  -0.00158   0.00000   0.00702   0.00741   1.89478
   A36        1.85496   0.00154   0.00000  -0.01003  -0.01084   1.84412
   A37        1.95043   0.00139   0.00000   0.00873   0.00871   1.95914
   A38        1.92520  -0.00038   0.00000  -0.00276  -0.00275   1.92245
   A39        1.95044   0.00139   0.00000   0.00873   0.00871   1.95914
   A40        1.87087  -0.00056   0.00000  -0.00382  -0.00381   1.86706
   A41        1.89251  -0.00145   0.00000  -0.00814  -0.00819   1.88432
   A42        1.87085  -0.00056   0.00000  -0.00381  -0.00380   1.86705
    D1       -3.14159  -0.00000   0.00000  -0.00001  -0.00001   3.14159
    D2        1.00090   0.00009   0.00000  -0.00229  -0.00255   0.99835
    D3       -1.00089  -0.00009   0.00000   0.00227   0.00253  -0.99836
    D4        1.06218   0.00006   0.00000   0.00098   0.00099   1.06317
    D5       -1.07851   0.00015   0.00000  -0.00131  -0.00155  -1.08007
    D6       -3.08030  -0.00004   0.00000   0.00326   0.00352  -3.07678
    D7       -1.06219  -0.00006   0.00000  -0.00098  -0.00100  -1.06318
    D8        3.08031   0.00004   0.00000  -0.00327  -0.00354   3.07677
    D9        1.07852  -0.00015   0.00000   0.00129   0.00154   1.08006
   D10       -1.05346   0.00019   0.00000  -0.00982  -0.00984  -1.06330
   D11        1.05347  -0.00019   0.00000   0.00986   0.00988   1.06335
   D12       -3.14159   0.00000   0.00000   0.00002   0.00002  -3.14156
   D13        1.07380   0.00195   0.00000   0.01341   0.01290   1.08670
   D14       -3.10245   0.00158   0.00000   0.03309   0.03261  -3.06983
   D15       -1.01432   0.00177   0.00000   0.02325   0.02276  -0.99156
   D16        3.10244  -0.00158   0.00000  -0.03304  -0.03257   3.06987
   D17       -1.07381  -0.00195   0.00000  -0.01337  -0.01285  -1.08666
   D18        1.01432  -0.00177   0.00000  -0.02320  -0.02271   0.99161
   D19        1.06586   0.00172   0.00000   0.02110   0.02113   1.08699
   D20       -1.03893   0.00189   0.00000   0.02408   0.02411  -1.01483
   D21        3.13947   0.00206   0.00000   0.02705   0.02708  -3.11663
   D22       -1.03680  -0.00017   0.00000  -0.00298  -0.00298  -1.03978
   D23       -3.14159  -0.00000   0.00000  -0.00000  -0.00000  -3.14159
   D24        1.03682   0.00017   0.00000   0.00297   0.00297   1.03978
   D25       -3.13947  -0.00206   0.00000  -0.02704  -0.02708   3.11664
   D26        1.03892  -0.00189   0.00000  -0.02407  -0.02410   1.01482
   D27       -1.06586  -0.00172   0.00000  -0.02110  -0.02112  -1.08699
   D28       -1.06586  -0.00172   0.00000  -0.02110  -0.02112  -1.08699
   D29       -3.13948  -0.00206   0.00000  -0.02704  -0.02707   3.11664
   D30        1.03893  -0.00189   0.00000  -0.02407  -0.02410   1.01483
   D31        1.03680   0.00017   0.00000   0.00298   0.00298   1.03978
   D32       -1.03682  -0.00017   0.00000  -0.00297  -0.00297  -1.03978
   D33        3.14159  -0.00000   0.00000   0.00000   0.00000   3.14159
   D34        3.13947   0.00206   0.00000   0.02704   0.02707  -3.11664
   D35        1.06586   0.00172   0.00000   0.02110   0.02112   1.08698
   D36       -1.03892   0.00189   0.00000   0.02406   0.02409  -1.01483
   D37       -3.14159  -0.00000   0.00000  -0.00003  -0.00003   3.14156
   D38        1.01431  -0.00177   0.00000  -0.02325  -0.02276   0.99156
   D39       -1.01431   0.00177   0.00000   0.02320   0.02271  -0.99161
   D40        1.05347  -0.00019   0.00000   0.00981   0.00983   1.06330
   D41       -1.07381  -0.00195   0.00000  -0.01341  -0.01290  -1.08670
   D42       -3.10243   0.00158   0.00000   0.03304   0.03257  -3.06987
   D43       -1.05347   0.00019   0.00000  -0.00986  -0.00988  -1.06335
   D44        3.10243  -0.00158   0.00000  -0.03308  -0.03261   3.06983
   D45        1.07381   0.00195   0.00000   0.01337   0.01286   1.08666
   D46       -1.06218  -0.00006   0.00000  -0.00097  -0.00099  -1.06317
   D47        3.14158   0.00000   0.00000   0.00001   0.00001  -3.14159
   D48        1.06218   0.00006   0.00000   0.00099   0.00100   1.06318
   D49        1.07853  -0.00015   0.00000   0.00130   0.00154   1.08007
   D50       -1.00090  -0.00009   0.00000   0.00229   0.00254  -0.99835
   D51       -3.08030  -0.00004   0.00000   0.00327   0.00353  -3.07677
   D52        3.08030   0.00004   0.00000  -0.00326  -0.00353   3.07678
   D53        1.00088   0.00009   0.00000  -0.00227  -0.00253   0.99835
   D54       -1.07853   0.00015   0.00000  -0.00129  -0.00153  -1.08006
         Item               Value     Threshold  Converged?
 Maximum Force            0.010542     0.000450     NO 
 RMS     Force            0.002121     0.000300     NO 
 Maximum Displacement     0.234068     0.001800     NO 
 RMS     Displacement     0.072884     0.001200     NO 
 Predicted change in Energy=-1.673260D-03
 GradGradGradGradGradGradGradGradGradGradGradGradGradGradGradGradGradGrad

                          Input orientation:                          
 ---------------------------------------------------------------------
 Center     Atomic      Atomic             Coordinates (Angstroms)
 Number     Number       Type             X           Y           Z
 ---------------------------------------------------------------------
      1          6           0        0.987632   -0.274694   -0.072421
      2          6           0        2.500693   -0.001872   -0.081756
      3          6           0        2.970489    1.479323   -0.132603
      4          6           0        2.461453    2.155409   -1.420424
      5          6           0        2.461458    2.242139    1.105819
      6          6           0        4.524390    1.428266   -0.130860
      7          6           0        5.286109    2.763012   -0.176720
      8          1           0        0.798941   -1.352886   -0.035412
      9          1           0        0.492911    0.105286   -0.970288
     10          1           0        0.492874    0.165961    0.797255
     11          1           0        2.944789   -0.524388   -0.939228
     12          1           0        2.944755   -0.464346    0.809550
     13          1           0        1.368784    2.181581   -1.458303
     14          1           0        2.815149    1.624319   -2.311621
     15          1           0        2.799787    3.192861   -1.493026
     16          1           0        1.368788    2.270848    1.141815
     17          1           0        2.799792    3.282128    1.107097
     18          1           0        2.815154    1.773423    2.031343
     19          1           0        4.840964    0.815627   -0.985236
     20          1           0        4.840977    0.875701    0.763538
     21          1           0        5.063931    3.335598   -1.081199
     22          1           0        6.366135    2.581416   -0.170492
     23          1           0        5.063955    3.396316    0.686340
 ---------------------------------------------------------------------
                    Distance matrix (angstroms):
                    1          2          3          4          5
     1  C    0.000000
     2  C    1.537489   0.000000
     3  C    2.648003   1.554745   0.000000
     4  C    3.145578   2.539179   1.541004   0.000000
     5  C    3.145610   2.539185   1.541003   2.527731   0.000000
     6  C    3.925831   2.478519   1.554741   2.539178   2.539184
     7  C    5.264545   3.925830   2.647999   3.145578   3.145611
     8  H    1.095204   2.173326   3.570220   4.121934   4.121962
     9  H    1.093297   2.198218   2.954334   2.877636   3.570930
    10  H    1.093297   2.198219   2.954341   3.570897   2.877681
    11  H    2.155032   1.097954   2.160130   2.765226   3.474119
    12  H    2.155034   1.097953   2.160131   3.474116   2.765215
    13  H    2.845915   2.818433   2.194563   1.093639   2.787889
    14  H    3.458335   2.777710   2.189354   1.096079   3.490801
    15  H    4.162447   3.505347   2.194562   1.093640   2.787891
    16  H    2.845950   2.818438   2.194561   2.787886   1.093639
    17  H    4.162472   3.505351   2.194562   2.787890   1.093640
    18  H    3.458387   2.777723   2.189358   3.490804   1.096080
    19  H    4.107334   2.638455   2.160127   2.765226   3.474118
    20  H    4.107372   2.638482   2.160129   3.474116   2.765216
    21  H    5.537875   4.325249   2.954334   2.877640   3.570934
    22  H    6.090589   4.650042   3.570218   4.121936   4.121963
    23  H    5.537909   4.325270   2.954340   3.570899   2.877686
                    6          7          8          9         10
     6  C    0.000000
     7  C    1.537487   0.000000
     8  H    4.650041   6.090587   0.000000
     9  H    4.325245   5.537870   1.758952   0.000000
    10  H    4.325267   5.537905   1.758950   1.768584   0.000000
    11  H    2.638457   4.107334   2.471427   2.531632   3.082830
    12  H    2.638484   4.107372   2.471432   3.082830   2.531631
    13  H    3.505345   4.162446   3.852505   2.305713   3.149203
    14  H    2.777708   3.458333   4.255581   3.082114   4.145464
    15  H    2.818431   2.845915   5.176083   3.889480   4.441774
    16  H    3.505349   4.162470   3.852536   3.149254   2.305753
    17  H    2.818436   2.845951   5.176107   4.441797   3.889520
    18  H    2.777723   3.458388   4.255630   4.145513   3.082189
    19  H    1.097954   2.155031   4.684288   4.405721   4.743967
    20  H    1.097954   2.155033   4.684333   4.743983   4.405776
    21  H    2.198219   1.093297   6.423837   5.598343   5.871094
    22  H    2.173327   1.095204   6.818404   6.423836   6.423874
    23  H    2.198219   1.093298   6.423876   5.871093   5.598417
                   11         12         13         14         15
    11  H    0.000000
    12  H    1.749808   0.000000
    13  H    3.174192   3.824627   0.000000
    14  H    2.552882   3.757795   1.769368   0.000000
    15  H    3.761072   4.324123   1.752616   1.769367   0.000000
    16  H    3.824639   3.174171   2.601650   3.799497   3.136917
    17  H    4.324123   3.761067   3.136920   3.799500   2.601655
    18  H    3.757796   2.552878   3.799501   4.345523   3.799503
    19  H    2.322334   2.907781   3.761071   2.552882   3.174192
    20  H    2.907782   2.322392   4.324122   3.757794   3.824627
    21  H    4.405725   4.743987   3.889483   3.082116   2.305716
    22  H    4.684292   4.684335   5.176084   4.255581   3.852506
    23  H    4.743970   4.405780   4.441775   4.145464   3.149204
                   16         17         18         19         20
    16  H    0.000000
    17  H    1.752616   0.000000
    18  H    1.769368   1.769367   0.000000
    19  H    4.324120   3.824639   3.757795   0.000000
    20  H    3.761067   3.174171   2.552879   1.749805   0.000000
    21  H    4.441797   3.149258   4.145517   2.531635   3.082832
    22  H    5.176106   3.852536   4.255632   2.471430   2.471434
    23  H    3.889523   2.305755   3.082194   3.082831   2.531635
                   21         22         23
    21  H    0.000000
    22  H    1.758952   0.000000
    23  H    1.768582   1.758948   0.000000
 Stoichiometry    C7H16
 Framework group  C1[X(C7H16)]
 Deg. of freedom    63
 Full point group                 C1      NOp   1
 Largest Abelian subgroup         C1      NOp   1
 Largest concise Abelian subgroup C1      NOp   1
                         Standard orientation:                         
 ---------------------------------------------------------------------
 Center     Atomic      Atomic             Coordinates (Angstroms)
 Number     Number       Type             X           Y           Z
 ---------------------------------------------------------------------
      1          6           0        2.632273   -0.208068   -0.000006
      2          6           0        1.239259   -0.858749   -0.000141
      3          6           0       -0.000002    0.080114   -0.000002
      4          6           0        0.000001    0.961585    1.264000
      5          6           0        0.000001    0.961976   -1.263731
      6          6           0       -1.239259   -0.858747   -0.000141
      7          6           0       -2.632272   -0.208069   -0.000006
      8          1           0        3.409201   -0.979984   -0.000118
      9          1           0        2.799170    0.412645    0.884391
     10          1           0        2.799207    0.412936   -0.884193
     11          1           0        1.161168   -1.517643    0.874652
     12          1           0        1.161197   -1.517349   -0.875157
     13          1           0        0.876308    1.614852    1.301062
     14          1           0       -0.000001    0.348826    2.172799
     15          1           0       -0.876308    1.614851    1.301063
     16          1           0        0.876308    1.615255   -1.300588
     17          1           0       -0.876308    1.615254   -1.300592
     18          1           0        0.000001    0.349502   -2.172723
     19          1           0       -1.161166   -1.517644    0.874650
     20          1           0       -1.161195   -1.517350   -0.875156
     21          1           0       -2.799173    0.412645    0.884390
     22          1           0       -3.409202   -0.979984   -0.000121
     23          1           0       -2.799210    0.412936   -0.884191
 ---------------------------------------------------------------------
 Rotational constants (GHZ):           4.0563966           1.5426311           1.5297235
 Standard basis: 6-31G(2df,p) (6D, 7F)
 There are   297 symmetry adapted cartesian basis functions of A   symmetry.
 There are   276 symmetry adapted basis functions of A   symmetry.
   276 basis functions,   420 primitive gaussians,   297 cartesian basis functions
    29 alpha electrons       29 beta electrons
       nuclear repulsion energy       337.8253299722 Hartrees.
 NAtoms=   23 NActive=   23 NUniq=   23 SFac= 1.00D+00 NAtFMM=   60 NAOKFM=F Big=F
 Integral buffers will be    131072 words long.
 Raffenetti 2 integral format.
 Two-electron integral symmetry is turned on.
 One-electron integrals computed using PRISM.
 PrsmSu:  requested number of processors reduced to:  13 ShMem   1 Linda.
 NBasis=   276 RedAO= T EigKep=  7.09D-04  NBF=   276
 NBsUse=   276 1.00D-06 EigRej= -1.00D+00 NBFU=   276
 Initial guess from the checkpoint file:  "CCCqCrqCrCC.chk"
 B after Tr=    -0.000000   -0.000000    0.000000
         Rot=    0.707702    0.706511    0.000000   -0.000000 Ang=  89.90 deg.
 ExpMin= 1.61D-01 ExpMax= 3.05D+03 ExpMxC= 4.57D+02 IAcc=2 IRadAn=         4 AccDes= 0.00D+00
 Harris functional with IExCor=  402 and IRadAn=       4 diagonalized for initial guess.
 HarFok:  IExCor=  402 AccDes= 0.00D+00 IRadAn=         4 IDoV= 1 UseB2=F ITyADJ=14
 ICtDFT=  3500011 ScaDFX=  1.000000  1.000000  1.000000  1.000000
 FoFCou: FMM=F IPFlag=           0 FMFlag=      100000 FMFlg1=           0
         NFxFlg=           0 DoJE=T BraDBF=F KetDBF=T FulRan=T
         wScrn=  0.000000 ICntrl=       500 IOpCl=  0 I1Cent=   200000004 NGrid=           0
         NMat0=    1 NMatS0=      1 NMatT0=    0 NMatD0=    1 NMtDS0=    0 NMtDT0=    0
 Petite list used in FoFCou.
 Requested convergence on RMS density matrix=1.00D-08 within 128 cycles.
 Requested convergence on MAX density matrix=1.00D-06.
 Requested convergence on             energy=1.00D-06.
 No special actions if energy rises.
 Integral accuracy reduced to 1.0D-05 until final iterations.
 Initial convergence to 1.0D-05 achieved.  Increase integral accuracy.
 SCF Done:  E(RB3LYP) =  -276.418355931     A.U. after   10 cycles
            NFock= 10  Conv=0.31D-08     -V/T= 2.0095
 PrsmSu:  requested number of processors reduced to:  13 ShMem   1 Linda.
 Calling FoFJK, ICntrl=      2127 FMM=F ISym2X=0 I1Cent= 0 IOpClX= 0 NMat=1 NMatS=1 NMatT=0.
 ***** Axes restored to original set *****
 -------------------------------------------------------------------
 Center     Atomic                   Forces (Hartrees/Bohr)
 Number     Number              X              Y              Z
 -------------------------------------------------------------------
      1        6           0.002153516   -0.000047482    0.000001981
      2        6          -0.001658171   -0.000017619    0.000000415
      3        6           0.000678980   -0.000962267    0.000031882
      4        6          -0.000221718    0.000350150    0.001016992
      5        6          -0.000221829    0.000279551   -0.001038514
      6        6           0.000570667    0.001554780   -0.000053246
      7        6          -0.000672126   -0.002042844    0.000071029
      8        1           0.000573190    0.000053594   -0.000001923
      9        1          -0.000115790    0.000777471   -0.000430681
     10        1          -0.000115817    0.000805572    0.000376479
     11        1          -0.000248452   -0.000200178   -0.000245340
     12        1          -0.000248086   -0.000183234    0.000259012
     13        1          -0.000579915   -0.000748554    0.000222272
     14        1           0.000002774   -0.000002198    0.000059313
     15        1           0.000905517    0.000301059    0.000186294
     16        1          -0.000579843   -0.000762088   -0.000170319
     17        1           0.000905589    0.000287405   -0.000206527
     18        1           0.000002913   -0.000006449   -0.000059483
     19        1           0.000263433    0.000161894   -0.000257967
     20        1           0.000263533    0.000179095    0.000246339
     21        1          -0.000708021    0.000358583   -0.000416348
     22        1          -0.000241820   -0.000522664    0.000017646
     23        1          -0.000708527    0.000386421    0.000390694
 -------------------------------------------------------------------
 Cartesian Forces:  Max     0.002153516 RMS     0.000624173

 GradGradGradGradGradGradGradGradGradGradGradGradGradGradGradGradGradGrad
 Berny optimization.
 Using GEDIIS/GDIIS optimizer.
 FormGI is forming the generalized inverse of G from B-inverse, IUseBI=4.
 Internal  Forces:  Max     0.002737775 RMS     0.000687833
 Search for a local minimum.
 Step number   2 out of a maximum of  128
 All quantities printed in internal units (Hartrees-Bohrs-Radians)
 Mixed Optimization -- En-DIIS/RFO-DIIS
 Update second derivatives using D2CorX and points    1    2
 DE= -1.25D-03 DEPred=-1.67D-03 R= 7.49D-01
 TightC=F SS=  1.41D+00  RLast= 1.70D-01 DXNew= 5.0454D-01 5.1118D-01
 Trust test= 7.49D-01 RLast= 1.70D-01 DXMaxT set to 5.05D-01
 ITU=  1  0
 Use linear search instead of GDIIS.
     Eigenvalues ---    0.00230   0.00230   0.00238   0.00238   0.00382
     Eigenvalues ---    0.00382   0.03013   0.03013   0.04371   0.04668
     Eigenvalues ---    0.04678   0.05099   0.05191   0.05282   0.05320
     Eigenvalues ---    0.05344   0.05344   0.05347   0.05366   0.05578
     Eigenvalues ---    0.05578   0.09050   0.09185   0.12803   0.12803
     Eigenvalues ---    0.14073   0.14475   0.15712   0.16000   0.16000
     Eigenvalues ---    0.16000   0.16000   0.16000   0.16000   0.16000
     Eigenvalues ---    0.16000   0.16000   0.16000   0.16177   0.21988
     Eigenvalues ---    0.23525   0.26755   0.26854   0.28524   0.28608
     Eigenvalues ---    0.29512   0.31816   0.33974   0.33984   0.33984
     Eigenvalues ---    0.33985   0.34219   0.34220   0.34231   0.34237
     Eigenvalues ---    0.34305   0.34305   0.34306   0.34384   0.34507
     Eigenvalues ---    0.34508   0.34508   0.34820
 RFO step:  Lambda=-1.08251630D-04 EMin= 2.30000000D-03
 Quartic linear search produced a step of -0.18832.
 Iteration  1 RMS(Cart)=  0.01426982 RMS(Int)=  0.00007839
 Iteration  2 RMS(Cart)=  0.00011984 RMS(Int)=  0.00004529
 Iteration  3 RMS(Cart)=  0.00000000 RMS(Int)=  0.00004529
 Variable       Old X    -DE/DX   Delta X   Delta X   Delta X     New X
                                 (Linear)    (Quad)   (Total)
    R1        2.90543  -0.00274  -0.00300  -0.00396  -0.00696   2.89848
    R2        2.06964  -0.00015  -0.00000  -0.00035  -0.00036   2.06928
    R3        2.06603   0.00068  -0.00023   0.00186   0.00163   2.06766
    R4        2.06603   0.00068  -0.00023   0.00186   0.00163   2.06766
    R5        2.93804  -0.00124   0.00172  -0.00577  -0.00406   2.93399
    R6        2.07483   0.00019  -0.00024   0.00073   0.00049   2.07532
    R7        2.07483   0.00019  -0.00024   0.00073   0.00049   2.07532
    R8        2.91207  -0.00132  -0.00038  -0.00330  -0.00368   2.90839
    R9        2.91207  -0.00132  -0.00038  -0.00331  -0.00368   2.90839
   R10        2.93803  -0.00123   0.00171  -0.00576  -0.00405   2.93398
   R11        2.06668   0.00055   0.00028   0.00098   0.00126   2.06793
   R12        2.07129  -0.00005  -0.00037   0.00033  -0.00004   2.07125
   R13        2.06668   0.00055   0.00028   0.00097   0.00125   2.06793
   R14        2.06668   0.00055   0.00028   0.00098   0.00126   2.06793
   R15        2.06668   0.00055   0.00028   0.00097   0.00125   2.06793
   R16        2.07129  -0.00005  -0.00037   0.00033  -0.00004   2.07125
   R17        2.90543  -0.00274  -0.00300  -0.00395  -0.00695   2.89847
   R18        2.07483   0.00019  -0.00024   0.00073   0.00049   2.07532
   R19        2.07483   0.00019  -0.00024   0.00073   0.00049   2.07532
   R20        2.06603   0.00068  -0.00023   0.00186   0.00163   2.06766
   R21        2.06964  -0.00015  -0.00000  -0.00036  -0.00036   2.06928
   R22        2.06603   0.00068  -0.00023   0.00186   0.00163   2.06767
    A1        1.92245  -0.00053   0.00052  -0.00208  -0.00156   1.92088
    A2        1.95914  -0.00030  -0.00164  -0.00019  -0.00183   1.95731
    A3        1.95914  -0.00030  -0.00164  -0.00019  -0.00183   1.95731
    A4        1.86706   0.00058   0.00072   0.00323   0.00395   1.87100
    A5        1.86705   0.00058   0.00072   0.00323   0.00395   1.87100
    A6        1.88432   0.00006   0.00154  -0.00369  -0.00214   1.88218
    A7        2.05626  -0.00260  -0.00989   0.00085  -0.00904   2.04722
    A8        1.89478   0.00055  -0.00140   0.00174   0.00028   1.89505
    A9        1.89478   0.00055  -0.00139   0.00174   0.00027   1.89505
   A10        1.88139   0.00098   0.00580  -0.00263   0.00329   1.88469
   A11        1.88139   0.00098   0.00580  -0.00264   0.00329   1.88468
   A12        1.84413  -0.00027   0.00204   0.00093   0.00312   1.84725
   A13        1.92356  -0.00017  -0.00214   0.00164  -0.00050   1.92306
   A14        1.92357  -0.00017  -0.00214   0.00164  -0.00051   1.92306
   A15        1.84490   0.00095   0.00953   0.00111   0.01062   1.85552
   A16        1.92337  -0.00024  -0.00078  -0.00723  -0.00796   1.91541
   A17        1.92356  -0.00017  -0.00214   0.00164  -0.00050   1.92306
   A18        1.92357  -0.00017  -0.00214   0.00163  -0.00051   1.92306
   A19        1.94925  -0.00061   0.00103  -0.00377  -0.00275   1.94650
   A20        1.93940   0.00009  -0.00102   0.00058  -0.00045   1.93896
   A21        1.94924  -0.00061   0.00103  -0.00377  -0.00274   1.94650
   A22        1.88162   0.00015   0.00045  -0.00076  -0.00032   1.88130
   A23        1.85885   0.00091  -0.00198   0.00895   0.00697   1.86583
   A24        1.88161   0.00015   0.00045  -0.00076  -0.00031   1.88130
   A25        1.94924  -0.00061   0.00103  -0.00377  -0.00275   1.94650
   A26        1.94924  -0.00061   0.00103  -0.00377  -0.00274   1.94650
   A27        1.93941   0.00009  -0.00102   0.00058  -0.00045   1.93896
   A28        1.85885   0.00091  -0.00198   0.00895   0.00697   1.86583
   A29        1.88162   0.00015   0.00045  -0.00076  -0.00032   1.88130
   A30        1.88161   0.00015   0.00045  -0.00076  -0.00031   1.88130
   A31        2.05626  -0.00260  -0.00989   0.00085  -0.00904   2.04723
   A32        1.88139   0.00098   0.00580  -0.00263   0.00329   1.88469
   A33        1.88139   0.00098   0.00580  -0.00264   0.00329   1.88468
   A34        1.89478   0.00055  -0.00140   0.00174   0.00028   1.89506
   A35        1.89478   0.00055  -0.00140   0.00174   0.00027   1.89505
   A36        1.84412  -0.00027   0.00204   0.00094   0.00312   1.84725
   A37        1.95914  -0.00030  -0.00164  -0.00019  -0.00183   1.95731
   A38        1.92245  -0.00053   0.00052  -0.00208  -0.00157   1.92088
   A39        1.95914  -0.00030  -0.00164  -0.00019  -0.00183   1.95731
   A40        1.86706   0.00058   0.00072   0.00323   0.00395   1.87100
   A41        1.88432   0.00006   0.00154  -0.00368  -0.00214   1.88218
   A42        1.86705   0.00058   0.00072   0.00324   0.00395   1.87100
    D1        3.14159   0.00000   0.00000   0.00001   0.00001  -3.14159
    D2        0.99835   0.00013   0.00048   0.00146   0.00198   1.00034
    D3       -0.99836  -0.00013  -0.00048  -0.00145  -0.00197  -1.00033
    D4        1.06317  -0.00018  -0.00019  -0.00254  -0.00272   1.06044
    D5       -1.08007  -0.00005   0.00029  -0.00109  -0.00075  -1.08082
    D6       -3.07678  -0.00031  -0.00066  -0.00400  -0.00471  -3.08149
    D7       -1.06318   0.00018   0.00019   0.00256   0.00275  -1.06044
    D8        3.07677   0.00031   0.00067   0.00401   0.00472   3.08149
    D9        1.08006   0.00005  -0.00029   0.00110   0.00076   1.08082
   D10       -1.06330   0.00026   0.00185   0.00341   0.00527  -1.05803
   D11        1.06335  -0.00026  -0.00186  -0.00349  -0.00536   1.05799
   D12       -3.14156  -0.00000  -0.00000  -0.00005  -0.00005   3.14157
   D13        1.08670  -0.00006  -0.00243   0.00417   0.00183   1.08853
   D14       -3.06983  -0.00059  -0.00614  -0.00273  -0.00880  -3.07863
   D15       -0.99156  -0.00032  -0.00429   0.00071  -0.00349  -0.99505
   D16        3.06987   0.00059   0.00613   0.00266   0.00872   3.07859
   D17       -1.08666   0.00006   0.00242  -0.00423  -0.00191  -1.08857
   D18        0.99161   0.00032   0.00428  -0.00079   0.00340   0.99501
   D19        1.08699  -0.00064  -0.00398  -0.00478  -0.00876   1.07823
   D20       -1.01483  -0.00048  -0.00454  -0.00165  -0.00619  -1.02101
   D21       -3.11663  -0.00032  -0.00510   0.00148  -0.00362  -3.12025
   D22       -1.03978  -0.00016   0.00056  -0.00314  -0.00257  -1.04235
   D23       -3.14159   0.00000   0.00000  -0.00000   0.00000  -3.14159
   D24        1.03978   0.00016  -0.00056   0.00313   0.00257   1.04236
   D25        3.11664   0.00032   0.00510  -0.00148   0.00362   3.12025
   D26        1.01482   0.00048   0.00454   0.00165   0.00619   1.02101
   D27       -1.08699   0.00064   0.00398   0.00478   0.00876  -1.07823
   D28       -1.08699   0.00064   0.00398   0.00478   0.00876  -1.07823
   D29        3.11664   0.00032   0.00510  -0.00149   0.00361   3.12025
   D30        1.01483   0.00048   0.00454   0.00164   0.00618   1.02101
   D31        1.03978   0.00016  -0.00056   0.00314   0.00258   1.04235
   D32       -1.03978  -0.00016   0.00056  -0.00313  -0.00257  -1.04236
   D33        3.14159  -0.00000  -0.00000   0.00000   0.00000   3.14159
   D34       -3.11664  -0.00032  -0.00510   0.00149  -0.00361  -3.12025
   D35        1.08698  -0.00064  -0.00398  -0.00478  -0.00876   1.07823
   D36       -1.01483  -0.00048  -0.00454  -0.00165  -0.00618  -1.02101
   D37        3.14156   0.00000   0.00001   0.00004   0.00005  -3.14157
   D38        0.99156   0.00032   0.00429  -0.00071   0.00349   0.99505
   D39       -0.99161  -0.00032  -0.00428   0.00079  -0.00340  -0.99501
   D40        1.06330  -0.00026  -0.00185  -0.00341  -0.00527   1.05803
   D41       -1.08670   0.00006   0.00243  -0.00417  -0.00183  -1.08854
   D42       -3.06987  -0.00059  -0.00613  -0.00267  -0.00872  -3.07859
   D43       -1.06335   0.00026   0.00186   0.00349   0.00536  -1.05799
   D44        3.06983   0.00059   0.00614   0.00274   0.00880   3.07862
   D45        1.08666  -0.00006  -0.00242   0.00423   0.00191   1.08857
   D46       -1.06317   0.00018   0.00019   0.00254   0.00272  -1.06044
   D47       -3.14159   0.00000  -0.00000  -0.00001  -0.00001   3.14159
   D48        1.06318  -0.00018  -0.00019  -0.00256  -0.00275   1.06044
   D49        1.08007   0.00005  -0.00029   0.00108   0.00075   1.08082
   D50       -0.99835  -0.00013  -0.00048  -0.00146  -0.00198  -1.00034
   D51       -3.07677  -0.00031  -0.00067  -0.00401  -0.00472  -3.08149
   D52        3.07678   0.00031   0.00066   0.00400   0.00471   3.08149
   D53        0.99835   0.00013   0.00048   0.00146   0.00198   1.00033
   D54       -1.08006  -0.00005   0.00029  -0.00109  -0.00076  -1.08082
         Item               Value     Threshold  Converged?
 Maximum Force            0.002738     0.000450     NO 
 RMS     Force            0.000688     0.000300     NO 
 Maximum Displacement     0.050921     0.001800     NO 
 RMS     Displacement     0.014271     0.001200     NO 
 Predicted change in Energy=-1.227639D-04
 GradGradGradGradGradGradGradGradGradGradGradGradGradGradGradGradGradGrad

                          Input orientation:                          
 ---------------------------------------------------------------------
 Center     Atomic      Atomic             Coordinates (Angstroms)
 Number     Number       Type             X           Y           Z
 ---------------------------------------------------------------------
      1          6           0        0.988433   -0.259311   -0.072906
      2          6           0        2.501623   -0.008817   -0.081534
      3          6           0        2.978626    1.467821   -0.132235
      4          6           0        2.467340    2.147265   -1.415058
      5          6           0        2.467340    2.233650    1.100964
      6          6           0        4.530633    1.425073   -0.130766
[...]
 380,0.00018147,-0.00004329,-0.00015074,0.00002311,0.00021143,-0.000192
 68,-0.00056832,-0.00064407,0.00093223,-0.04679964,0.11596892,0.0001005
 4,0.00034871,-0.00001026,0.00038580,-0.00178902,0.00054046,0.00961178,
 -0.01431138,-0.02249848,0.06777306,-0.10163071,-0.21389102,-0.00310006
 ,0.00424872,-0.00391435,0.00155295,-0.00093417,0.00054527,-0.00035849,
 0.00001965,-0.00000017,0.00006677,0.00005421,0.00001935,0.00016475,-0.
 00002164,-0.00012124,-0.00018058,-0.00008369,0.00013929,-0.00020574,0.
 00110768,0.00046209,-0.00024353,0.00002118,0.00045700,-0.00029339,0.00
 070170,0.00069217,-0.07405908,0.11132984,0.23620862,-0.00029697,-0.000
 21631,-0.00039206,-0.00119799,0.00080204,-0.00212767,0.00342038,0.0111
 3360,0.00024069,-0.07235163,-0.08036390,0.00458030,-0.00000060,-0.0001
 6603,0.00037746,0.00040013,0.00041655,0.00060378,-0.00084400,0.0001995
 8,-0.00074790,0.00018325,-0.00011641,0.00024674,0.00043462,0.00009906,
 0.00042233,0.00004373,-0.00000682,0.00006410,-0.00001134,-0.00028020,-
 0.00008346,0.00036301,0.00074854,-0.00033992,-0.01028423,-0.03144195,0
 .00101150,0.00311606,0.01132311,-0.00090138,0.07864987,0.00049411,0.00
 024650,-0.00005188,0.00175021,0.00034123,0.00319150,-0.00420477,-0.014
 18784,-0.00012898,-0.07909733,-0.28083284,0.01220738,0.00000848,0.0003
 9761,-0.00099683,-0.00097250,-0.00052039,-0.00003857,-0.00079176,-0.00
 032196,0.00061354,-0.00008858,-0.00001075,-0.00002081,0.00003479,0.000
 06865,-0.00011038,-0.00008814,-0.00001288,0.00009605,-0.00001834,0.000
 41296,-0.00008310,-0.00046162,-0.00106359,0.00036090,0.00024657,0.0007
 4015,-0.00037371,-0.00536802,-0.01418640,0.00102553,0.08838624,0.30649
 355,-0.00057565,-0.00008657,-0.00003373,-0.00244646,0.00105962,-0.0050
 1062,0.01029075,0.02614100,-0.00136168,0.00433747,0.01109186,-0.047480
 83,0.00045672,0.00105122,0.00161329,0.00074132,-0.00028465,0.00083474,
 -0.00034121,-0.00016648,0.00015654,0.00010745,-0.00000972,0.00006422,0
 .00022759,-0.00011987,0.00010549,0.00006576,-0.00002074,0.00000453,-0.
 00020368,0.00018904,0.00019087,0.00031399,0.00192877,-0.00001135,0.000
 31635,-0.00009607,-0.00080164,-0.00962885,-0.02457371,0.00157275,-0.00
 291447,-0.01490584,0.05041479,-0.00056733,-0.00086589,0.00034549,-0.00
 059587,-0.00064053,0.00014806,-0.01094822,0.00051208,-0.00037537,0.000
 29450,-0.00014081,-0.00085100,-0.30831521,0.00437830,0.00439861,0.0008
 8600,0.00118077,0.00243854,0.00028772,0.00030074,-0.00018320,0.0003489
 3,-0.00023962,-0.00035166,0.00004138,0.00001205,-0.00003909,0.00050377
 ,-0.00091231,-0.00092990,0.00011045,0.00013482,0.00000602,0.00002053,-
 0.00002895,0.00005490,0.00062521,-0.00014635,0.00055617,0.00034542,0.0
 0006604,0.00004583,-0.00005351,0.00002734,0.00002490,0.33740305,0.0001
 1712,-0.00065306,-0.00086880,0.00074458,0.00053649,0.00062051,0.017135
 69,-0.00063470,0.00079175,-0.00024519,0.00013098,0.00074738,0.00306672
 ,-0.04536727,0.00026890,0.00015051,-0.00209591,-0.00319697,-0.00041799
 ,-0.00036305,-0.00035119,-0.00012429,0.00016000,0.00029117,-0.00007941
 ,0.00005803,0.00009859,-0.00102531,-0.00161364,-0.00012013,-0.00019464
 ,0.00019256,0.00003919,-0.00001318,-0.00009400,-0.00007773,-0.00018412
 ,0.00039034,-0.00010523,-0.00001317,-0.00016551,0.00010884,-0.00018526
 ,0.00000246,-0.00003331,-0.00324158,0.04860971,-0.00029981,-0.00025774
 ,0.00021084,-0.00010163,0.00078712,0.00077414,0.02701055,0.00100893,-0
 .00054653,0.00111302,0.00014506,0.00158481,0.00332500,0.00045282,-0.04
 698320,0.00036732,-0.00275615,-0.00465742,-0.00024429,-0.00048964,-0.0
 0000885,-0.00009834,0.00009913,-0.00001745,-0.00007954,-0.00010115,-0.
 00016624,-0.00012850,-0.00045526,0.00012627,-0.00000362,0.00020593,-0.
 00000249,-0.00006358,-0.00009027,-0.00000269,-0.00054480,0.00004594,-0
 .00047306,-0.00029373,-0.00004008,0.00031555,-0.00001322,0.00003088,-0
 .00009753,-0.00559383,0.00217999,0.04954553,-0.00029696,-0.00018883,0.
 00040594,-0.00119793,0.00094610,0.00206760,0.00342020,0.01109092,-0.00
 100359,-0.00000060,-0.00019155,-0.00036517,-0.07235173,-0.08048895,0.0
 0094204,0.00040019,0.00037404,-0.00063098,-0.00084396,0.00025042,0.000
 73244,0.00018325,-0.00013304,-0.00023816,0.00004373,-0.00001121,-0.000
 06349,0.00043464,0.00006988,-0.00042806,0.00036299,0.00077007,0.000287
 80,-0.00001135,-0.00027382,0.00010250,-0.00005351,-0.00018392,0.000025
 89,-0.00009105,0.00014761,-0.00010813,0.00031342,-0.00005891,-0.000110
 42,-0.01028431,-0.03143738,0.00114725,0.07864966,0.00053241,0.00025461
 ,0.00003206,0.00191393,0.00002519,-0.00353763,-0.00490055,-0.01590738,
 0.00112883,-0.00002286,0.00039962,0.00108025,-0.07920889,-0.28132974,0
 .00386846,-0.00102108,-0.00049175,0.00012989,-0.00076634,-0.00035035,-
 0.00057864,-0.00009574,-0.00000831,0.00002580,-0.00009245,-0.00001794,
 -0.00009450,0.00001908,0.00008458,0.00011183,-0.00048208,-0.00121529,-
 0.00027816,-0.00000433,0.00040469,0.00006838,0.00002557,0.00000216,-0.
 00003773,0.00022381,0.00027759,-0.00001320,-0.00005123,0.00070175,-0.0
 0058487,0.00022431,0.00076504,0.00026601,0.08837814,0.30732916,0.00054
 037,0.00006672,-0.00004184,0.00232070,-0.00140575,-0.00469459,-0.00997
 821,-0.02514109,0.00035773,-0.00045623,-0.00096774,0.00161127,0.001097
 46,0.00498380,-0.04698420,-0.00067287,0.00037588,0.00080632,0.00039474
 ,0.00020127,0.00018476,-0.00010113,0.00001471,0.00006178,-0.00005956,0
 .00002228,0.00000958,-0.00022942,0.00012130,0.00008954,-0.00028160,-0.
 00184600,0.00014035,0.00020445,-0.00020372,0.00019918,-0.00002672,0.00
 002646,-0.00009722,0.00014383,0.00025967,0.00030893,0.00011413,0.00050
 413,-0.00047269,-0.00033248,-0.00001149,-0.00082652,-0.00315407,-0.002
 75564,0.04957946,0.00000756,-0.00013311,-0.00001023,0.00018614,-0.0001
 2210,-0.00051900,0.00226530,-0.00545722,0.00900160,-0.00057544,0.00102
 170,0.00173418,-0.07466340,0.03666955,-0.07097509,0.00092849,-0.000738
 63,0.00090999,-0.00003947,0.00002238,-0.00006532,0.00003510,-0.0000641
 8,0.00000729,0.00000544,0.00008996,0.00017529,-0.00017269,0.00010299,-
 0.00008575,-0.00006920,-0.00018796,0.00004204,0.00017651,-0.00010613,-
 0.00013290,0.00034542,0.00000701,0.00029394,0.00072882,-0.00007558,0.0
 0060064,-0.00009105,0.00021342,-0.00015884,-0.00954577,0.01489103,-0.0
 2744782,0.00311613,-0.00469502,0.00997432,0.07719975,0.00000451,-0.000
 01070,0.00007399,-0.00051931,0.00127122,-0.00077918,-0.00608271,0.0063
 3580,-0.01344999,0.00106633,-0.00149283,-0.00257582,0.03668739,-0.0957
 0566,0.09424131,-0.00041935,0.00053542,0.00024098,-0.00010354,0.000046
 31,0.00003687,-0.00002393,-0.00000069,0.00002928,0.00008685,0.00002542
 ,0.00003163,-0.00003077,-0.00000739,0.00002878,0.00003975,0.00022432,0
 .00020867,0.00019510,-0.00010644,0.00018975,0.00006274,-0.00016795,0.0
 0007332,-0.00011660,0.00079377,-0.00093385,0.00015468,0.00026087,-0.00
 025637,-0.00054684,-0.00074958,-0.00083308,0.01135839,-0.01250112,0.02
 554115,-0.04161074,0.10130008,-0.00010109,-0.00034866,0.00000863,-0.00
 035101,0.00173881,0.00047097,-0.00921639,0.01232921,-0.02255760,0.0030
 3406,-0.00441520,-0.00344523,-0.07045549,0.09350605,-0.22735540,-0.001
 52781,0.00093485,0.00046441,0.00036643,-0.00002285,-0.00000135,-0.0000
 6528,-0.00005284,0.00002106,0.00017504,0.00009152,0.00013135,-0.000162
 98,0.00001384,-0.00012469,0.00024137,-0.00000519,0.00044413,0.00019276
 ,-0.00106861,0.00052517,-0.00005025,-0.00007559,0.00031799,-0.00059406
 ,0.00075671,-0.00178311,0.00009775,0.00001651,0.00032565,0.00033171,-0
 .00060267,0.00079779,0.00012272,-0.00005803,-0.00011258,0.07709487,-0.
 10205556,0.25087691,0.00015541,-0.00010485,-0.00038259,0.00059918,0.00
 195991,0.00121533,-0.01263154,0.01704425,0.02665730,0.00137040,-0.0000
 2433,0.00145223,-0.00675238,-0.00096394,-0.00154816,-0.06686525,0.0400
 8536,0.05581901,0.00347380,-0.01017630,-0.01302307,-0.00000545,-0.0000
 2862,-0.00003523,-0.00001056,0.00000650,0.00002229,0.00027321,0.000096
 00,-0.00005680,-0.00015615,-0.00104527,-0.00062935,0.00000187,-0.00014
 814,-0.00008204,0.00027168,-0.00038104,-0.00010422,-0.00002018,-0.0000
 6484,-0.00095881,-0.00008921,0.00000421,-0.00010941,-0.00088337,0.0012
 6424,0.00183893,0.00015694,0.00011127,-0.00020069,0.00013613,-0.000264
 09,-0.00005961,0.07846875,0.00013836,0.00011339,0.00021029,-0.00140661
 ,0.00026563,0.00077909,0.00163539,-0.00279479,-0.00309561,-0.00023630,
 -0.00025038,-0.00068717,0.00048809,0.00043512,0.00087245,0.04032744,-0
 .11979989,-0.10589710,0.00693608,-0.01911485,-0.02451314,0.00001930,0.
 00000599,0.00002312,0.00005068,0.00000486,0.00000104,-0.00011633,-0.00
 001687,0.00005292,-0.00053167,0.00041860,0.00002205,0.00006338,0.00003
 130,0.00010771,-0.00010782,0.00013712,0.00026000,0.00026174,0.00013421
 ,0.00056342,0.00002578,0.00002325,-0.00003035,-0.00002463,0.00007966,-
 0.00034953,-0.00021231,0.00014021,0.00007588,-0.00004803,0.00000594,-0
 .00021776,-0.03983785,0.13433100,0.00000237,0.00047634,0.00035442,-0.0
 0055126,-0.00047906,-0.00022228,-0.00019141,-0.00008735,-0.00187989,-0
 .00043716,0.00044087,0.00072973,0.00066205,0.00042345,0.00093413,0.056
 75399,-0.10600573,-0.20285738,-0.00059052,0.00118798,0.00139783,0.0000
 9872,0.00003324,-0.00000145,-0.00001553,-0.00001103,-0.00002059,-0.000
 25092,-0.00002837,0.00005573,0.00022680,0.00063954,0.00063083,0.000074
 02,-0.00012311,-0.00007998,0.00010606,0.00006449,0.00018369,0.00010512
 ,-0.00017267,0.00048132,-0.00005903,0.00007659,-0.00001018,0.00020001,
 -0.00040395,0.00009176,-0.00003926,0.00000056,0.00000337,-0.00019973,0
 .00004871,0.00045717,-0.06273506,0.11828191,0.21880803,0.00015539,-0.0
 0007836,0.00038888,0.00059937,0.00187178,-0.00134673,-0.01263167,0.015
 17513,-0.02776408,-0.00675241,-0.00085554,0.00161067,0.00137037,-0.000
 12383,-0.00144720,-0.06686683,0.03616139,-0.05844011,0.00347405,-0.009
 25860,0.01369071,-0.00000545,-0.00002614,0.00003712,0.00027320,0.00009
 968,0.00005009,-0.00001057,0.00000496,-0.00002268,0.00000185,-0.000142
 16,0.00009200,-0.00015610,-0.00099952,0.00069954,-0.00088338,0.0011351
 7,-0.00192130,0.00013613,-0.00025938,0.00007759,0.00015695,0.00012479,
 0.00019257,0.00027170,-0.00037300,0.00013009,-0.00008920,0.00001172,0.
 00010887,-0.00002025,0.00000104,0.00096103,0.00246017,-0.00479341,0.00
 779362,0.07847017,0.00013789,0.00006752,-0.00019051,-0.00136514,0.0002
 4286,-0.00081101,0.00164463,-0.00257248,0.00314318,0.00044157,0.000348
 83,-0.00083216,-0.00020567,-0.00022889,0.00075306,0.03633872,-0.105683
 71,0.09921242,0.00696070,-0.01742125,0.02580753,0.00001248,0.00000210,
 -0.00002337,-0.00009883,-0.00001821,-0.00004784,0.00005162,0.00000543,
 -0.00000283,0.00005816,0.00003185,-0.00011541,-0.00054589,0.00037431,-
 0.00000435,-0.00003828,0.00013128,0.00034682,-0.00003421,0.00001962,0.
 00024785,-0.00020914,0.00013434,-0.00008488,-0.00011486,0.00011512,-0.
 00025528,0.00002978,0.00001989,0.00002829,0.00025388,0.00010909,-0.000
 53779,-0.00531716,0.00854558,-0.01443129,-0.03544049,0.11853288,-0.000
 01189,-0.00045659,0.00040023,0.00064636,0.00044699,-0.00019946,0.00007
 892,0.00013489,-0.00210173,-0.00069381,-0.00038323,0.00102047,0.000452
 42,-0.00037496,0.00070829,-0.05938955,0.09932131,-0.21697232,0.0001130
 7,0.00010661,-0.00029587,-0.00009981,-0.00003348,0.00000243,0.00025828
 ,0.00003345,0.00005708,0.00001201,0.00000924,-0.00002115,-0.00007818,0
 .00011543,-0.00008051,-0.00018986,-0.00062187,0.00067507,-0.00019782,0
 .00040121,0.00004018,0.00020256,-0.00001863,0.00044347,0.00005372,-0.0
 0000956,0.00000924,-0.00009840,-0.00005979,0.00020569,0.00005710,-0.00
 007866,-0.00000686,-0.00012275,0.00019826,0.00050640,-0.00744659,0.012
 35644,-0.02161894,0.06532296,-0.11138407,0.23460461,-0.00006569,0.0000
 9590,-0.00008566,0.00003274,-0.00009364,-0.00013764,0.00077200,0.00039
 447,0.00075611,-0.00071970,-0.00066439,-0.00022727,-0.00017649,0.00002
 297,0.00002517,0.00416574,-0.00785335,0.01464490,-0.05937725,0.0303631
 3,-0.04882877,0.00002628,0.00002317,-0.00001127,-0.00006692,-0.0000429
 1,-0.00000094,-0.00000112,-0.00000653,0.00000256,0.00002132,-0.0000050
 5,0.00001434,0.00001163,0.00018636,-0.00012049,0.00015140,0.00018583,0
 .00003138,-0.00000184,0.00004414,-0.00003943,-0.00195651,-0.00002865,-
 0.00053875,-0.00004009,0.00002062,0.,0.00003614,0.00001919,0.00011492,
 0.00007131,0.00005569,-0.00014402,0.00042213,0.00084440,-0.00034744,-0
 .00103648,-0.00340235,0.00026963,0.06342267,0.00000054,0.00006086,-0.0
 0010369,-0.00004562,-0.00005377,0.00011016,0.00115727,0.00051345,0.000
 34140,0.00012243,-0.00013499,0.00012082,-0.00010346,-0.00003791,-0.000
 07858,0.00743089,-0.01535463,0.02525095,0.02979398,-0.11458476,0.10946
 281,-0.00001289,0.00000264,-0.00002125,-0.00012089,-0.00001037,-0.0000
 4240,-0.00001373,0.00000630,0.00000410,0.00003957,-0.00002707,0.000009
 82,-0.00001413,0.00023354,-0.00023596,0.00012575,0.00033570,-0.0002640
 3,-0.00008542,-0.00018836,-0.00015830,-0.00016721,0.00083873,-0.000007
 96,-0.00005686,0.00007156,0.00006404,-0.00007773,0.00006687,0.00003837
 ,0.00005453,-0.00005453,-0.00013197,0.00066400,0.00102265,-0.00038316,
 -0.00349667,-0.00505297,-0.00030550,-0.03141308,0.12576738,-0.00003353
 ,0.00004173,-0.00005400,0.00024929,0.00001248,0.00001338,-0.00077787,0
 .00053747,-0.00034082,-0.00072430,0.00073941,-0.00000615,0.00027994,0.
 00003692,0.00005079,0.00096380,0.00026571,0.00004151,-0.04810060,0.110
 11648,-0.22871245,0.00003482,0.00000163,0.00001946,0.00004685,-0.00001
 051,0.00005030,0.00000517,0.00000077,0.00000466,-0.00001068,-0.0000203
 6,-0.00002053,0.00003020,-0.00007331,0.00006690,-0.00004116,-0.0004464
 5,0.00012166,0.00000641,-0.00008613,-0.00011464,-0.00048369,-0.0008712
 9,0.00013376,0.00011320,0.00002618,0.00000390,-0.00008470,0.00006387,-
 0.00016985,-0.00008760,-0.00015227,0.00014544,0.00041664,0.00035707,0.
 00081845,-0.00011550,-0.00017002,0.00169586,0.05510599,-0.12270353,0.2
 4692808,0.00006699,-0.00044195,0.00001517,-0.00107043,0.00042098,-0.00
 001445,0.00119300,-0.00307218,0.00010550,0.00025097,0.00003254,0.00032
 065,0.00025095,0.00001045,-0.00032211,-0.01535471,0.00301504,-0.000103
 42,-0.30128017,0.04329273,-0.00148437,-0.00016247,-0.00005663,0.000001
 94,0.00000886,0.00002926,-0.00001348,0.00000886,0.00003011,0.00001145,
 -0.00000062,-0.00003130,-0.00006359,-0.00000062,-0.00002687,0.00006558
 ,-0.00005639,-0.00004086,-0.00002183,-0.00002302,-0.00004631,-0.000070
 97,0.00005947,-0.00012281,0.00006884,-0.00005638,-0.00003925,0.0000245
 9,0.00005947,-0.00012721,-0.00006025,-0.00002302,-0.00004133,0.0000739
 8,0.00066084,-0.00006285,-0.00056997,0.00066084,-0.00002360,0.00057293
 ,-0.00674625,0.00134423,0.00007643,0.32829949,0.00007026,-0.00064219,0
 .00002106,-0.00171987,0.00053323,-0.00001264,-0.00033855,-0.00575580,0
 .00019453,0.00029450,-0.00058728,0.00044169,0.00031004,-0.00063769,-0.
 00038938,-0.03244262,0.00394509,-0.00017225,0.04460967,-0.05215669,0.0
 0019958,-0.00024678,-0.00005504,0.00000301,-0.00000709,0.00001974,-0.0
 0003207,-0.00000874,0.00002176,0.00003193,0.00001384,-0.00000217,-0.00
 008241,0.00001452,0.00000061,0.00008250,-0.00000951,0.00021820,-0.0001
 0779,-0.00000015,0.00005653,-0.00004569,-0.00001300,0.00041584,-0.0001
 4600,-0.00000547,0.00024145,0.00009634,-0.00002398,0.00045489,0.000115
 85,-0.00000211,0.00005991,0.00004307,0.00060117,0.00127087,-0.00031331
 ,0.00062759,0.00127334,0.00023347,0.01589580,-0.00343108,-0.00099147,-
 0.04537791,0.05840957,-0.00000242,0.00002107,-0.00002961,0.00005910,-0
 .00001265,0.00016553,0.00001158,0.00019458,-0.00010008,-0.00023766,0.0
 0034429,0.00012299,0.00021682,-0.00029197,0.00017343,0.00111461,-0.000
 17262,-0.00107308,-0.00152956,0.00019957,-0.04634025,0.00000848,0.0000
 0302,0.00003277,0.00002431,0.00000257,0.00001978,-0.00002376,-0.000002
 71,0.00001776,-0.00001040,0.00004199,0.00000188,0.00000942,-0.00004190
 ,-0.00000091,-0.00005856,-0.00024184,0.00007491,0.00002866,-0.00000596
 ,0.00002196,0.00016046,-0.00045249,0.00001618,0.00005907,0.00023037,0.
 00005166,-0.00015921,0.00042229,-0.00002287,-0.00002857,0.00000337,0.0
 0001858,-0.00040531,0.00019738,0.00011271,0.00036307,-0.00027722,0.000
 11020,-0.02768748,0.00447494,0.00007055,0.00155572,-0.00041720,0.04626
 397,-0.00006569,0.00010155,0.00007889,0.00003272,-0.00008400,0.0001437
 1,0.00077197,0.00034166,-0.00078137,-0.00017647,0.00002118,-0.00002668
 ,-0.00071957,-0.00064722,0.00027234,0.00416549,-0.00883983,-0.01407158
 ,-0.05937505,0.03363963,0.04662661,0.00002627,0.00002389,0.00000966,-0
 .00000112,-0.00000669,-0.00000211,-0.00006692,-0.00004274,0.00000388,0
 .00001162,0.00019418,0.00010744,0.00002131,-0.00000602,-0.00001396,-0.
 00004009,0.00002058,-0.00000140,0.00007132,0.00006545,0.00013987,0.000
 03616,0.00001127,-0.00011599,0.00015140,0.00018326,-0.00004405,-0.0019
 5617,0.00000836,0.00053941,-0.00000181,0.00004674,0.00003627,-0.001036
 44,-0.00341282,-0.00003547,0.00042214,0.00086619,0.00028870,0.00105499
 ,-0.00512551,-0.00686914,-0.00674565,0.01775835,0.02653160,0.06341960,
 0.00000283,0.00006456,0.00009556,-0.00006263,-0.00006187,-0.00010499,0
 .00120783,0.00044931,-0.00039574,-0.00012244,-0.00003463,0.00008446,0.
 00017181,-0.00019332,-0.00010797,0.00734682,-0.01702895,-0.02407695,0.
 03302195,-0.13015451,-0.11624292,-0.00001525,0.00000406,0.00002231,-0.
 00001405,0.00000595,-0.00000419,-0.00012382,-0.00000646,0.00004629,-0.
 00001618,0.00025393,0.00022312,0.00004021,-0.00002632,-0.00000942,-0.0
 0006449,0.00006506,-0.00006825,0.00006042,-0.00003414,0.00014431,-0.00
 007174,0.00005876,-0.00005410,0.00012826,0.00038332,0.00024603,-0.0001
 3372,0.00089561,-0.00004433,-0.00008564,-0.00017127,0.00016215,-0.0034
 8051,-0.00498862,0.00076535,0.00063384,0.00102345,0.00036907,-0.004641
 74,0.01001075,0.01332560,0.00133572,-0.00365308,-0.00421888,-0.0351174
 7,0.14313841,0.00003342,-0.00004989,-0.00005770,-0.00024556,-0.0000073
 1,0.00002144,0.00069657,-0.00059178,-0.00027662,-0.00027218,-0.0000310
 9,0.00004753,0.00071411,-0.00072648,0.00005202,-0.00147148,0.00090866,
 0.00171621,0.04593937,-0.11689661,-0.21314483,-0.00003386,-0.00000058,
 0.00001804,-0.00000421,-0.00000086,0.00000500,-0.00003845,0.00001441,0
 .00004638,-0.00002916,0.00006043,0.00004652,0.00000794,0.00002076,-0.0
 0002128,-0.00010904,-0.00003038,0.00001041,0.00008366,0.00016463,0.000
 12505,0.00008984,-0.00007957,-0.00016177,0.00003241,0.00042840,0.00007
 404,0.00049397,0.00081885,0.00007697,-0.00000056,0.00009004,-0.0001316
 9,0.00035522,0.00062989,0.00163153,-0.00046123,-0.00037114,0.00081764,
 0.00720418,-0.01544107,-0.02074626,-0.00016834,0.00124718,0.00029194,-
 0.05281663,0.12984349,0.22955943\\-0.00006995,0.00001951,-0.00000083,0
 .00006474,-0.00007724,0.00000257,-0.00012787,0.00018090,-0.00000552,0.
 00006602,-0.00009209,0.00003983,0.00006569,-0.00009414,-0.00003340,0.0
 0005117,-0.00008661,0.00000290,0.00000484,0.00007219,-0.00000263,0.000
 02711,-0.00001322,0.00000040,0.00002330,0.00000311,-0.00000549,0.00002
 347,0.00000321,0.00000508,-0.00003024,0.00000074,-0.00000473,-0.000030
 37,0.00000112,0.00000466,-0.00002313,0.00001630,-0.00001432,-0.0000029
 4,0.00000446,0.00000825,-0.00000811,0.00002692,-0.00001470,-0.00002284
 ,0.00001741,0.00001320,-0.00000835,0.00002764,0.00001287,-0.00000297,0
 .00000393,-0.00000835,0.00000927,0.00002859,-0.00000570,0.00000924,0.0
 0002908,0.00000369,-0.00001086,-0.00002100,-0.00000467,0.00000344,-0.0
 0002992,0.00000098,-0.00001067,-0.00002087,0.00000592\\\@


      THE ONE-EYED VIEW OF OUR UNIVERSE SAYS YOU MUST NOT LOOK
      FAR AFIELD FOR PROBLEMS.  SUCH PROBLEMS MAY NEVER ARRIVE. 
      INSTEAD, TEND TO THE WOLF WITHIN YOUR FENCES.
      THE PACKS RANGING OUTSIDE MAY NOT EVEN EXIST.

                              -- THE AZHAR BOOK SHAMRA I:4
                                 CHILDREN OF DUNE, BY FRANK HERBERT
 Job cpu time:       0 days  1 hours 51 minutes 47.7 seconds.
 Elapsed time:       0 days  0 hours 27 minutes 58.2 seconds.
 File lengths (MBytes):  RWF=    129 Int=      0 D2E=      0 Chk=      8 Scr=      1
 Normal termination of Gaussian 16 at Sun May 28 13:51:07 2023.
### All Done ###
