### Starting Gaussian ###
 Entering Gaussian System, Link 0=g16
 Initial command:
 /cluster/software/gaussian/gaussian-16-A.03/avx2/g16/l1.exe "/local/scratch/yxie/Gau-21821.inp" -scrdir="/local/scratch/yxie/"
 Entering Link 1 = /cluster/software/gaussian/gaussian-16-A.03/avx2/g16/l1.exe PID=     21822.
  
 Copyright (c) 1988,1990,1992,1993,1995,1998,2003,2009,2016,
            Gaussian, Inc.  All Rights Reserved.
  
 This is part of the Gaussian(R) 16 program.  It is based on
 the Gaussian(R) 09 system (copyright 2009, Gaussian, Inc.),
 the Gaussian(R) 03 system (copyright 2003, Gaussian, Inc.),
 the Gaussian(R) 98 system (copyright 1998, Gaussian, Inc.),
 the Gaussian(R) 94 system (copyright 1995, Gaussian, Inc.),
 the Gaussian 92(TM) system (copyright 1992, Gaussian, Inc.),
 the Gaussian 90(TM) system (copyright 1990, Gaussian, Inc.),
 the Gaussian 88(TM) system (copyright 1988, Gaussian, Inc.),
 the Gaussian 86(TM) system (copyright 1986, Carnegie Mellon
 University), and the Gaussian 82(TM) system (copyright 1983,
 Carnegie Mellon University). Gaussian is a federally registered
 trademark of Gaussian, Inc.
  
 This software contains proprietary and confidential information,
 including trade secrets, belonging to Gaussian, Inc.
  
 This software is provided under written license and may be
 used, copied, transmitted, or stored only in accord with that
 written license.
  
 The following legend is applicable only to US Government
 contracts under FAR:
  
                    RESTRICTED RIGHTS LEGEND
  
 Use, reproduction and disclosure by the US Government is
 subject to restrictions as set forth in subparagraphs (a)
 and (c) of the Commercial Computer Software - Restricted
 Rights clause in FAR 52.227-19.
  
 Gaussian, Inc.
 340 Quinnipiac St., Bldg. 40, Wallingford CT 06492
  
  
 ---------------------------------------------------------------
 Warning -- This program may not be used in any manner that
 competes with the business of Gaussian, Inc. or will provide
 assistance to any competitor of Gaussian, Inc.  The licensee
 of this program is prohibited from giving any competitor of
 Gaussian, Inc. access to this program.  By using this program,
 the user acknowledges that Gaussian, Inc. is engaged in the
 business of creating and licensing software in the field of
 computational chemistry and represents and warrants to the
 licensee that it is not a competitor of Gaussian, Inc. and that
 it will not use this program in any manner prohibited above.
 ---------------------------------------------------------------
  

 Cite this work as:
 Gaussian 16, Revision A.03,
 M. J. Frisch, G. W. Trucks, H. B. Schlegel, G. E. Scuseria, 
 M. A. Robb, J. R. Cheeseman, G. Scalmani, V. Barone, 
 G. A. Petersson, H. Nakatsuji, X. Li, M. Caricato, A. V. Marenich, 
 J. Bloino, B. G. Janesko, R. Gomperts, B. Mennucci, H. P. Hratchian, 
 J. V. Ortiz, A. F. Izmaylov, J. L. Sonnenberg, D. Williams-Young, 
 F. Ding, F. Lipparini, F. Egidi, J. Goings, B. Peng, A. Petrone, 
 T. Henderson, D. Ranasinghe, V. G. Zakrzewski, J. Gao, N. Rega, 
 G. Zheng, W. Liang, M. Hada, M. Ehara, K. Toyota, R. Fukuda, 
 J. Hasegawa, M. Ishida, T. Nakajima, Y. Honda, O. Kitao, H. Nakai, 
 T. Vreven, K. Throssell, J. A. Montgomery, Jr., J. E. Peralta, 
 F. Ogliaro, M. J. Bearpark, J. J. Heyd, E. N. Brothers, K. N. Kudin, 
 V. N. Staroverov, T. A. Keith, R. Kobayashi, J. Normand, 
 K. Raghavachari, A. P. Rendell, J. C. Burant, S. S. Iyengar, 
 J. Tomasi, M. Cossi, J. M. Millam, M. Klene, C. Adamo, R. Cammi, 
 J. W. Ochterski, R. L. Martin, K. Morokuma, O. Farkas, 
 J. B. Foresman, and D. J. Fox, Gaussian, Inc., Wallingford CT, 2016.
 
 ******************************************
 Gaussian 16:  ES64L-G16RevA.03 25-Dec-2016
                22-May-2023 
 ******************************************
 %chk=CCCqCrCCCCOCCqCrCC.chk
 %NProcShared=20
 Will use up to   20 processors via shared memory.
 -----------------------------
 # opt freq b3lyp/6-31g(2df,p)
 -----------------------------
 1/18=20,19=15,26=3,38=1/1,3;
 2/9=110,12=2,17=6,18=5,40=1/2;
 3/5=1,6=6,7=104,11=2,25=1,30=1,71=1,74=-5/1,2,3;
 4//1;
 5/5=2,38=5/2;
 6/7=2,8=2,9=2,10=2,28=1/1;
 7//1,2,3,16;
 1/18=20,19=15,26=3/3(2);
 2/9=110/2;
 99//99;
 2/9=110/2;
 3/5=1,6=6,7=104,11=2,25=1,30=1,71=1,74=-5/1,2,3;
 4/5=5,16=3,69=1/1;
 5/5=2,38=5/2;
 7//1,2,3,16;
 1/18=20,19=15,26=3/3(-5);
 2/9=110/2;
 6/7=2,8=2,9=2,10=2,19=2,28=1/1;
 99/9=1/99;
 -------------------
 Title Card Required
 -------------------
 Symbolic Z-matrix:
 Charge =  0 Multiplicity = 1
 C                     0.99055  -0.16322   0.05572 
 C                     2.50967  -0.0683    0.0795 
 C                     3.02614   1.35011  -0.22529 
 C                     2.50034   2.3666    0.79748 
 C                     4.5684    1.33775  -0.2601 
 C                     5.1345    2.70497  -0.62779 
 C                     6.65328   2.72049  -0.63571 
 C                     7.12197   4.12962  -0.95904 
 O                     8.54008   4.15214  -0.93068 
 C                     9.02835   5.44572  -1.27334 
 C                     10.55824   5.40391  -1.3061 
 C                     11.03595   4.35939  -2.32183 
 C                     11.09298   6.80982  -1.61922 
 C                     12.61079   6.88846  -1.60006 
 H                     0.67183  -1.19408   0.2346 
 H                     0.59628   0.15804  -0.91266 
 H                     0.53538   0.45344   0.83607 
 H                     2.91136  -0.76857  -0.6647 
 H                     2.87795  -0.39986   1.0566 
 H                     2.6642    1.64311  -1.21809 
 H                     2.85269   2.12433   1.80441 
 H                     1.40825   2.40094   0.81001 
 H                     2.8162    3.3861    0.55975 
 H                     4.91323   0.60004  -0.99757 
 H                     4.96346   1.02247   0.7119 
 H                     4.80884   3.45709   0.09764 
 H                     4.7512    3.01101  -1.60734 
 H                     7.05141   2.0102   -1.36979 
 H                     7.04901   2.41341   0.33897 
 H                     6.734     4.83875  -0.21799 
 H                     6.76425   4.42389  -1.95206 
 H                     8.68199   6.16803  -0.52381 
 H                     8.63393   5.74071  -2.25267 
 H                     10.91432   5.0908   -0.31725 
 H                     10.71485   4.62227  -3.33445 
 H                     10.63835   3.36599  -2.08775 
 H                     12.12569   4.26752  -2.31892 
 H                     10.69989   7.51879  -0.87861 
 H                     10.72571   7.14129  -2.59717 
 H                     13.004    6.57343  -0.62932 
 H                     12.93673   7.91594  -1.78729 
 H                     13.05521   6.25913  -2.37622 
 

 GradGradGradGradGradGradGradGradGradGradGradGradGradGradGradGradGradGrad
 Berny optimization.
 Initialization pass.
                           ----------------------------
                           !    Initial Parameters    !
                           ! (Angstroms and Degrees)  !
 --------------------------                            --------------------------
 ! Name  Definition              Value          Derivative Info.                !
 --------------------------------------------------------------------------------
 ! R1    R(1,2)                  1.5223         estimate D2E/DX2                !
 ! R2    R(1,15)                 1.0937         estimate D2E/DX2                !
 ! R3    R(1,16)                 1.0938         estimate D2E/DX2                !
 ! R4    R(1,17)                 1.0938         estimate D2E/DX2                !
 ! R5    R(2,3)                  1.54           estimate D2E/DX2                !
 ! R6    R(2,18)                 1.098          estimate D2E/DX2                !
 ! R7    R(2,19)                 1.0956         estimate D2E/DX2                !
 ! R8    R(3,4)                  1.5349         estimate D2E/DX2                !
 ! R9    R(3,5)                  1.5427         estimate D2E/DX2                !
 ! R10   R(3,20)                 1.0966         estimate D2E/DX2                !
 ! R11   R(4,21)                 1.094          estimate D2E/DX2                !
 ! R12   R(4,22)                 1.0927         estimate D2E/DX2                !
 ! R13   R(4,23)                 1.0935         estimate D2E/DX2                !
 ! R14   R(5,6)                  1.5248         estimate D2E/DX2                !
 ! R15   R(5,24)                 1.0986         estimate D2E/DX2                !
 ! R16   R(5,25)                 1.0956         estimate D2E/DX2                !
 ! R17   R(6,7)                  1.5189         estimate D2E/DX2                !
 ! R18   R(6,26)                 1.0945         estimate D2E/DX2                !
 ! R19   R(6,27)                 1.0955         estimate D2E/DX2                !
 ! R20   R(7,8)                  1.5198         estimate D2E/DX2                !
 ! R21   R(7,28)                 1.0963         estimate D2E/DX2                !
 ! R22   R(7,29)                 1.0959         estimate D2E/DX2                !
 ! R23   R(8,9)                  1.4186         estimate D2E/DX2                !
 ! R24   R(8,30)                 1.0966         estimate D2E/DX2                !
 ! R25   R(8,31)                 1.0957         estimate D2E/DX2                !
 ! R26   R(9,10)                 1.4245         estimate D2E/DX2                !
 ! R27   R(10,11)                1.5308         estimate D2E/DX2                !
 ! R28   R(10,32)                1.097          estimate D2E/DX2                !
 ! R29   R(10,33)                1.0962         estimate D2E/DX2                !
 ! R30   R(11,12)                1.5333         estimate D2E/DX2                !
 ! R31   R(11,13)                1.5364         estimate D2E/DX2                !
 ! R32   R(11,34)                1.0967         estimate D2E/DX2                !
 ! R33   R(12,35)                1.0944         estimate D2E/DX2                !
 ! R34   R(12,36)                1.0953         estimate D2E/DX2                !
 ! R35   R(12,37)                1.0936         estimate D2E/DX2                !
 ! R36   R(13,14)                1.52           estimate D2E/DX2                !
 ! R37   R(13,38)                1.098          estimate D2E/DX2                !
 ! R38   R(13,39)                1.096          estimate D2E/DX2                !
 ! R39   R(14,40)                1.0937         estimate D2E/DX2                !
 ! R40   R(14,41)                1.0941         estimate D2E/DX2                !
 ! R41   R(14,42)                1.0936         estimate D2E/DX2                !
 ! A1    A(2,1,15)             110.305          estimate D2E/DX2                !
 ! A2    A(2,1,16)             110.8073         estimate D2E/DX2                !
 ! A3    A(2,1,17)             111.6526         estimate D2E/DX2                !
 ! A4    A(15,1,16)            108.4562         estimate D2E/DX2                !
 ! A5    A(15,1,17)            107.063          estimate D2E/DX2                !
 ! A6    A(16,1,17)            108.4234         estimate D2E/DX2                !
 ! A7    A(1,2,3)              112.8937         estimate D2E/DX2                !
 ! A8    A(1,2,18)             108.3446         estimate D2E/DX2                !
 ! A9    A(1,2,19)             109.3002         estimate D2E/DX2                !
 ! A10   A(3,2,18)             109.3046         estimate D2E/DX2                !
 ! A11   A(3,2,19)             110.0307         estimate D2E/DX2                !
 ! A12   A(18,2,19)            106.7681         estimate D2E/DX2                !
 ! A13   A(2,3,4)              111.2978         estimate D2E/DX2                !
 ! A14   A(2,3,5)              109.4124         estimate D2E/DX2                !
 ! A15   A(2,3,20)             108.3363         estimate D2E/DX2                !
 ! A16   A(4,3,5)              111.2733         estimate D2E/DX2                !
 ! A17   A(4,3,20)             108.2565         estimate D2E/DX2                !
 ! A18   A(5,3,20)             108.1604         estimate D2E/DX2                !
 ! A19   A(3,4,21)             110.8758         estimate D2E/DX2                !
 ! A20   A(3,4,22)             111.7672         estimate D2E/DX2                !
 ! A21   A(3,4,23)             111.9405         estimate D2E/DX2                !
 ! A22   A(21,4,22)            108.5608         estimate D2E/DX2                !
 ! A23   A(21,4,23)            108.2737         estimate D2E/DX2                !
 ! A24   A(22,4,23)            105.1824         estimate D2E/DX2                !
 ! A25   A(3,5,6)              111.6797         estimate D2E/DX2                !
 ! A26   A(3,5,24)             109.5306         estimate D2E/DX2                !
 ! A27   A(3,5,25)             110.0465         estimate D2E/DX2                !
 ! A28   A(6,5,24)             108.8865         estimate D2E/DX2                !
 ! A29   A(6,5,25)             109.7617         estimate D2E/DX2                !
 ! A30   A(24,5,25)            106.8061         estimate D2E/DX2                !
 ! A31   A(5,6,7)              112.4367         estimate D2E/DX2                !
 ! A32   A(5,6,26)             110.2348         estimate D2E/DX2                !
 ! A33   A(5,6,27)             109.6465         estimate D2E/DX2                !
 ! A34   A(7,6,26)             107.0946         estimate D2E/DX2                !
 ! A35   A(7,6,27)             110.0201         estimate D2E/DX2                !
 ! A36   A(26,6,27)            107.2512         estimate D2E/DX2                !
 ! A37   A(6,7,8)              108.5993         estimate D2E/DX2                !
 ! A38   A(6,7,28)             111.1003         estimate D2E/DX2                !
 ! A39   A(6,7,29)             110.7071         estimate D2E/DX2                !
 ! A40   A(8,7,28)             110.2589         estimate D2E/DX2                !
 ! A41   A(8,7,29)             109.7347         estimate D2E/DX2                !
 ! A42   A(28,7,29)            106.4309         estimate D2E/DX2                !
 ! A43   A(7,8,9)              108.5873         estimate D2E/DX2                !
 ! A44   A(7,8,30)             110.2852         estimate D2E/DX2                !
 ! A45   A(7,8,31)             109.9451         estimate D2E/DX2                !
 ! A46   A(9,8,30)             109.2628         estimate D2E/DX2                !
 ! A47   A(9,8,31)             109.8898         estimate D2E/DX2                !
 ! A48   A(30,8,31)            108.8597         estimate D2E/DX2                !
 ! A49   A(8,9,10)             110.6258         estimate D2E/DX2                !
 ! A50   A(9,10,11)            108.8388         estimate D2E/DX2                !
 ! A51   A(9,10,32)            108.9861         estimate D2E/DX2                !
 ! A52   A(9,10,33)            109.6299         estimate D2E/DX2                !
 ! A53   A(11,10,32)           110.3734         estimate D2E/DX2                !
 ! A54   A(11,10,33)           110.3539         estimate D2E/DX2                !
 ! A55   A(32,10,33)           108.6391         estimate D2E/DX2                !
 ! A56   A(10,11,12)           110.1303         estimate D2E/DX2                !
 ! A57   A(10,11,13)           109.0991         estimate D2E/DX2                !
 ! A58   A(10,11,34)           108.2402         estimate D2E/DX2                !
 ! A59   A(12,11,13)           112.329          estimate D2E/DX2                !
 ! A60   A(12,11,34)           107.558          estimate D2E/DX2                !
 ! A61   A(13,11,34)           109.3913         estimate D2E/DX2                !
 ! A62   A(11,12,35)           110.9726         estimate D2E/DX2                !
 ! A63   A(11,12,36)           111.2954         estimate D2E/DX2                !
 ! A64   A(11,12,37)           111.4645         estimate D2E/DX2                !
 ! A65   A(35,12,36)           108.0051         estimate D2E/DX2                !
 ! A66   A(35,12,37)           108.3619         estimate D2E/DX2                !
 ! A67   A(36,12,37)           106.5563         estimate D2E/DX2                !
 ! A68   A(11,13,14)           113.0992         estimate D2E/DX2                !
 ! A69   A(11,13,38)           109.1943         estimate D2E/DX2                !
 ! A70   A(11,13,39)           109.9972         estimate D2E/DX2                !
 ! A71   A(14,13,38)           108.3959         estimate D2E/DX2                !
 ! A72   A(14,13,39)           109.283          estimate D2E/DX2                !
 ! A73   A(38,13,39)           106.6551         estimate D2E/DX2                !
 ! A74   A(13,14,40)           110.8116         estimate D2E/DX2                !
 ! A75   A(13,14,41)           110.116          estimate D2E/DX2                !
 ! A76   A(13,14,42)           111.5357         estimate D2E/DX2                !
 ! A77   A(40,14,41)           108.3783         estimate D2E/DX2                !
 ! A78   A(40,14,42)           108.5463         estimate D2E/DX2                !
 ! A79   A(41,14,42)           107.3321         estimate D2E/DX2                !
 ! D1    D(15,1,2,3)           177.5856         estimate D2E/DX2                !
 ! D2    D(15,1,2,18)           56.3811         estimate D2E/DX2                !
 ! D3    D(15,1,2,19)          -59.6056         estimate D2E/DX2                !
 ! D4    D(16,1,2,3)            57.472          estimate D2E/DX2                !
 ! D5    D(16,1,2,18)          -63.7325         estimate D2E/DX2                !
 ! D6    D(16,1,2,19)         -179.7192         estimate D2E/DX2                !
 ! D7    D(17,1,2,3)           -63.4996         estimate D2E/DX2                !
 ! D8    D(17,1,2,18)          175.2959         estimate D2E/DX2                !
 ! D9    D(17,1,2,19)           59.3091         estimate D2E/DX2                !
 ! D10   D(1,2,3,4)             59.8224         estimate D2E/DX2                !
 ! D11   D(1,2,3,5)           -176.7925         estimate D2E/DX2                !
 ! D12   D(1,2,3,20)           -59.0866         estimate D2E/DX2                !
 ! D13   D(18,2,3,4)          -179.5193         estimate D2E/DX2                !
 ! D14   D(18,2,3,5)           -56.1342         estimate D2E/DX2                !
 ! D15   D(18,2,3,20)           61.5717         estimate D2E/DX2                !
 ! D16   D(19,2,3,4)           -62.5782         estimate D2E/DX2                !
 ! D17   D(19,2,3,5)            60.8068         estimate D2E/DX2                !
 ! D18   D(19,2,3,20)          178.5128         estimate D2E/DX2                !
 ! D19   D(2,3,4,21)            62.0845         estimate D2E/DX2                !
 ! D20   D(2,3,4,22)           -59.1886         estimate D2E/DX2                !
 ! D21   D(2,3,4,23)          -176.8902         estimate D2E/DX2                !
 ! D22   D(5,3,4,21)           -60.2321         estimate D2E/DX2                !
 ! D23   D(5,3,4,22)           178.4949         estimate D2E/DX2                !
 ! D24   D(5,3,4,23)            60.7932         estimate D2E/DX2                !
 ! D25   D(20,3,4,21)         -178.9588         estimate D2E/DX2                !
 ! D26   D(20,3,4,22)           59.7681         estimate D2E/DX2                !
 ! D27   D(20,3,4,23)          -57.9335         estimate D2E/DX2                !
 ! D28   D(2,3,5,6)            177.1383         estimate D2E/DX2                !
 ! D29   D(2,3,5,24)            56.4336         estimate D2E/DX2                !
 ! D30   D(2,3,5,25)           -60.696          estimate D2E/DX2                !
 ! D31   D(4,3,5,6)            -59.4621         estimate D2E/DX2                !
 ! D32   D(4,3,5,24)           179.8331         estimate D2E/DX2                !
 ! D33   D(4,3,5,25)            62.7035         estimate D2E/DX2                !
 ! D34   D(20,3,5,6)            59.3223         estimate D2E/DX2                !
 ! D35   D(20,3,5,24)          -61.3825         estimate D2E/DX2                !
 ! D36   D(20,3,5,25)         -178.5121         estimate D2E/DX2                !
 ! D37   D(3,5,6,7)            178.6757         estimate D2E/DX2                !
 ! D38   D(3,5,6,26)            59.2594         estimate D2E/DX2                !
 ! D39   D(3,5,6,27)           -58.5935         estimate D2E/DX2                !
 ! D40   D(24,5,6,7)           -60.2445         estimate D2E/DX2                !
 ! D41   D(24,5,6,26)         -179.6608         estimate D2E/DX2                !
 ! D42   D(24,5,6,27)           62.4863         estimate D2E/DX2                !
 ! D43   D(25,5,6,7)            56.3466         estimate D2E/DX2                !
 ! D44   D(25,5,6,26)          -63.0697         estimate D2E/DX2                !
 ! D45   D(25,5,6,27)          179.0774         estimate D2E/DX2                !
 ! D46   D(5,6,7,8)           -177.873          estimate D2E/DX2                !
 ! D47   D(5,6,7,28)            60.697          estimate D2E/DX2                !
 ! D48   D(5,6,7,29)           -57.3366         estimate D2E/DX2                !
 ! D49   D(26,6,7,8)           -56.6428         estimate D2E/DX2                !
 ! D50   D(26,6,7,28)         -178.0728         estimate D2E/DX2                !
 ! D51   D(26,6,7,29)           63.8936         estimate D2E/DX2                !
 ! D52   D(27,6,7,8)            59.6066         estimate D2E/DX2                !
 ! D53   D(27,6,7,28)          -61.8233         estimate D2E/DX2                !
 ! D54   D(27,6,7,29)         -179.8569         estimate D2E/DX2                !
 ! D55   D(6,7,8,9)            178.4383         estimate D2E/DX2                !
 ! D56   D(6,7,8,30)            58.7441         estimate D2E/DX2                !
 ! D57   D(6,7,8,31)           -61.3052         estimate D2E/DX2                !
 ! D58   D(28,7,8,9)           -59.6172         estimate D2E/DX2                !
 ! D59   D(28,7,8,30)         -179.3114         estimate D2E/DX2                !
 ! D60   D(28,7,8,31)           60.6393         estimate D2E/DX2                !
 ! D61   D(29,7,8,9)            57.3019         estimate D2E/DX2                !
 ! D62   D(29,7,8,30)          -62.3923         estimate D2E/DX2                !
 ! D63   D(29,7,8,31)          177.5584         estimate D2E/DX2                !
 ! D64   D(7,8,9,10)           178.0255         estimate D2E/DX2                !
 ! D65   D(30,8,9,10)          -61.644          estimate D2E/DX2                !
 ! D66   D(31,8,9,10)           57.7346         estimate D2E/DX2                !
 ! D67   D(8,9,10,11)         -176.8919         estimate D2E/DX2                !
 ! D68   D(8,9,10,32)           62.6843         estimate D2E/DX2                !
 ! D69   D(8,9,10,33)          -56.1033         estimate D2E/DX2                !
 ! D70   D(9,10,11,12)          58.552          estimate D2E/DX2                !
 ! D71   D(9,10,11,13)        -177.7279         estimate D2E/DX2                !
 ! D72   D(9,10,11,34)         -58.7769         estimate D2E/DX2                !
 ! D73   D(32,10,11,12)        178.1162         estimate D2E/DX2                !
 ! D74   D(32,10,11,13)        -58.1637         estimate D2E/DX2                !
 ! D75   D(32,10,11,34)         60.7873         estimate D2E/DX2                !
 ! D76   D(33,10,11,12)        -61.7906         estimate D2E/DX2                !
 ! D77   D(33,10,11,13)         61.9295         estimate D2E/DX2                !
 ! D78   D(33,10,11,34)       -179.1194         estimate D2E/DX2                !
 ! D79   D(10,11,12,35)         62.6209         estimate D2E/DX2                !
 ! D80   D(10,11,12,36)        -57.6908         estimate D2E/DX2                !
 ! D81   D(10,11,12,37)       -176.5            estimate D2E/DX2                !
 ! D82   D(13,11,12,35)        -59.2016         estimate D2E/DX2                !
 ! D83   D(13,11,12,36)       -179.5133         estimate D2E/DX2                !
 ! D84   D(13,11,12,37)         61.6775         estimate D2E/DX2                !
 ! D85   D(34,11,12,35)       -179.6277         estimate D2E/DX2                !
 ! D86   D(34,11,12,36)         60.0607         estimate D2E/DX2                !
 ! D87   D(34,11,12,37)        -58.7486         estimate D2E/DX2                !
 ! D88   D(10,11,13,14)        176.9061         estimate D2E/DX2                !
 ! D89   D(10,11,13,38)         56.1246         estimate D2E/DX2                !
 ! D90   D(10,11,13,39)        -60.596          estimate D2E/DX2                !
 ! D91   D(12,11,13,14)        -60.6859         estimate D2E/DX2                !
 ! D92   D(12,11,13,38)        178.5327         estimate D2E/DX2                !
 ! D93   D(12,11,13,39)         61.8121         estimate D2E/DX2                !
 ! D94   D(34,11,13,14)         58.6746         estimate D2E/DX2                !
 ! D95   D(34,11,13,38)        -62.1068         estimate D2E/DX2                !
 ! D96   D(34,11,13,39)       -178.8274         estimate D2E/DX2                !
 ! D97   D(11,13,14,40)        -57.7569         estimate D2E/DX2                !
 ! D98   D(11,13,14,41)       -177.6528         estimate D2E/DX2                !
 ! D99   D(11,13,14,42)         63.2945         estimate D2E/DX2                !
 ! D100  D(38,13,14,40)         63.4766         estimate D2E/DX2                !
 ! D101  D(38,13,14,41)        -56.4192         estimate D2E/DX2                !
 ! D102  D(38,13,14,42)       -175.472          estimate D2E/DX2                !
 ! D103  D(39,13,14,40)        179.348          estimate D2E/DX2                !
 ! D104  D(39,13,14,41)         59.4522         estimate D2E/DX2                !
 ! D105  D(39,13,14,42)        -59.6005         estimate D2E/DX2                !
 --------------------------------------------------------------------------------
 Trust Radius=3.00D-01 FncErr=1.00D-07 GrdErr=1.00D-06 EigMax=2.50D+02 EigMin=1.00D-04
 Number of steps in this run=    235 maximum allowed number of steps=    252.
 GradGradGradGradGradGradGradGradGradGradGradGradGradGradGradGradGradGrad

                          Input orientation:                          
 ---------------------------------------------------------------------
 Center     Atomic      Atomic             Coordinates (Angstroms)
 Number     Number       Type             X           Y           Z
 ---------------------------------------------------------------------
      1          6           0        0.990550   -0.163220    0.055720
      2          6           0        2.509670   -0.068300    0.079500
      3          6           0        3.026140    1.350110   -0.225290
      4          6           0        2.500340    2.366600    0.797480
      5          6           0        4.568400    1.337750   -0.260100
      6          6           0        5.134500    2.704970   -0.627790
      7          6           0        6.653280    2.720490   -0.635710
      8          6           0        7.121970    4.129620   -0.959040
      9          8           0        8.540080    4.152140   -0.930680
     10          6           0        9.028350    5.445720   -1.273340
     11          6           0       10.558240    5.403910   -1.306100
     12          6           0       11.035950    4.359390   -2.321830
     13          6           0       11.092980    6.809820   -1.619220
     14          6           0       12.610790    6.888460   -1.600060
     15          1           0        0.671830   -1.194080    0.234600
     16          1           0        0.596280    0.158040   -0.912660
     17          1           0        0.535380    0.453440    0.836070
     18          1           0        2.911360   -0.768570   -0.664700
     19          1           0        2.877950   -0.399860    1.056600
     20          1           0        2.664200    1.643110   -1.218090
     21          1           0        2.852690    2.124330    1.804410
     22          1           0        1.408250    2.400940    0.810010
     23          1           0        2.816200    3.386100    0.559750
     24          1           0        4.913230    0.600040   -0.997570
     25          1           0        4.963460    1.022470    0.711900
     26          1           0        4.808840    3.457090    0.097640
     27          1           0        4.751200    3.011010   -1.607340
     28          1           0        7.051410    2.010200   -1.369790
     29          1           0        7.049010    2.413410    0.338970
     30          1           0        6.734000    4.838750   -0.217990
     31          1           0        6.764250    4.423890   -1.952060
     32          1           0        8.681990    6.168030   -0.523810
     33          1           0        8.633930    5.740710   -2.252670
     34          1           0       10.914320    5.090800   -0.317250
     35          1           0       10.714850    4.622270   -3.334450
     36          1           0       10.638350    3.365990   -2.087750
     37          1           0       12.125690    4.267520   -2.318920
     38          1           0       10.699890    7.518790   -0.878610
     39          1           0       10.725710    7.141290   -2.597170
     40          1           0       13.004000    6.573430   -0.629320
     41          1           0       12.936730    7.915940   -1.787290
     42          1           0       13.055210    6.259130   -2.376220
 ---------------------------------------------------------------------
                    Distance matrix (angstroms):
                    1          2          3          4          5
     1  C    0.000000
     2  C    1.522268   0.000000
     3  C    2.552011   1.539976   0.000000
     4  C    3.038036   2.538567   1.534854   0.000000
     5  C    3.892771   2.516083   1.542702   2.540449   0.000000
     6  C    5.085865   3.883429   2.538274   3.014082   1.524781
     7  C    6.392212   5.045630   3.899042   4.407514   2.529778
     8  C    7.553312   6.322532   5.003987   5.249101   3.847567
     9  O    8.751612   7.429564   6.225149   6.530938   4.913727
    10  C    9.891048   8.644523   7.341591   7.508941   6.147620
    11  C   11.152945   9.830791   8.621715   8.864539   7.314777
    12  C   11.270173   9.902943   8.809557   9.303652   7.430359
    13  C   12.389019  11.129573   9.839989   9.970763   8.623277
    14  C   13.692983  12.379421  11.154767  11.332106   9.863362
    15  H    1.093733   2.160808   3.496738   4.042119   4.673131
    16  H    1.093808   2.167181   2.792441   3.380497   4.194674
    17  H    1.093799   2.177713   2.852085   2.742761   4.271866
    18  H    2.138917   1.097983   2.166809   3.483705   2.710363
    19  H    2.149427   1.095576   2.174304   2.804110   2.758733
    20  H    2.772458   2.153263   1.096586   2.147745   2.153362
    21  H    3.429048   2.810801   2.179262   1.093962   2.797243
    22  H    2.705244   2.800699   2.189442   1.092702   3.501722
    23  H    4.023023   3.501068   2.192172   1.093464   2.817463
    24  H    4.132724   2.717326   2.172586   3.487833   1.098629
    25  H    4.197672   2.758767   2.176897   2.807306   1.095563
    26  H    5.261914   4.208906   2.778789   2.647285   2.162728
    27  H    5.194612   4.165578   2.764866   3.356307   2.155985
    28  H    6.594684   5.200770   4.236555   5.053347   2.801596
    29  H    6.589703   5.179944   4.199105   4.571960   2.769360
    30  H    7.621144   6.481713   5.091060   5.006654   4.116867
    31  H    7.642537   6.512178   5.138417   5.474791   4.148343
    32  H    9.978919   8.795074   7.435732   7.376278   6.350021
    33  H    9.930071   8.757293   7.405062   7.636030   6.315451
    34  H   11.234992   9.869745   8.730670   8.913975   7.372879
    35  H   11.355887  10.048954   8.915726   9.467791   7.616991
    36  H   10.494276   9.086625   8.091864   8.691981   6.655701
    37  H   12.217271  10.817560   9.782453  10.294310   8.362710
    38  H   12.416019  11.205428   9.867415   9.827866   8.728286
    39  H   12.456606  11.253713   9.922044  10.098417   8.778123
    40  H   13.790385  12.439693  11.269605  11.404387   9.935191
    41  H   14.538938  13.264862  11.990403  12.099357  10.753318
    42  H   13.882252  12.540947  11.371333  11.688860  10.036129
                    6          7          8          9         10
     6  C    0.000000
     7  C    1.518880   0.000000
     8  C    2.467669   1.519822   0.000000
     9  O    3.712683   2.386764   1.418572   0.000000
    10  C    4.805259   3.670750   2.337774   1.424490   0.000000
    11  C    6.096010   4.785277   3.681334   2.404337   1.530812
    12  C    6.358773   4.973609   4.150811   2.864894   2.511952
    13  C    7.303164   6.115623   4.836138   3.748953   2.498619
    14  C    8.622170   7.334430   6.176508   4.950373   3.875838
    15  H    5.988466   7.201322   8.448128   9.583804  10.779251
    16  H    5.211856   6.582560   7.639387   8.891407   9.959390
    17  H    5.325803   6.688374   7.753702   8.993165  10.074870
    18  H    4.124220   5.116282   6.465921   7.481084   8.741019
    19  H    4.191558   5.182047   6.526155   7.531912   8.799253
    20  H    2.752886   4.172850   5.110925   6.395608   7.413859
    21  H    3.385173   4.555664   5.466680   6.628660   7.657869
    22  H    4.005576   5.450005   6.226112   7.547165   8.466224
    23  H    2.692342   4.073738   4.625927   5.964143   6.796548
    24  H    2.148587   2.766772   4.163887   5.077000   6.363244
    25  H    2.157506   2.748603   4.135890   5.028431   6.326899
    26  H    1.094526   2.117154   2.630483   3.932263   4.861944
    27  H    1.095490   2.155545   2.700395   4.014431   4.932888
    28  H    2.169750   1.096309   2.160008   2.645158   3.964895
    29  H    2.164482   1.095856   2.153028   2.618871   3.963866
    30  H    2.698028   2.160563   1.096604   2.059438   2.597348
    31  H    2.713754   2.155612   1.095740   2.066552   2.575062
    32  H    4.958657   4.001714   2.603498   2.061430   1.097038
    33  H    4.909375   3.957179   2.560295   2.068821   1.096209
    34  H    6.260586   4.886333   3.964553   2.625718   2.144052
    35  H    6.491714   5.234149   4.335212   3.275478   2.787566
    36  H    5.732434   4.290207   3.771213   2.521821   2.753296
    37  H    7.360586   5.930748   5.187052   3.846703   3.474897
    38  H    7.362699   6.281539   4.928940   4.000228   2.692114
    39  H    7.404122   6.322617   4.973989   4.060688   2.740167
    40  H    8.768923   7.428111   6.378025   5.087243   4.182378
    41  H    9.453753   8.234111   6.988108   5.850684   4.652050
    42  H    8.855885   7.519046   6.461157   5.188005   4.253655
                   11         12         13         14         15
    11  C    0.000000
    12  C    1.533276   0.000000
    13  C    1.536416   2.549808   0.000000
    14  C    2.550150   3.065496   1.519967   0.000000
    15  H   11.985338  12.032928  13.270246  14.533829   0.000000
    16  H   11.265638  11.341244  12.446932  13.788384   1.774864
    17  H   11.382169  11.640049  12.565625  13.898192   1.759178
    18  H    9.848131   9.749411  11.192945  12.392899   2.450570
    19  H    9.912263  10.030813  11.252831  12.446109   2.484640
    20  H    8.744554   8.870322   9.894449  11.251411   3.758922
    21  H    8.933444   9.433297  10.078563  11.380152   4.269930
    22  H    9.859922  10.311962  10.914824  12.306225   3.714509
    23  H    8.215360   8.764422   9.218181  10.623808   5.067750
    24  H    7.418793   7.305756   8.782774   9.957894   4.767241
    25  H    7.387212   7.563973   8.746345   9.911441   4.853761
    26  H    6.230264   6.741282   7.326583   8.690622   6.226314
    27  H    6.287959   6.467357   7.392515   8.764007   6.141399
    28  H    4.880490   4.722460   6.279559   7.399807   7.317139
    29  H    4.895308   5.173237   6.286225   7.397250   7.327571
    30  H    4.015993   4.812765   4.984904   6.375585   8.564449
    31  H    3.971406   4.288159   4.953922   6.354529   8.570919
    32  H    2.171675   3.470617   2.724828   4.136762  10.905893
    33  H    2.170806   2.771737   2.755210   4.190304  10.847712
    34  H    1.096656   2.137310   2.163810   2.784815  12.029666
    35  H    2.179379   1.094354   2.805418   3.426122  12.142088
    36  H    2.184150   1.095319   3.505164   4.066467  11.203529
    37  H    2.184968   1.093610   2.831847   2.760690  12.943742
    38  H    2.162297   3.489646   1.098026   2.137603  13.330991
    39  H    2.171036   2.812655   1.095968   2.147482  13.363301
    40  H    2.794199   3.411713   2.165128   1.093707  14.600102
    41  H    3.492714   4.067892   2.156656   1.094078  15.411304
    42  H    2.848055   2.772973   2.174087   1.093613  14.687233
                   16         17         18         19         20
    16  H    0.000000
    17  H    1.774550   0.000000
    18  H    2.505930   3.064458   0.000000
    19  H    3.065168   2.502876   1.760664   0.000000
    20  H    2.564179   3.188536   2.486670   3.064903   0.000000
    21  H    4.042295   3.016535   3.803790   2.632754   3.066367
    22  H    2.942361   2.134324   3.805247   3.172587   2.502979
    23  H    4.185261   3.725451   4.332391   3.818922   2.494360
    24  H    4.340349   4.748610   2.447729   3.059702   2.488927
    25  H    4.739061   4.466218   3.051879   2.547782   3.065396
    26  H    5.445190   5.275382   4.694443   4.418597   3.101798
    27  H    5.087768   5.503140   4.307993   4.715896   2.525517
    28  H    6.731134   7.053224   5.035745   5.395695   4.405154
    29  H    6.949172   6.820261   5.315308   5.082049   4.716392
    30  H    7.750046   7.665825   6.801041   6.628479   5.270255
    31  H    7.571108   7.895376   6.592700   6.886503   5.008179
    32  H   10.082157  10.043558   9.024214   8.906276   7.561132
    33  H    9.877533  10.152933   8.811367   9.043737   7.314257
    34  H   11.452012  11.426183   9.924732   9.829448   8.986799
    35  H   11.321655  11.764098   9.853080  10.291750   8.841230
    36  H   10.607306  10.913371   8.878403   9.181088   8.204370
    37  H   12.320418  12.603034  10.630265  10.894919   9.880240
    38  H   12.500589  12.497062  11.374854  11.297469   9.960481
    39  H   12.418080  12.663226  11.285583  11.480693   9.854937
    40  H   13.971007  13.966679  12.480689  12.409915  11.470230
    41  H   14.602626  14.709331  13.311235  13.357369  12.049782
    42  H   13.949561  14.169368  12.458554  12.637366  11.428998
                   21         22         23         24         25
    21  H    0.000000
    22  H    1.775317   0.000000
    23  H    1.772731   1.736518   0.000000
    24  H    3.797417   4.335374   3.819020   0.000000
    25  H    2.619737   3.814358   3.196971   1.761607   0.000000
    26  H    2.918191   3.631382   2.046753   3.061555   2.515670
    27  H    4.003821   4.170262   2.929368   2.492158   3.062388
    28  H    5.264772   6.062133   4.853167   2.588226   3.109434
    29  H    4.454232   5.660407   4.348741   3.104224   2.534425
    30  H    5.150024   5.946706   4.250203   4.678633   4.308538
    31  H    5.890615   6.356736   4.793047   4.354211   4.680725
    32  H    7.466784   8.299237   6.581848   6.740216   6.467707
    33  H    7.934787   8.529040   6.877491   6.468800   6.672542
    34  H    8.848235   9.943411   8.321940   7.526144   7.281703
    35  H    9.719112  10.427064   8.892783   7.436272   7.900000
    36  H    8.792447   9.722298   8.258068   6.451044   6.747926
    37  H   10.372253  11.319799   9.784183   8.198534   8.426966
    38  H    9.893298  10.741434   9.016683   9.020459   8.811273
    39  H   10.321252  10.995220   9.307413   8.895594   9.032908
    40  H   11.347538  12.407367  10.740774  10.063675   9.862166
    41  H   12.170905  13.040976  11.333718  10.886809  10.832309
    42  H   11.775638  12.676331  11.032296  10.010885  10.121043
                   26         27         28         29         30
    26  H    0.000000
    27  H    1.763311   0.000000
    28  H    3.045646   2.519726   0.000000
    29  H    2.483117   3.070045   1.755689   0.000000
    30  H    2.390575   3.033550   3.070519   2.508328   0.000000
    31  H    2.993259   2.483432   2.499480   3.061362   1.783262
    32  H    4.768300   5.156736   4.545550   4.184278   2.378061
    33  H    5.036883   4.789917   4.147355   4.505496   2.926293
    34  H    6.333879   6.631282   5.051733   4.747596   4.189088
    35  H    6.929491   6.414374   4.909541   5.640165   5.060272
    36  H    6.226348   5.917376   3.901253   4.436185   4.572633
    37  H    7.748087   7.514537   5.634240   6.022855   5.814682
    38  H    7.221838   7.499203   6.625498   6.393460   4.831906
    39  H    7.472930   7.330331   6.429232   6.670224   5.186129
    40  H    8.797766   9.041906   7.536889   7.328387   6.518528
    41  H    9.460280   9.544298   8.347998   8.334510   7.099694
    42  H    9.053951   8.949751   7.423740   7.631268   6.828846
                   31         32         33         34         35
    31  H    0.000000
    32  H    2.959670   0.000000
    33  H    2.306531   1.781536   0.000000
    34  H    4.510039   2.487245   3.060786   0.000000
    35  H    4.190179   3.797577   2.598343   3.059870   0.000000
    36  H    4.018235   3.758282   3.111944   2.487127   1.771540
    37  H    5.376251   4.323590   3.790391   2.480300   1.774153
    38  H    5.120543   2.454049   3.052507   2.501248   3.797526
    39  H    4.847019   3.069666   2.540836   3.072152   2.624721
    40  H    6.730872   4.342263   4.735631   2.581151   4.045363
    41  H    7.093735   4.770156   4.843789   3.772609   4.263651
    42  H    6.566901   4.750239   4.453284   3.191827   3.012441
                   36         37         38         39         40
    36  H    0.000000
    37  H    1.754530   0.000000
    38  H    4.325685   3.831208   0.000000
    39  H    3.810516   3.208726   1.759722   0.000000
    40  H    4.243936   2.990551   2.502953   3.063577   0.000000
    41  H    5.106356   3.775101   2.446810   2.478830   1.774191
    42  H    3.780831   2.198591   3.062207   2.500719   1.775688
                   41         42
    41  H    0.000000
    42  H    1.762355   0.000000
 Stoichiometry    C13H28O
 Framework group  C1[X(C13H28O)]
 Deg. of freedom   120
 Full point group                 C1      NOp   1
 Largest Abelian subgroup         C1      NOp   1
 Largest concise Abelian subgroup C1      NOp   1
                         Standard orientation:                         
 ---------------------------------------------------------------------
 Center     Atomic      Atomic             Coordinates (Angstroms)
 Number     Number       Type             X           Y           Z
 ---------------------------------------------------------------------
      1          6           0       -6.858777    0.242239    0.266617
      2          6           0       -5.524569    0.783929   -0.227106
      3          6           0       -4.326022   -0.068459    0.229451
      4          6           0       -4.439133   -1.510153   -0.284844
      5          6           0       -3.015748    0.593707   -0.244519
      6          6           0       -1.789897   -0.172267    0.240797
      7          6           0       -0.490225    0.447034   -0.243265
      8          6           0        0.666237   -0.410570    0.243532
      9          8           0        1.877699    0.147766   -0.239136
     10          6           0        2.996410   -0.598500    0.230699
     11          6           0        4.281126    0.082265   -0.248307
     12          6           0        4.338188    1.524732    0.268386
     13          6           0        5.490374   -0.749076    0.206848
     14          6           0        6.816127   -0.192682   -0.286206
     15          1           0       -7.674483    0.900983   -0.044724
     16          1           0       -6.869056    0.170398    1.358015
     17          1           0       -7.070268   -0.748008   -0.147001
     18          1           0       -5.406390    1.808142    0.150501
     19          1           0       -5.542997    0.850336   -1.320513
     20          1           0       -4.318787   -0.094366    1.325707
     21          1           0       -4.431597   -1.535628   -1.378483
     22          1           0       -5.352123   -1.995825    0.068099
     23          1           0       -3.621536   -2.138845    0.078398
     24          1           0       -2.965714    1.622996    0.136330
     25          1           0       -3.002428    0.659563   -1.338020
     26          1           0       -1.814405   -1.201135   -0.131785
     27          1           0       -1.796554   -0.222772    1.335101
     28          1           0       -0.381791    1.474355    0.123813
     29          1           0       -0.472698    0.505358   -1.337428
     30          1           0        0.564673   -1.435298   -0.133507
     31          1           0        0.677729   -0.435703    1.338924
     32          1           0        2.935343   -1.620086   -0.164428
     33          1           0        2.974751   -0.644508    1.325727
     34          1           0        4.259545    0.123927   -1.343959
     35          1           0        4.368458    1.548126    1.362071
     36          1           0        3.464778    2.099209   -0.058500
     37          1           0        5.217846    2.051541   -0.111948
     38          1           0        5.384454   -1.775630   -0.168159
     39          1           0        5.509759   -0.814674    1.300679
     40          1           0        6.828214   -0.127334   -1.377892
     41          1           0        7.637699   -0.842533    0.029580
     42          1           0        7.011449    0.802092    0.123993
 ---------------------------------------------------------------------
 Rotational constants (GHZ):           3.0847287           0.1349503           0.1316083
 Standard basis: 6-31G(2df,p) (6D, 7F)
 There are   574 symmetry adapted cartesian basis functions of A   symmetry.
 There are   532 symmetry adapted basis functions of A   symmetry.
   532 basis functions,   812 primitive gaussians,   574 cartesian basis functions
    57 alpha electrons       57 beta electrons
       nuclear repulsion energy       900.1411826297 Hartrees.
 NAtoms=   42 NActive=   42 NUniq=   42 SFac= 1.00D+00 NAtFMM=   60 NAOKFM=F Big=F
 Integral buffers will be    131072 words long.
 Raffenetti 2 integral format.
 Two-electron integral symmetry is turned on.
 One-electron integrals computed using PRISM.
 PrsmSu:  requested number of processors reduced to:  12 ShMem   1 Linda.
 NBasis=   532 RedAO= T EigKep=  5.09D-04  NBF=   532
 NBsUse=   532 1.00D-06 EigRej= -1.00D+00 NBFU=   532
 ExpMin= 1.61D-01 ExpMax= 5.48D+03 ExpMxC= 8.25D+02 IAcc=3 IRadAn=         5 AccDes= 0.00D+00
 Harris functional with IExCor=  402 and IRadAn=       5 diagonalized for initial guess.
 HarFok:  IExCor=  402 AccDes= 0.00D+00 IRadAn=         5 IDoV= 1 UseB2=F ITyADJ=14
 ICtDFT=  3500011 ScaDFX=  1.000000  1.000000  1.000000  1.000000
 FoFCou: FMM=F IPFlag=           0 FMFlag=      100000 FMFlg1=           0
         NFxFlg=           0 DoJE=T BraDBF=F KetDBF=T FulRan=T
         wScrn=  0.000000 ICntrl=       500 IOpCl=  0 I1Cent=   200000004 NGrid=           0
         NMat0=    1 NMatS0=      1 NMatT0=    0 NMatD0=    1 NMtDS0=    0 NMtDT0=    0
 Petite list used in FoFCou.
 Requested convergence on RMS density matrix=1.00D-08 within 128 cycles.
 Requested convergence on MAX density matrix=1.00D-06.
 Requested convergence on             energy=1.00D-06.
 No special actions if energy rises.
 Integral accuracy reduced to 1.0D-05 until final iterations.
 Initial convergence to 1.0D-05 achieved.  Increase integral accuracy.
 SCF Done:  E(RB3LYP) =  -587.528255604     A.U. after   12 cycles
            NFock= 12  Conv=0.36D-08     -V/T= 2.0084

 **********************************************************************

            Population analysis using the SCF density.

 **********************************************************************

 Orbital symmetries:
       Occupied  (A) (A) (A) (A) (A) (A) (A) (A) (A) (A) (A) (A)
                 (A) (A) (A) (A) (A) (A) (A) (A) (A) (A) (A) (A)
                 (A) (A) (A) (A) (A) (A) (A) (A) (A) (A) (A) (A)
                 (A) (A) (A) (A) (A) (A) (A) (A) (A) (A) (A) (A)
                 (A) (A) (A) (A) (A) (A) (A) (A) (A)
       Virtual   (A) (A) (A) (A) (A) (A) (A) (A) (A) (A) (A) (A)
                 (A) (A) (A) (A) (A) (A) (A) (A) (A) (A) (A) (A)
                 (A) (A) (A) (A) (A) (A) (A) (A) (A) (A) (A) (A)
                 (A) (A) (A) (A) (A) (A) (A) (A) (A) (A) (A) (A)
                 (A) (A) (A) (A) (A) (A) (A) (A) (A) (A) (A) (A)
                 (A) (A) (A) (A) (A) (A) (A) (A) (A) (A) (A) (A)
                 (A) (A) (A) (A) (A) (A) (A) (A) (A) (A) (A) (A)
                 (A) (A) (A) (A) (A) (A) (A) (A) (A) (A) (A) (A)
                 (A) (A) (A) (A) (A) (A) (A) (A) (A) (A) (A) (A)
                 (A) (A) (A) (A) (A) (A) (A) (A) (A) (A) (A) (A)
                 (A) (A) (A) (A) (A) (A) (A) (A) (A) (A) (A) (A)
                 (A) (A) (A) (A) (A) (A) (A) (A) (A) (A) (A) (A)
                 (A) (A) (A) (A) (A) (A) (A) (A) (A) (A) (A) (A)
                 (A) (A) (A) (A) (A) (A) (A) (A) (A) (A) (A) (A)
                 (A) (A) (A) (A) (A) (A) (A) (A) (A) (A) (A) (A)
                 (A) (A) (A) (A) (A) (A) (A) (A) (A) (A) (A) (A)
                 (A) (A) (A) (A) (A) (A) (A) (A) (A) (A) (A) (A)
                 (A) (A) (A) (A) (A) (A) (A) (A) (A) (A) (A) (A)
                 (A) (A) (A) (A) (A) (A) (A) (A) (A) (A) (A) (A)
                 (A) (A) (A) (A) (A) (A) (A) (A) (A) (A) (A) (A)
                 (A) (A) (A) (A) (A) (A) (A) (A) (A) (A) (A) (A)
                 (A) (A) (A) (A) (A) (A) (A) (A) (A) (A) (A) (A)
                 (A) (A) (A) (A) (A) (A) (A) (A) (A) (A) (A) (A)
                 (A) (A) (A) (A) (A) (A) (A) (A) (A) (A) (A) (A)
                 (A) (A) (A) (A) (A) (A) (A) (A) (A) (A) (A) (A)
                 (A) (A) (A) (A) (A) (A) (A) (A) (A) (A) (A) (A)
                 (A) (A) (A) (A) (A) (A) (A) (A) (A) (A) (A) (A)
                 (A) (A) (A) (A) (A) (A) (A) (A) (A) (A) (A) (A)
                 (A) (A) (A) (A) (A) (A) (A) (A) (A) (A) (A) (A)
                 (A) (A) (A) (A) (A) (A) (A) (A) (A) (A) (A) (A)
                 (A) (A) (A) (A) (A) (A) (A) (A) (A) (A) (A) (A)
                 (A) (A) (A) (A) (A) (A) (A) (A) (A) (A) (A) (A)
                 (A) (A) (A) (A) (A) (A) (A) (A) (A) (A) (A) (A)
                 (A) (A) (A) (A) (A) (A) (A) (A) (A) (A) (A) (A)
                 (A) (A) (A) (A) (A) (A) (A) (A) (A) (A) (A) (A)
                 (A) (A) (A) (A) (A) (A) (A) (A) (A) (A) (A) (A)
                 (A) (A) (A) (A) (A) (A) (A) (A) (A) (A) (A) (A)
                 (A) (A) (A) (A) (A) (A) (A) (A) (A) (A) (A) (A)
                 (A) (A) (A) (A) (A) (A) (A) (A) (A) (A) (A) (A)
                 (A) (A) (A) (A) (A) (A) (A)
 The electronic state is 1-A.
 Alpha  occ. eigenvalues --  -19.12810 -10.21625 -10.21486 -10.17917 -10.17831
 Alpha  occ. eigenvalues --  -10.17497 -10.17198 -10.17174 -10.17084 -10.17038
 Alpha  occ. eigenvalues --  -10.16799 -10.16651 -10.16643 -10.16092  -1.01968
 Alpha  occ. eigenvalues --   -0.81750  -0.80596  -0.78080  -0.73575  -0.72046
 Alpha  occ. eigenvalues --   -0.69426  -0.66790  -0.64339  -0.61284  -0.59620
 Alpha  occ. eigenvalues --   -0.57621  -0.55375  -0.55077  -0.48920  -0.47596
 Alpha  occ. eigenvalues --   -0.47052  -0.45690  -0.45247  -0.44126  -0.43591
 Alpha  occ. eigenvalues --   -0.41974  -0.41395  -0.40074  -0.39914  -0.37831
 Alpha  occ. eigenvalues --   -0.37754  -0.37115  -0.36490  -0.36186  -0.35635
 Alpha  occ. eigenvalues --   -0.34932  -0.34121  -0.33861  -0.32520  -0.32184
 Alpha  occ. eigenvalues --   -0.31757  -0.31648  -0.31457  -0.30977  -0.30397
 Alpha  occ. eigenvalues --   -0.28793  -0.24682
 Alpha virt. eigenvalues --    0.08352   0.08819   0.10089   0.10984   0.11186
 Alpha virt. eigenvalues --    0.11927   0.12380   0.12908   0.13614   0.14131
 Alpha virt. eigenvalues --    0.14671   0.15218   0.16124   0.16555   0.16880
 Alpha virt. eigenvalues --    0.17236   0.17458   0.17730   0.18165   0.18535
 Alpha virt. eigenvalues --    0.19428   0.19524   0.20090   0.20698   0.21157
 Alpha virt. eigenvalues --    0.21418   0.21940   0.22082   0.22594   0.23213
 Alpha virt. eigenvalues --    0.24081   0.24447   0.24712   0.25294   0.25416
 Alpha virt. eigenvalues --    0.26324   0.27210   0.28193   0.29124   0.31732
 Alpha virt. eigenvalues --    0.34887   0.40627   0.44408   0.46052   0.47226
 Alpha virt. eigenvalues --    0.48410   0.48491   0.48627   0.49251   0.49716
 Alpha virt. eigenvalues --    0.50515   0.51295   0.52408   0.52773   0.53850
 Alpha virt. eigenvalues --    0.54487   0.55719   0.56120   0.58003   0.58282
 Alpha virt. eigenvalues --    0.58863   0.59589   0.60314   0.60922   0.62422
 Alpha virt. eigenvalues --    0.62799   0.63461   0.64761   0.65422   0.66820
 Alpha virt. eigenvalues --    0.68595   0.69320   0.69939   0.70016   0.70326
 Alpha virt. eigenvalues --    0.71193   0.71748   0.72525   0.72744   0.72998
 Alpha virt. eigenvalues --    0.73359   0.74150   0.74363   0.74604   0.75300
 Alpha virt. eigenvalues --    0.75708   0.75937   0.76686   0.76753   0.76997
 Alpha virt. eigenvalues --    0.77706   0.77956   0.78836   0.79546   0.80113
 Alpha virt. eigenvalues --    0.80858   0.81363   0.81786   0.83138   0.83889
 Alpha virt. eigenvalues --    0.85218   0.85732   0.86352   0.86793   0.87338
 Alpha virt. eigenvalues --    0.87862   0.88653   0.89229   0.90235   0.91017
 Alpha virt. eigenvalues --    0.91757   0.92798   0.95319   0.97625   1.00701
 Alpha virt. eigenvalues --    1.04073   1.06935   1.07662   1.08162   1.09109
 Alpha virt. eigenvalues --    1.09959   1.10835   1.12289   1.12951   1.15530
 Alpha virt. eigenvalues --    1.18640   1.18830   1.21472   1.22015   1.23010
 Alpha virt. eigenvalues --    1.23589   1.24616   1.25508   1.26338   1.26807
 Alpha virt. eigenvalues --    1.32391   1.33224   1.35023   1.36296   1.36852
 Alpha virt. eigenvalues --    1.37412   1.37967   1.38035   1.38526   1.40792
 Alpha virt. eigenvalues --    1.41399   1.42489   1.43861   1.45862   1.46413
 Alpha virt. eigenvalues --    1.47924   1.48743   1.49595   1.52340   1.53901
 Alpha virt. eigenvalues --    1.54811   1.55370   1.56206   1.57086   1.58407
 Alpha virt. eigenvalues --    1.58758   1.59721   1.59984   1.61882   1.64393
 Alpha virt. eigenvalues --    1.66021   1.67039   1.69057   1.70213   1.70987
 Alpha virt. eigenvalues --    1.74367   1.77010   1.77049   1.77942   1.78831
 Alpha virt. eigenvalues --    1.79346   1.79901   1.83025   1.83318   1.83834
 Alpha virt. eigenvalues --    1.86236   1.87015   1.88210   1.89186   1.90136
 Alpha virt. eigenvalues --    1.91983   1.94007   1.94308   1.95061   1.95583
 Alpha virt. eigenvalues --    1.95729   1.96491   1.97045   1.97611   1.99490
 Alpha virt. eigenvalues --    1.99665   2.02153   2.05083   2.14665   2.17303
 Alpha virt. eigenvalues --    2.17450   2.18378   2.20607   2.22202   2.23073
 Alpha virt. eigenvalues --    2.23254   2.26093   2.26317   2.26763   2.26913
 Alpha virt. eigenvalues --    2.27328   2.29702   2.30893   2.31190   2.32846
 Alpha virt. eigenvalues --    2.35019   2.35173   2.37408   2.39537   2.41499
 Alpha virt. eigenvalues --    2.43299   2.45441   2.46288   2.47959   2.49447
 Alpha virt. eigenvalues --    2.52206   2.52833   2.55231   2.58213   2.60493
 Alpha virt. eigenvalues --    2.63451   2.66142   2.68393   2.70113   2.71425
 Alpha virt. eigenvalues --    2.72846   2.74216   2.74838   2.75227   2.75713
 Alpha virt. eigenvalues --    2.76289   2.77079   2.77525   2.79881   2.80450
 Alpha virt. eigenvalues --    2.80920   2.81129   2.81576   2.82626   2.83168
 Alpha virt. eigenvalues --    2.83309   2.83633   2.84636   2.85031   2.85443
 Alpha virt. eigenvalues --    2.85612   2.86870   2.87580   2.88425   2.88947
 Alpha virt. eigenvalues --    2.89226   2.90485   2.91033   2.91863   2.92982
 Alpha virt. eigenvalues --    2.94239   2.94522   2.95163   2.97123   2.97940
 Alpha virt. eigenvalues --    2.98328   2.98691   2.99327   2.99487   3.00571
 Alpha virt. eigenvalues --    3.03344   3.05028   3.05650   3.07339   3.09316
 Alpha virt. eigenvalues --    3.11876   3.13465   3.13692   3.14283   3.15225
 Alpha virt. eigenvalues --    3.16919   3.17667   3.17886   3.20948   3.23827
 Alpha virt. eigenvalues --    3.25478   3.25611   3.29268   3.29377   3.32665
 Alpha virt. eigenvalues --    3.32888   3.34162   3.36150   3.37684   3.37901
 Alpha virt. eigenvalues --    3.38557   3.39259   3.40763   3.43724   3.45195
 Alpha virt. eigenvalues --    3.46085   3.48594   3.49786   3.50166   3.51081
 Alpha virt. eigenvalues --    3.53076   3.54799   3.55714   3.56817   3.57553
 Alpha virt. eigenvalues --    3.58050   3.59938   3.60457   3.60893   3.62820
 Alpha virt. eigenvalues --    3.63936   3.64465   3.65380   3.67505   3.69038
 Alpha virt. eigenvalues --    3.69514   3.70846   3.70919   3.71236   3.73598
 Alpha virt. eigenvalues --    3.74610   3.75356   3.77649   3.78174   3.79583
 Alpha virt. eigenvalues --    3.79926   3.80814   3.82746   3.83687   3.86200
 Alpha virt. eigenvalues --    3.88583   3.92351   3.93474   3.94688   3.95590
 Alpha virt. eigenvalues --    3.96446   3.97562   3.98863   4.00631   4.06291
 Alpha virt. eigenvalues --    4.10534   4.10719   4.13036   4.17033   4.19752
 Alpha virt. eigenvalues --    4.27561   4.33085   4.34813   4.36117   4.37893
 Alpha virt. eigenvalues --    4.38508   4.40641   4.41866   4.42689   4.43638
 Alpha virt. eigenvalues --    4.44631   4.44974   4.45923   4.46442   4.47313
 Alpha virt. eigenvalues --    4.49116   4.50260   4.50598   4.52202   4.52428
 Alpha virt. eigenvalues --    4.53331   4.55033   4.55077   4.57085   4.57240
 Alpha virt. eigenvalues --    4.58706   4.59221   4.59827   4.60583   4.61442
 Alpha virt. eigenvalues --    4.62075   4.62454   4.63222   4.64181   4.64501
 Alpha virt. eigenvalues --    4.65821   4.66659   4.67057   4.68967   4.69284
 Alpha virt. eigenvalues --    4.71146   4.71519   4.72576   4.73700   4.75181
 Alpha virt. eigenvalues --    4.75412   4.75943   4.76522   4.77821   4.78064
 Alpha virt. eigenvalues --    4.79133   4.79713   4.81315   4.82066   4.82703
 Alpha virt. eigenvalues --    4.83298   4.83645   4.84336   4.85533   4.86705
 Alpha virt. eigenvalues --    4.87426   4.87669   4.88609   4.90214   4.91166
 Alpha virt. eigenvalues --    4.91635   4.91814   4.92469   4.92954   4.95329
 Alpha virt. eigenvalues --    4.97789   4.99583   5.01568   5.03175   5.04740
 Alpha virt. eigenvalues --    5.08998   5.12635   5.18789   5.21384   5.24174
 Alpha virt. eigenvalues --    5.28975   5.32244   5.37714   5.39187   5.41686
 Alpha virt. eigenvalues --    5.43516   5.44044   5.45603   5.46210   5.49533
 Alpha virt. eigenvalues --    5.50510   5.51318   5.53671   5.57792   5.58868
 Alpha virt. eigenvalues --    5.60730   5.66309   5.75284   5.88491   5.90474
 Alpha virt. eigenvalues --    6.03765   6.07600   6.20250   6.28847   6.34037
 Alpha virt. eigenvalues --    7.10854  11.15972  11.21704  11.39442  11.58271
 Alpha virt. eigenvalues --   11.60372  11.80218  11.95189  12.16436  12.17936
 Alpha virt. eigenvalues --   12.20165  12.40150  12.55316  12.66470  13.52658
          Condensed to atoms (all electrons):
               1          2          3          4          5          6
     1  C    4.970511   0.400999  -0.030434  -0.004581   0.002227  -0.000157
     2  C    0.400999   4.818322   0.424214  -0.039989  -0.031084   0.002043
     3  C   -0.030434   0.424214   4.586646   0.409123   0.423963  -0.031475
     4  C   -0.004581  -0.039989   0.409123   5.006835  -0.034284  -0.005186
     5  C    0.002227  -0.031084   0.423963  -0.034284   4.844113   0.431908
     6  C   -0.000157   0.002043  -0.031475  -0.005186   0.431908   4.831592
     7  C    0.000001  -0.000135   0.001334   0.000595  -0.034106   0.378540
     8  C   -0.000000   0.000001  -0.000119   0.000010   0.001265  -0.040954
     9  O    0.000000  -0.000000   0.000000   0.000000  -0.000021   0.001879
    10  C   -0.000000  -0.000000  -0.000000  -0.000000  -0.000000  -0.000308
    11  C    0.000000  -0.000000   0.000000  -0.000000  -0.000000   0.000001
    12  C    0.000000  -0.000000  -0.000000   0.000000  -0.000000   0.000000
    13  C    0.000000   0.000000   0.000000  -0.000000   0.000000   0.000000
    14  C    0.000000  -0.000000   0.000000  -0.000000  -0.000000   0.000000
    15  H    0.371102  -0.021291   0.003029   0.000266  -0.000136   0.000001
    16  H    0.377213  -0.028984  -0.004169  -0.000915   0.000206   0.000004
    17  H    0.380060  -0.027524  -0.005728   0.000748   0.000133   0.000004
    18  H   -0.036927   0.362436  -0.027219   0.005349  -0.003197   0.000216
    19  H   -0.038939   0.364419  -0.027577  -0.008696  -0.004199   0.000162
    20  H   -0.004337  -0.041678   0.358745  -0.051741  -0.039614  -0.004363
    21  H   -0.000313  -0.004829  -0.026756   0.371806  -0.005345  -0.000406
    22  H    0.000871  -0.005830  -0.023367   0.371869   0.003992   0.000223
    23  H    0.000148   0.004578  -0.022675   0.371478  -0.004404  -0.001158
    24  H    0.000118  -0.004102  -0.025533   0.005271   0.353845  -0.031643
    25  H    0.000062  -0.004471  -0.026195  -0.008651   0.356779  -0.033485
    26  H    0.000004   0.000136  -0.005538   0.000204  -0.031710   0.366351
    27  H    0.000005   0.000176  -0.001713  -0.001053  -0.032714   0.364277
    28  H    0.000000   0.000000   0.000076  -0.000005  -0.002408  -0.027966
    29  H    0.000000   0.000006   0.000198  -0.000009  -0.003230  -0.026619
    30  H    0.000000   0.000000   0.000026  -0.000016   0.000031  -0.000284
    31  H    0.000000   0.000000   0.000013   0.000001   0.000015   0.001006
    32  H    0.000000   0.000000   0.000000  -0.000000   0.000000   0.000042
    33  H    0.000000   0.000000   0.000000   0.000000   0.000000   0.000045
    34  H    0.000000   0.000000   0.000000   0.000000   0.000000   0.000000
    35  H   -0.000000   0.000000  -0.000000   0.000000  -0.000000   0.000000
    36  H    0.000000   0.000000   0.000000  -0.000000   0.000000   0.000003
    37  H    0.000000  -0.000000   0.000000  -0.000000  -0.000000   0.000000
    38  H    0.000000   0.000000   0.000000   0.000000   0.000000   0.000000
    39  H   -0.000000   0.000000   0.000000   0.000000   0.000000   0.000000
    40  H    0.000000   0.000000  -0.000000  -0.000000   0.000000   0.000000
    41  H    0.000000   0.000000  -0.000000  -0.000000   0.000000  -0.000000
    42  H    0.000000   0.000000  -0.000000   0.000000   0.000000  -0.000000
               7          8          9         10         11         12
     1  C    0.000001  -0.000000   0.000000  -0.000000   0.000000   0.000000
     2  C   -0.000135   0.000001  -0.000000  -0.000000  -0.000000  -0.000000
     3  C    0.001334  -0.000119   0.000000  -0.000000   0.000000  -0.000000
     4  C    0.000595   0.000010   0.000000  -0.000000  -0.000000   0.000000
     5  C   -0.034106   0.001265  -0.000021  -0.000000  -0.000000  -0.000000
     6  C    0.378540  -0.040954   0.001879  -0.000308   0.000001   0.000000
     7  C    4.875696   0.437395  -0.029924   0.003660  -0.000273  -0.000007
     8  C    0.437395   4.740452   0.353201  -0.071387   0.003348   0.000926
     9  O   -0.029924   0.353201   7.729673   0.347020  -0.033036  -0.002849
    10  C    0.003660  -0.071387   0.347020   4.775507   0.437050  -0.031012
    11  C   -0.000273   0.003348  -0.033036   0.437050   4.644991   0.398067
    12  C   -0.000007   0.000926  -0.002849  -0.031012   0.398067   5.006927
    13  C    0.000002  -0.000192   0.001679  -0.035390   0.398696  -0.037135
    14  C   -0.000000  -0.000000  -0.000030   0.001468  -0.029149  -0.004251
    15  H   -0.000000   0.000000  -0.000000   0.000000  -0.000000  -0.000000
    16  H    0.000000   0.000000   0.000000   0.000000   0.000000  -0.000000
    17  H    0.000000   0.000000   0.000000   0.000000   0.000000  -0.000000
    18  H    0.000006   0.000000   0.000000   0.000000   0.000000   0.000000
    19  H    0.000005   0.000000   0.000000   0.000000   0.000000  -0.000000
    20  H    0.000117   0.000008   0.000000   0.000000  -0.000000   0.000000
    21  H   -0.000045   0.000001  -0.000000   0.000000  -0.000000  -0.000000
    22  H   -0.000008  -0.000000   0.000000  -0.000000   0.000000  -0.000000
    23  H   -0.000114   0.000007  -0.000000   0.000000  -0.000000  -0.000000
    24  H   -0.002198   0.000166   0.000001   0.000000   0.000000  -0.000000
    25  H   -0.003179   0.000180   0.000001   0.000000   0.000000   0.000000
    26  H   -0.035441  -0.003762   0.000046   0.000009   0.000000  -0.000000
    27  H   -0.035698  -0.003036   0.000028   0.000010   0.000000  -0.000000
    28  H    0.359515  -0.027393   0.002703   0.000114  -0.000002  -0.000018
    29  H    0.359131  -0.027749   0.002787   0.000188   0.000024  -0.000004
    30  H   -0.033006   0.347336  -0.030987  -0.006314  -0.000184   0.000043
    31  H   -0.034414   0.346473  -0.031101  -0.005568   0.000664  -0.000212
    32  H    0.000249  -0.004703  -0.028974   0.346740  -0.032002   0.006998
    33  H    0.000220  -0.007520  -0.032450   0.339731  -0.022983  -0.012540
    34  H    0.000011   0.000048   0.001770  -0.033055   0.355366  -0.050533
    35  H    0.000000  -0.000064  -0.000294  -0.004464  -0.029030   0.369641
    36  H    0.000080  -0.000389   0.011848  -0.006049  -0.021439   0.370575
    37  H   -0.000001  -0.000007   0.000245   0.003601  -0.024593   0.372937
    38  H    0.000000   0.000010   0.000054  -0.002858  -0.030648   0.005574
    39  H    0.000000   0.000006   0.000013  -0.004415  -0.028182  -0.008614
    40  H    0.000000   0.000000   0.000001   0.000228  -0.003753  -0.000872
    41  H    0.000000  -0.000000   0.000000  -0.000126   0.002917   0.000220
    42  H   -0.000000   0.000000   0.000000   0.000164  -0.005743   0.001451
              13         14         15         16         17         18
     1  C    0.000000   0.000000   0.371102   0.377213   0.380060  -0.036927
     2  C    0.000000  -0.000000  -0.021291  -0.028984  -0.027524   0.362436
     3  C    0.000000   0.000000   0.003029  -0.004169  -0.005728  -0.027219
     4  C   -0.000000  -0.000000   0.000266  -0.000915   0.000748   0.005349
     5  C    0.000000  -0.000000  -0.000136   0.000206   0.000133  -0.003197
     6  C    0.000000   0.000000   0.000001   0.000004   0.000004   0.000216
     7  C    0.000002  -0.000000  -0.000000   0.000000   0.000000   0.000006
     8  C   -0.000192  -0.000000   0.000000   0.000000   0.000000   0.000000
     9  O    0.001679  -0.000030  -0.000000   0.000000   0.000000   0.000000
    10  C   -0.035390   0.001468   0.000000   0.000000   0.000000   0.000000
    11  C    0.398696  -0.029149  -0.000000   0.000000   0.000000   0.000000
    12  C   -0.037135  -0.004251  -0.000000  -0.000000  -0.000000   0.000000
    13  C    4.825373   0.409952   0.000000   0.000000  -0.000000   0.000000
    14  C    0.409952   4.957441   0.000000   0.000000   0.000000   0.000000
    15  H    0.000000   0.000000   0.609818  -0.031641  -0.032161  -0.003326
    16  H    0.000000   0.000000  -0.031641   0.604365  -0.034389  -0.004003
    17  H   -0.000000   0.000000  -0.032161  -0.034389   0.596018   0.005695
    18  H    0.000000   0.000000  -0.003326  -0.004003   0.005695   0.652326
    19  H    0.000000   0.000000  -0.001953   0.005805  -0.004363  -0.040418
    20  H   -0.000000   0.000000  -0.000062   0.005576  -0.000111  -0.004222
    21  H   -0.000000  -0.000000  -0.000033   0.000098   0.000693  -0.000026
    22  H    0.000000   0.000000  -0.000150   0.000925   0.003769   0.000006
    23  H    0.000000  -0.000000  -0.000001  -0.000038  -0.000199  -0.000188
    24  H   -0.000000   0.000000  -0.000001  -0.000002   0.000004   0.005463
    25  H   -0.000000   0.000000   0.000002   0.000011   0.000004  -0.000304
    26  H    0.000000   0.000000   0.000000   0.000000  -0.000001   0.000002
    27  H    0.000000   0.000000   0.000000  -0.000002   0.000000  -0.000005
    28  H    0.000000   0.000000   0.000000   0.000000  -0.000000  -0.000000
    29  H    0.000000   0.000000   0.000000  -0.000000  -0.000000   0.000000
    30  H    0.000012   0.000000   0.000000   0.000000   0.000000  -0.000000
    31  H    0.000038   0.000000  -0.000000   0.000000  -0.000000   0.000000
    32  H   -0.001847  -0.000059   0.000000  -0.000000  -0.000000  -0.000000
    33  H   -0.001346  -0.000034   0.000000   0.000000  -0.000000  -0.000000
    34  H   -0.038879  -0.004276   0.000000   0.000000  -0.000000  -0.000000
    35  H   -0.005190  -0.000288   0.000000   0.000000   0.000000   0.000000
    36  H    0.004644   0.000133   0.000000  -0.000000  -0.000000   0.000000
    37  H   -0.005824   0.000946   0.000000  -0.000000   0.000000  -0.000000
    38  H    0.364390  -0.036674   0.000000   0.000000  -0.000000   0.000000
    39  H    0.364356  -0.038322   0.000000  -0.000000  -0.000000  -0.000000
    40  H   -0.029060   0.377576   0.000000   0.000000   0.000000   0.000000
    41  H   -0.022381   0.372741   0.000000   0.000000   0.000000   0.000000
    42  H   -0.027459   0.380477   0.000000   0.000000   0.000000  -0.000000
              19         20         21         22         23         24
     1  C   -0.038939  -0.004337  -0.000313   0.000871   0.000148   0.000118
     2  C    0.364419  -0.041678  -0.004829  -0.005830   0.004578  -0.004102
     3  C   -0.027577   0.358745  -0.026756  -0.023367  -0.022675  -0.025533
     4  C   -0.008696  -0.051741   0.371806   0.371869   0.371478   0.005271
     5  C   -0.004199  -0.039614  -0.005345   0.003992  -0.004404   0.353845
     6  C    0.000162  -0.004363  -0.000406   0.000223  -0.001158  -0.031643
     7  C    0.000005   0.000117  -0.000045  -0.000008  -0.000114  -0.002198
     8  C    0.000000   0.000008   0.000001  -0.000000   0.000007   0.000166
     9  O    0.000000   0.000000  -0.000000   0.000000  -0.000000   0.000001
    10  C    0.000000   0.000000   0.000000  -0.000000   0.000000   0.000000
    11  C    0.000000  -0.000000  -0.000000   0.000000  -0.000000   0.000000
    12  C   -0.000000   0.000000  -0.000000  -0.000000  -0.000000  -0.000000
    13  C    0.000000  -0.000000  -0.000000   0.000000   0.000000  -0.000000
    14  C    0.000000   0.000000  -0.000000   0.000000  -0.000000   0.000000
    15  H   -0.001953  -0.000062  -0.000033  -0.000150  -0.000001  -0.000001
    16  H    0.005805   0.005576   0.000098   0.000925  -0.000038  -0.000002
    17  H   -0.004363  -0.000111   0.000693   0.003769  -0.000199   0.000004
    18  H   -0.040418  -0.004222  -0.000026   0.000006  -0.000188   0.005463
    19  H    0.648826   0.006829   0.005071   0.000058  -0.000060  -0.000297
    20  H    0.006829   0.700809   0.006328  -0.002730  -0.003224  -0.004164
    21  H    0.005071   0.006328   0.605858  -0.033089  -0.034062  -0.000014
    22  H    0.000058  -0.002730  -0.033089   0.602728  -0.031126  -0.000178
    23  H   -0.000060  -0.003224  -0.034062  -0.031126   0.602360  -0.000042
    24  H   -0.000297  -0.004164  -0.000014  -0.000178  -0.000042   0.652619
    25  H    0.005049   0.006739   0.005170  -0.000067   0.000108  -0.041917
    26  H    0.000006  -0.000083   0.001045  -0.000225   0.003845   0.006332
    27  H    0.000010   0.005743   0.000109  -0.000045   0.001089  -0.005712
    28  H    0.000000   0.000004   0.000001   0.000000   0.000000   0.004434
    29  H   -0.000002   0.000010   0.000004  -0.000000   0.000026  -0.000398
    30  H    0.000000   0.000001   0.000000   0.000000  -0.000008   0.000004
    31  H   -0.000000  -0.000003  -0.000000   0.000000   0.000005   0.000011
    32  H   -0.000000   0.000000  -0.000000  -0.000000   0.000000  -0.000000
    33  H    0.000000  -0.000000  -0.000000   0.000000   0.000000   0.000000
    34  H    0.000000  -0.000000  -0.000000   0.000000   0.000000   0.000000
    35  H    0.000000   0.000000   0.000000  -0.000000   0.000000   0.000000
    36  H    0.000000   0.000000   0.000000   0.000000   0.000000  -0.000000
    37  H   -0.000000   0.000000   0.000000  -0.000000  -0.000000  -0.000000
    38  H    0.000000  -0.000000  -0.000000  -0.000000  -0.000000  -0.000000
    39  H    0.000000   0.000000  -0.000000   0.000000   0.000000  -0.000000
    40  H    0.000000   0.000000   0.000000  -0.000000  -0.000000  -0.000000
    41  H    0.000000  -0.000000   0.000000   0.000000   0.000000  -0.000000
    42  H    0.000000   0.000000   0.000000  -0.000000  -0.000000   0.000000
              25         26         27         28         29         30
     1  C    0.000062   0.000004   0.000005   0.000000   0.000000   0.000000
     2  C   -0.004471   0.000136   0.000176   0.000000   0.000006   0.000000
     3  C   -0.026195  -0.005538  -0.001713   0.000076   0.000198   0.000026
     4  C   -0.008651   0.000204  -0.001053  -0.000005  -0.000009  -0.000016
     5  C    0.356779  -0.031710  -0.032714  -0.002408  -0.003230   0.000031
     6  C   -0.033485   0.366351   0.364277  -0.027966  -0.026619  -0.000284
     7  C   -0.003179  -0.035441  -0.035698   0.359515   0.359131  -0.033006
     8  C    0.000180  -0.003762  -0.003036  -0.027393  -0.027749   0.347336
     9  O    0.000001   0.000046   0.000028   0.002703   0.002787  -0.030987
    10  C    0.000000   0.000009   0.000010   0.000114   0.000188  -0.006314
    11  C    0.000000   0.000000   0.000000  -0.000002   0.000024  -0.000184
    12  C    0.000000  -0.000000  -0.000000  -0.000018  -0.000004   0.000043
    13  C   -0.000000   0.000000   0.000000   0.000000   0.000000   0.000012
    14  C    0.000000   0.000000   0.000000   0.000000   0.000000   0.000000
    15  H    0.000002   0.000000   0.000000   0.000000   0.000000   0.000000
    16  H    0.000011   0.000000  -0.000002   0.000000  -0.000000   0.000000
    17  H    0.000004  -0.000001   0.000000  -0.000000  -0.000000   0.000000
    18  H   -0.000304   0.000002  -0.000005  -0.000000   0.000000  -0.000000
    19  H    0.005049   0.000006   0.000010   0.000000  -0.000002   0.000000
    20  H    0.006739  -0.000083   0.005743   0.000004   0.000010   0.000001
    21  H    0.005170   0.001045   0.000109   0.000001   0.000004   0.000000
    22  H   -0.000067  -0.000225  -0.000045   0.000000  -0.000000   0.000000
    23  H    0.000108   0.003845   0.001089   0.000000   0.000026  -0.000008
    24  H   -0.041917   0.006332  -0.005712   0.004434  -0.000398   0.000004
    25  H    0.648149  -0.005012   0.006376  -0.000477   0.004936   0.000009
    26  H   -0.005012   0.643506  -0.044386   0.006340  -0.005935   0.006800
    27  H    0.006376  -0.044386   0.651317  -0.005789   0.006173  -0.000537
    28  H   -0.000477   0.006340  -0.005789   0.634853  -0.043239   0.006634
    29  H    0.004936  -0.005935   0.006173  -0.043239   0.632039  -0.007073
    30  H    0.000009   0.006800  -0.000537   0.006634  -0.007073   0.687065
    31  H    0.000004  -0.000807   0.005301  -0.007362   0.006723  -0.061934
    32  H    0.000000  -0.000001   0.000001   0.000034  -0.000046   0.013691
    33  H   -0.000000  -0.000000  -0.000002  -0.000047   0.000043  -0.003041
    34  H   -0.000000  -0.000000  -0.000000  -0.000001   0.000003  -0.000054
    35  H   -0.000000   0.000000  -0.000000   0.000000   0.000000  -0.000000
    36  H   -0.000000   0.000000   0.000000   0.000158   0.000002   0.000048
    37  H    0.000000   0.000000   0.000000   0.000000  -0.000000   0.000001
    38  H   -0.000000   0.000000  -0.000000  -0.000000  -0.000000   0.000001
    39  H   -0.000000  -0.000000  -0.000000  -0.000000  -0.000000   0.000000
    40  H    0.000000   0.000000  -0.000000   0.000000  -0.000000   0.000000
    41  H   -0.000000  -0.000000  -0.000000   0.000000   0.000000   0.000000
    42  H    0.000000   0.000000  -0.000000  -0.000000  -0.000000  -0.000000
              31         32         33         34         35         36
     1  C    0.000000   0.000000   0.000000   0.000000  -0.000000   0.000000
     2  C    0.000000   0.000000   0.000000   0.000000   0.000000   0.000000
     3  C    0.000013   0.000000   0.000000   0.000000  -0.000000   0.000000
     4  C    0.000001  -0.000000   0.000000   0.000000   0.000000  -0.000000
     5  C    0.000015   0.000000   0.000000   0.000000  -0.000000   0.000000
     6  C    0.001006   0.000042   0.000045   0.000000   0.000000   0.000003
     7  C   -0.034414   0.000249   0.000220   0.000011   0.000000   0.000080
     8  C    0.346473  -0.004703  -0.007520   0.000048  -0.000064  -0.000389
     9  O   -0.031101  -0.028974  -0.032450   0.001770  -0.000294   0.011848
    10  C   -0.005568   0.346740   0.339731  -0.033055  -0.004464  -0.006049
    11  C    0.000664  -0.032002  -0.022983   0.355366  -0.029030  -0.021439
    12  C   -0.000212   0.006998  -0.012540  -0.050533   0.369641   0.370575
    13  C    0.000038  -0.001847  -0.001346  -0.038879  -0.005190   0.004644
    14  C    0.000000  -0.000059  -0.000034  -0.004276  -0.000288   0.000133
    15  H   -0.000000   0.000000   0.000000   0.000000   0.000000   0.000000
    16  H    0.000000  -0.000000   0.000000   0.000000   0.000000  -0.000000
    17  H   -0.000000  -0.000000  -0.000000  -0.000000   0.000000  -0.000000
    18  H    0.000000  -0.000000  -0.000000  -0.000000   0.000000   0.000000
    19  H   -0.000000  -0.000000   0.000000   0.000000   0.000000   0.000000
    20  H   -0.000003   0.000000  -0.000000  -0.000000   0.000000   0.000000
    21  H   -0.000000  -0.000000  -0.000000  -0.000000   0.000000   0.000000
    22  H    0.000000  -0.000000   0.000000   0.000000  -0.000000   0.000000
    23  H    0.000005   0.000000   0.000000   0.000000   0.000000   0.000000
    24  H    0.000011  -0.000000   0.000000   0.000000   0.000000  -0.000000
    25  H    0.000004   0.000000  -0.000000  -0.000000  -0.000000  -0.000000
    26  H   -0.000807  -0.000001  -0.000000  -0.000000   0.000000   0.000000
    27  H    0.005301   0.000001  -0.000002  -0.000000  -0.000000   0.000000
    28  H   -0.007362   0.000034  -0.000047  -0.000001   0.000000   0.000158
    29  H    0.006723  -0.000046   0.000043   0.000003   0.000000   0.000002
    30  H   -0.061934   0.013691  -0.003041  -0.000054  -0.000000   0.000048
    31  H    0.685593  -0.002896   0.015693   0.000048   0.000026   0.000020
    32  H   -0.002896   0.683820  -0.059568  -0.006453  -0.000058   0.000327
    33  H    0.015693  -0.059568   0.685054   0.007415   0.005560   0.000220
    34  H    0.000048  -0.006453   0.007415   0.682862   0.006244  -0.002362
    35  H    0.000026  -0.000058   0.005560   0.006244   0.613087  -0.030854
    36  H    0.000020   0.000327   0.000220  -0.002362  -0.030854   0.575355
    37  H   -0.000002  -0.000147  -0.000127  -0.002934  -0.033470  -0.031329
    38  H   -0.000000   0.005774  -0.000483  -0.004321  -0.000029  -0.000168
    39  H   -0.000001  -0.000480   0.005450   0.006676   0.005249  -0.000048
    40  H   -0.000000   0.000002   0.000008   0.005223   0.000096  -0.000030
    41  H    0.000000   0.000002   0.000006  -0.000054  -0.000034  -0.000000
    42  H    0.000000   0.000000   0.000006  -0.000111   0.000680  -0.000186
              37         38         39         40         41         42
     1  C    0.000000   0.000000  -0.000000   0.000000   0.000000   0.000000
     2  C   -0.000000   0.000000   0.000000   0.000000   0.000000   0.000000
     3  C    0.000000   0.000000   0.000000  -0.000000  -0.000000  -0.000000
     4  C   -0.000000   0.000000   0.000000  -0.000000  -0.000000   0.000000
     5  C   -0.000000   0.000000   0.000000   0.000000   0.000000   0.000000
     6  C    0.000000   0.000000   0.000000   0.000000  -0.000000  -0.000000
     7  C   -0.000001   0.000000   0.000000   0.000000   0.000000  -0.000000
     8  C   -0.000007   0.000010   0.000006   0.000000  -0.000000   0.000000
[...]
 00000040,0.00000144,0.00000073,0.00000024,0.,-0.00000036,-0.00000041,-
 0.00000005,-0.00000003,-0.00000010,-0.00000002,0.00000017,-0.00000079,
 0.00000002,0.00000044,0.00000066,0.00000179,-0.00000041,-0.00000030,0.
 00000362,0.00000157,0.00000060,0.00000014,-0.00000068,-0.00000380,0.00
 000246,0.00000516,-0.00000073,-0.00000127,-0.00000170,0.00000176,0.000
 01069,0.00000208,0.00000145,0.00000179,-0.00000343,-0.00001907,0.00000
 338,0.00002880,-0.00000521,-0.00000032,-0.00000351,-0.00042868,0.00015
 207,0.00044194,0.00004794,-0.00012031,0.00002762,-0.00037465,-0.000430
 38,0.00063165,0.00007038,0.00029327,0.00051209,0.00024902,-0.00001941,
 0.00032245,-0.00000625,-0.00008095,-0.00004969,-0.06757525,0.11900981,
 0.17134187,0.00000011,-0.00000021,-0.00000005,-0.00000014,0.00000026,-
 0.00000060,0.00000099,0.00000017,-0.00000025,-0.00000070,-0.00000016,-
 0.00000035,0.00000112,0.00000006,-0.00000087,0.00000063,0.00000445,-0.
 00000101,0.00001596,-0.00000253,-0.00000764,0.00001019,0.00004726,-0.0
 0003955,-0.00018222,0.00007074,-0.00023133,0.00100035,-0.00021998,0.00
 111002,0.00283701,-0.00486921,0.01274856,0.00002706,0.00076707,0.00000
 491,-0.06267381,0.02073775,-0.05642958,-0.01125989,0.01109863,-0.03211
 809,-0.00000021,-0.00000026,-0.00000012,0.00000012,-0.00000009,0.00000
 015,-0.00000025,0.00000020,0.00000015,-0.00000020,0.00000041,0.0000002
 0,0.00000008,-0.00000007,0.00000033,-0.00000004,-0.00000015,0.00000034
 ,0.00000027,0.00000002,0.00000024,-0.00000059,-0.00000004,0.00000012,0
 .00000043,-0.00000021,-0.00000003,-0.00000011,0.00000066,0.00000032,0.
 00000012,0.00000007,0.00000019,-0.00000084,0.00000025,0.00000080,-0.00
 000105,-0.00000094,-0.00000014,-0.00000030,0.00000167,0.00000115,0.000
 00309,0.00000487,-0.00000265,-0.00000177,0.00000440,0.00000536,-0.0000
 3781,-0.00000136,-0.00001786,-0.00004952,-0.00001072,-0.00001203,-0.00
 014591,-0.00017025,-0.00032099,-0.00085123,-0.00256293,0.00031346,0.00
 014365,0.00019671,-0.00015304,-0.00006373,0.00010123,0.00012949,0.0000
 4289,-0.00005291,-0.00007902,0.00286724,-0.00426185,0.01083360,0.07237
 018,0.00000077,-0.00000147,0.00000086,-0.00000209,0.00000191,0.0000004
 8,0.00000380,-0.00000242,0.00000193,-0.00000118,-0.00000028,-0.0000002
 3,-0.00000384,0.00000446,0.00000192,0.00000605,-0.00000643,0.00000230,
 0.00000552,0.00000801,0.00000829,-0.00000951,0.00002729,-0.00009398,-0
 .00016600,0.00017206,-0.00049678,0.00159589,0.00009772,0.00070849,0.00
 698468,-0.01237492,0.02879721,0.00069072,0.00186201,0.00171596,0.02108
 492,-0.07443313,0.07175793,0.00027027,-0.00030745,0.00030650,-0.000000
 92,-0.00000095,0.00000003,-0.00000055,0.00000046,-0.00000067,-0.000000
 14,0.00000027,-0.00000009,0.00000039,-0.00000015,0.00000020,-0.0000000
 7,0.00000004,-0.00000085,-0.00000149,0.00000049,-0.00000132,0.00000050
 ,0.00000042,-0.00000072,-0.00000194,-0.00000023,0.00000042,0.00000142,
 -0.00000118,0.00000004,0.00000055,-0.00000126,0.00000024,0.00000035,0.
 00000027,-0.00000226,0.00000026,0.00000020,-0.00000042,-0.00000503,0.0
 0000119,-0.00000256,0.00000073,-0.00000612,0.00000101,0.00000551,0.000
 00310,-0.00000955,-0.00000332,0.00000401,0.00000033,-0.00007097,-0.000
 00468,-0.00000807,-0.00017621,0.00003306,-0.00008585,-0.00070378,0.000
 32730,-0.00045876,-0.00294022,-0.00510096,0.00099077,-0.00014041,-0.00
 012440,-0.00114427,-0.00021887,0.00040121,-0.00030287,-0.00000934,-0.0
 0012160,-0.00008633,-0.00564570,0.00690806,-0.01921883,-0.02067047,0.0
 8146365,-0.00000119,0.00000150,-0.00000160,0.00000173,-0.00000115,-0.0
 0000103,-0.00000470,0.00000298,-0.00000341,0.00000135,0.00000174,-0.00
 000080,0.00000506,-0.00000268,-0.00000141,-0.00000812,0.00000893,-0.00
 000927,0.00002170,-0.00000102,0.00000033,-0.00002403,0.00006309,-0.000
 08656,0.00036604,-0.00021915,0.00050250,-0.00095816,0.00007146,-0.0006
 3254,-0.00086289,0.00268865,-0.00684257,0.00018300,-0.00085637,0.00102
 127,-0.05737708,0.07242499,-0.25300860,-0.00047084,0.00043071,-0.00182
 143,0.00000079,0.00000070,-0.00000001,0.00000088,-0.00000054,0.0000016
 9,0.00000041,-0.00000027,-0.00000026,-0.00000032,-0.00000026,-0.000000
 53,0.00000024,-0.00000049,0.00000188,0.00000241,-0.00000039,0.00000337
 ,-0.00000019,-0.00000162,0.00000209,0.00000260,0.00000049,-0.00000054,
 -0.00000206,0.00000039,-0.00000097,-0.00000061,-0.00000009,-0.00000069
 ,-0.00000034,-0.00000212,0.00000423,0.00000007,-0.00000011,-0.00000198
 ,0.00000680,0.00000040,0.00000769,-0.00000171,0.00000004,-0.00000164,-
 0.00000291,-0.00000994,0.00001106,0.00000592,-0.00000632,-0.00000237,0
 .00003877,0.00001743,0.00002829,-0.00002188,0.00011710,0.00003724,0.00
 076754,0.00004552,0.00054978,0.00092211,0.00097367,0.00123145,-0.00014
 367,0.00061302,0.00065486,0.00012535,-0.00003641,0.00024177,0.00002543
 ,-0.00007572,0.00004228,-0.00536852,0.00687328,-0.02027214,0.06383555,
 -0.08252487,0.27568849,0.,-0.00000047,-0.00000008,-0.00000106,0.000000
 77,-0.00000066,0.00000044,-0.00000130,-0.00000015,-0.00000020,0.000000
 87,-0.00000108,-0.00000203,0.00000285,-0.00000230,0.00000082,-0.000004
 75,-0.00000042,-0.00000517,0.00000569,-0.00000709,0.00005720,0.0000123
 7,-0.00002122,-0.00001713,-0.00018289,0.00019131,0.00003532,0.00030616
 ,0.00004818,0.00190027,0.00149691,-0.00124893,-0.00005086,-0.00019246,
 0.00006171,-0.01090290,0.01121863,-0.03182173,-0.06600315,0.02403205,-
 0.06328275,-0.00000028,-0.00000035,-0.00000006,0.00000027,0.00000002,0
 .00000037,-0.00000008,0.00000020,-0.00000002,0.,0.00000010,-0.00000026
 ,0.00000009,-0.00000037,0.00000092,0.00000074,0.00000006,0.00000119,0.
 00000005,-0.00000071,0.00000106,-0.00000004,0.00000008,0.00000027,-0.0
 0000002,-0.00000060,-0.00000057,-0.00000013,-0.00000019,-0.00000017,-0
 .00000010,-0.00000148,0.00000234,-0.00000044,0.00000075,-0.00000062,0.
 00000259,0.00000027,0.00000259,0.00000009,-0.00000021,0.00000028,-0.00
 000058,-0.00000455,0.00000532,-0.00000647,0.00000529,0.00000099,0.0000
 0404,0.00000677,0.00000617,-0.00001201,0.00003439,-0.00001859,0.000248
 86,-0.00008826,0.00022326,-0.00000413,-0.00082628,0.00089272,0.0000083
 4,0.00013690,0.00017162,0.00004477,-0.00007528,-0.00002823,0.00001801,
 -0.00007845,-0.00004760,0.00146522,0.00014341,0.00047015,-0.00701939,-
 0.00009124,-0.00024234,0.07428030,-0.00000079,0.00000166,-0.00000049,0
 .00000251,-0.00000215,0.00000083,-0.00000406,0.00000325,-0.00000077,0.
 00000154,-0.00000040,0.00000151,0.00000477,-0.00000547,0.00000236,-0.0
 0000610,0.00000939,-0.00000080,0.00001226,-0.00000606,0.00000248,-0.00
 007314,0.00001204,0.00001818,0.00016199,0.00002783,-0.00001320,-0.0002
 1801,0.00007737,-0.00006221,-0.00024820,0.00067492,-0.00114492,0.00001
 092,-0.00004546,-0.00003122,0.00004142,-0.00081200,0.00013610,0.024475
 67,-0.07717107,0.07835151,0.00000105,0.00000134,0.00000014,0.,-0.00000
 029,0.00000017,0.00000064,-0.00000071,-0.00000028,0.00000002,-0.000000
 66,-0.00000023,-0.00000015,0.00000050,-0.00000058,0.00000024,-0.000000
 34,-0.00000053,-0.00000055,0.00000047,-0.00000088,0.00000212,0.0000000
 8,-0.00000077,-0.00000133,0.00000138,0.00000068,-0.00000006,-0.0000004
 2,-0.00000060,-0.00000032,0.00000136,-0.00000106,0.00000158,-0.0000017
 3,-0.00000075,0.00000036,-0.00000027,-0.00000030,-0.00000122,-0.000001
 30,-0.00000172,-0.00000191,0.00000220,-0.00000022,0.00001265,-0.000008
 77,-0.00000667,0.00001390,-0.00000189,-0.00000003,0.00004015,-0.000026
 05,-0.00001489,-0.00004056,-0.00006467,0.00003659,0.00011562,0.0002809
 3,0.00013140,0.00008266,-0.00000174,0.00008688,-0.00000653,-0.00001517
 ,0.00004805,0.00004656,0.00000396,-0.00006960,0.00010910,-0.00016417,0
 .00024473,-0.00004705,0.00088363,-0.00029283,-0.02719007,0.07909422,0.
 00000020,-0.00000117,0.00000002,-0.00000239,0.00000214,-0.00000147,0.0
 0000194,-0.00000281,0.00000036,-0.00000080,0.00000113,-0.00000176,-0.0
 0000496,0.00000592,-0.00000380,0.00000270,-0.00001049,0.00000225,-0.00
 001727,0.00001003,-0.00000949,0.00005996,-0.00001853,-0.00001249,-0.00
 021377,-0.00010774,0.00005149,0.00019168,-0.00015960,0.00031110,0.0003
 7158,0.00029028,0.00028092,-0.00019740,-0.00021945,0.00003728,-0.00096
 687,0.00058363,-0.00205330,-0.06401428,0.07829135,-0.25682633,-0.00000
 094,-0.00000119,-0.00000018,0.00000043,0.00000005,0.00000063,-0.000000
 11,0.00000049,-0.00000004,0.,0.00000015,-0.00000050,0.00000009,-0.0000
 0053,0.00000168,0.00000094,-0.00000009,0.00000165,0.00000043,-0.000000
 59,0.00000141,-0.00000095,0.00000002,0.00000043,0.00000061,-0.00000171
 ,-0.00000057,-0.00000017,-0.00000055,-0.00000076,-0.00000016,-0.000001
 56,0.00000346,0.00000008,0.00000063,-0.00000057,0.00000264,-0.00000023
 ,0.00000242,0.00000011,-0.00000019,-0.00000136,0.00000022,-0.00000251,
 0.00000678,-0.00000844,0.00000609,0.00000281,-0.00000801,0.00000006,0.
 00000231,0.00001155,-0.00001872,-0.00002754,0.00018448,0.00002320,-0.0
 0001557,-0.00042862,-0.00059394,0.00030511,0.00015763,0.00004992,0.000
 12475,-0.00003075,-0.00005635,0.00001688,-0.00000384,-0.00000193,-0.00
 023995,-0.00047370,0.00000705,0.00075449,-0.00035580,0.00017165,0.0016
 6989,0.07196987,-0.08733001,0.27828132,0.00000282,-0.00000721,0.000002
 62,-0.00001136,0.00000936,-0.00000211,0.00001608,-0.00001657,0.0000070
 3,-0.00000527,0.00000027,-0.00000446,-0.00002981,0.00002699,-0.0000077
 3,0.00002641,-0.00006779,0.00001788,-0.00012263,0.00005825,-0.00000967
 ,0.00033996,-0.00023276,0.00006120,-0.00137497,-0.00017747,0.00009296,
 0.00071396,-0.00191396,0.00014322,-0.00675652,0.00290699,-0.00116095,-
 0.00025917,0.00065468,0.00032405,-0.01248742,-0.03249484,0.00438577,-0
 .07838523,-0.08571014,0.01013717,-0.00000442,-0.00000475,-0.00000037,-
 0.00000039,0.00000132,-0.00000118,-0.00000147,0.00000196,0.00000057,0.
 00000042,0.00000128,0.00000021,-0.00000014,-0.00000124,0.00000107,-0.0
 0000138,0.00000117,-0.00000033,0.00000179,-0.00000001,0.00000122,-0.00
 000821,-0.00000080,0.00000272,0.00000594,-0.00000568,-0.00000141,0.000
 00058,-0.00000168,-0.00000036,0.00000024,-0.00000312,0.00000292,-0.000
 00020,0.00000396,0.00000161,-0.00000277,0.00000134,-0.00000332,0.00000
 425,-0.00000386,-0.00000299,0.00000462,-0.00000237,0.00000467,-0.00004
 899,0.00002798,0.00002406,-0.00004735,0.00001227,-0.00002837,-0.000032
 52,0.00002776,0.00010693,-0.00007768,0.00002219,-0.00011025,0.00016191
 ,0.00026073,0.00011412,0.00003217,-0.00004827,-0.00007762,0.00015660,-
 0.00013556,-0.00004732,0.00030704,-0.00021263,-0.00007118,0.00145704,0
 .00023188,0.00053469,0.00129269,0.00025847,-0.00044985,0.00266627,0.00
 875405,-0.00019324,0.08799085,0.00000218,-0.00000453,0.00000175,-0.000
 00544,0.00000579,-0.00000157,0.00001114,-0.00000735,0.00000369,-0.0000
 0371,0.00000024,-0.00000271,-0.00001043,0.00001291,-0.00000400,0.00001
 646,-0.00001887,0.00000537,-0.00001969,0.00001034,-0.00000419,0.000215
 10,-0.00001122,0.00000366,-0.00027283,-0.00004838,0.00004321,0.0002834
 6,-0.00003003,-0.00010394,0.00032654,0.00094475,-0.00016246,0.00027467
 ,-0.00005684,0.00015067,0.00187094,0.00197164,-0.00036775,-0.08722243,
 -0.27343714,0.02737301,-0.00000287,-0.00000372,-0.00000026,-0.00000036
 ,0.00000104,-0.00000115,-0.00000150,0.00000176,0.00000078,-0.00000008,
 0.00000138,0.00000078,-0.00000012,-0.00000083,0.00000026,-0.00000137,0
 .00000076,-0.00000046,0.00000145,0.00000018,0.00000055,-0.00000639,-0.
 00000047,0.00000181,0.00000414,-0.00000405,-0.00000081,0.00000029,0.00
 000026,0.00000101,0.00000019,-0.00000178,0.00000040,-0.00000241,0.0000
 0280,0.00000175,-0.00000314,0.00000046,-0.00000248,0.00000274,0.000002
 19,0.00000295,0.00000205,-0.00000174,-0.00000083,-0.00002740,0.0000139
 9,0.00001112,-0.00001967,0.00000516,-0.00001046,-0.00004797,0.00001390
 ,0.00002263,-0.00006674,0.00000243,-0.00001231,0.00013834,0.00012714,-
 0.00013088,-0.00006245,0.00000886,-0.00004860,-0.00016444,0.00005204,0
 .00000227,-0.00026422,0.00028407,0.00006836,-0.00045799,0.00077370,0.0
 0023522,-0.00047427,0.00027439,-0.00038516,-0.00303839,-0.00962836,0.0
 0041871,0.09525076,0.29588641,-0.00000008,0.,0.00000016,-0.00000008,0.
 00000011,-0.00000025,-0.00000006,-0.00000027,0.00000068,0.00000003,0.,
 -0.00000010,-0.00000070,0.00000039,-0.00000089,0.00000022,-0.00000171,
 0.00000267,-0.00000583,0.00000064,-0.00000687,0.00000589,0.00000192,0.
 00001415,-0.00011633,0.00000748,0.00002940,0.00011878,-0.00009640,0.00
 041673,-0.00018351,0.00014309,0.00010417,0.00014183,-0.00023958,0.0001
 8596,-0.00095236,-0.00286711,-0.00087089,0.01029820,0.02733886,-0.0502
 3497,-0.00000005,0.,0.,0.,0.00000002,0.,0.00000013,-0.00000011,-0.0000
 0012,0.00000003,-0.00000009,0.,-0.00000009,0.00000002,0.00000004,0.000
 00012,-0.00000007,-0.00000012,-0.00000007,0.00000013,-0.00000009,0.000
 00001,-0.00000004,0.00000005,0.,-0.00000007,0.00000015,0.00000010,-0.0
 0000010,-0.00000010,-0.00000016,0.00000002,0.00000034,0.,-0.00000010,-
 0.00000023,0.00000040,-0.00000016,-0.00000022,0.00000077,0.00000107,0.
 00000047,-0.00000020,0.00000053,0.00000126,-0.00000662,0.00000118,0.00
 000031,-0.00000372,-0.00000093,-0.00000426,-0.00003072,0.00000954,-0.0
 0000937,0.00009457,-0.00002397,-0.00002269,-0.00015062,-0.00038413,0.0
 0038755,0.00002680,0.00004281,0.00001918,-0.00015475,0.00006671,0.0000
 2235,-0.00022627,0.00024567,-0.00009866,0.00019146,0.00037550,0.000076
 82,0.00025013,-0.00041090,0.00013523,0.01088396,0.02777575,-0.00273900
 ,-0.01129996,-0.02998506,0.04987484,0.00000022,-0.00000087,0.00000044,
 -0.00000192,0.00000207,0.00000018,0.00000081,-0.00000247,0.00000186,0.
 00000045,0.00000121,-0.00000032,-0.00000479,0.00000574,0.00000065,0.00
 000148,-0.00001128,0.00000465,-0.00001748,0.00001664,0.00000401,0.0000
 7425,-0.00001506,0.00000442,-0.00010381,-0.00038546,-0.00012097,-0.000
 03980,0.00031093,0.00009946,0.00116304,0.00103645,0.00049861,-0.000411
 83,0.00012256,-0.00004768,-0.01408907,0.02049961,0.02437430,-0.0909249
 5,0.06231924,0.07513031,-0.00000078,-0.00000099,0.00000012,-0.00000019
 ,0.00000044,0.,0.00000062,0.,-0.00000055,0.00000054,-0.00000110,-0.000
 00078,-0.00000018,-0.00000006,0.00000016,-0.00000015,0.00000020,-0.000
 00051,0.00000018,0.00000030,-0.00000033,-0.00000038,-0.00000021,-0.000
 00010,0.00000033,-0.00000180,0.00000025,0.00000027,-0.00000342,-0.0000
 0169,-0.00000028,-0.00000020,0.00000037,0.00000432,-0.00000157,-0.0000
 0319,-0.00000041,0.00000113,0.00000016,-0.00000244,-0.00001177,-0.0000
 0509,-0.00000015,0.00000013,0.00000115,0.00001484,0.00000052,-0.000013
 83,-0.00001088,0.00000485,-0.00000441,0.00026565,-0.00021631,-0.000220
 40,-0.00000948,0.00002014,-0.00002742,-0.00006122,-0.00016926,-0.00002
 278,-0.00012406,-0.00003915,-0.00015807,0.00037685,-0.00010473,-0.0001
 3968,0.00021938,-0.00115274,-0.00002034,-0.00690397,-0.00037494,-0.000
 88983,0.00167552,-0.00004750,-0.00037233,0.00329243,-0.00605173,-0.006
 03468,0.00447627,-0.00622411,-0.00888122,0.10114078,-0.00000119,0.0000
 0221,-0.00000118,0.00000332,-0.00000369,0.00000071,-0.00000536,0.00000
 434,-0.00000289,0.00000146,-0.00000065,0.00000132,0.00000649,-0.000007
 99,0.00000180,-0.00000787,0.00001197,-0.00000476,0.00001637,-0.0000082
 1,0.00000352,-0.00009219,0.00001659,-0.00000944,0.00015661,0.00006419,
 -0.00000506,-0.00011147,-0.00002330,-0.00011686,0.00013764,0.00000810,
 0.00056143,-0.00047655,-0.00045406,-0.00022320,0.00060548,-0.00010462,
 0.00068043,0.06324811,-0.13530591,-0.10696771,0.00000177,0.00000245,0.
 ,0.00000033,-0.00000079,0.00000060,0.00000030,-0.00000073,0.00000005,-
 0.00000033,-0.00000008,0.00000003,0.00000017,0.00000040,-0.00000022,0.
 00000078,-0.00000044,0.00000073,-0.00000067,-0.00000033,-0.00000001,0.
 00000307,0.00000027,-0.00000082,-0.00000188,0.00000277,0.00000015,-0.0
 0000048,0.00000108,0.00000022,0.,0.00000084,-0.00000030,-0.00000014,-0
 .00000070,0.00000034,0.00000164,-0.00000056,0.00000125,-0.00000127,0.0
 0000193,-0.00000055,-0.00000080,0.00000049,0.00000016,0.00000881,-0.00
 000364,-0.00000037,0.00001274,-0.00000349,0.00000702,0.00002834,0.0000
 0797,0.00000666,0.00000948,0.00000076,0.00000342,-0.00005198,0.0000152
 4,-0.00000592,0.00008863,-0.00001461,0.00002564,-0.00003257,0.00009964
 ,0.00012824,-0.00110692,-0.00102968,-0.00015256,-0.00012409,0.00105346
 ,0.00045302,0.00030879,0.00001243,0.00008141,-0.00562621,0.00688265,0.
 00866737,0.01252706,-0.01714328,-0.02200063,-0.06952542,0.14591700,-0.
 00000014,0.00000014,-0.00000014,0.00000092,-0.00000135,-0.00000032,0.0
 0000015,0.00000094,-0.00000085,-0.00000062,-0.00000065,-0.00000030,0.0
 0000212,-0.00000290,-0.00000141,0.00000040,0.00000540,-0.00000108,0.00
 001046,-0.00000898,-0.00000573,0.00000447,0.00002368,-0.00000964,0.000
 05924,0.00008062,0.00002403,-0.00000332,0.00007489,0.00006126,0.000346
 06,-0.00062514,-0.00028787,0.00044429,-0.00081344,0.00020937,-0.001425
 71,0.00298565,0.00264286,0.07625636,-0.10665858,-0.17739552,0.00000056
 ,0.00000092,-0.00000015,0.00000011,-0.00000032,-0.00000007,-0.00000060
 ,0.00000006,0.00000046,-0.00000043,0.00000088,0.00000082,0.00000017,-0
 .00000008,-0.00000025,0.00000002,0.00000003,0.00000047,-0.00000007,-0.
 00000049,0.00000042,-0.00000006,0.00000005,0.00000029,0.00000008,0.000
 00133,-0.00000035,-0.00000019,0.00000222,0.00000167,0.00000028,-0.0000
 0032,-0.00000015,-0.00000323,0.00000157,0.00000159,0.00000005,-0.00000
 042,-0.00000008,0.00000172,0.00000636,0.00000467,0.00000054,-0.0000015
 4,-0.00000058,-0.00001039,0.00000684,0.00000580,0.00000194,-0.00000181
 ,0.00000127,-0.00005325,0.00005224,0.00002031,0.00000898,0.00000776,-0
 .00000329,0.00003589,-0.00003652,0.00005111,-0.00010745,0.00004631,-0.
 00013615,-0.00034166,0.00017705,-0.00002156,-0.00069930,0.00024156,0.0
 0015536,-0.00120602,0.00017207,0.00145699,0.00053592,0.00038364,0.0008
 5497,0.01179060,-0.01786181,-0.01992474,-0.00249400,0.00287511,0.00271
 630,-0.08315490,0.11886699,0.18958023\\-0.00000692,0.00000114,-0.00000
 122,0.00000543,0.00000496,0.00000602,0.00000299,-0.00000640,-0.0000119
 3,-0.00000368,0.00000455,0.00001511,-0.00000787,-0.00000755,0.00000806
 ,0.00000893,0.00001316,-0.00000410,-0.00000828,-0.00000163,-0.00000201
 ,0.00000330,0.00000734,-0.00000285,0.00000143,0.00000329,0.00000204,-0
 .00000330,-0.00000422,-0.00000463,0.00000141,0.00000782,0.00000918,-0.
 00000095,-0.00000084,-0.00001361,-0.00000753,-0.00000309,-0.00000323,0
 .00000650,-0.00000195,0.00000193,-0.00000148,-0.00000047,0.00000063,0.
 00000222,0.00000018,0.00000061,-0.00000005,-0.00000089,0.00000153,0.00
 000006,-0.00000138,-0.00000097,-0.00000023,0.00000067,-0.00000200,0.00
 000229,-0.00000287,0.00000183,0.00000189,-0.00000295,-0.00000522,-0.00
 000109,0.00000171,-0.00000302,-0.00000145,0.00000059,-0.00000184,0.000
 00150,0.00000023,-0.00000111,-0.00000079,0.00000109,-0.00000209,0.0000
 0232,-0.00000202,0.00000255,-0.00000200,-0.00000222,0.00000069,0.00000
 344,-0.00000166,0.00000128,0.00000214,-0.00000058,0.00000114,-0.000001
 06,-0.00000138,0.00000144,0.00000018,-0.00000242,-0.00000081,-0.000000
 28,0.00000147,0.00000154,0.00000095,-0.00000033,-0.00000022,-0.0000011
 2,0.00000030,-0.00000190,0.00000078,0.00000007,0.00000295,0.00000169,-
 0.00000150,0.00000244,0.00000041,-0.00000402,0.00000144,0.00000046,0.0
 0000058,0.00000083,-0.00000144,-0.00000094,0.00000097,-0.00000119,0.00
 000093,-0.00000015,0.00000070,-0.00000014,-0.00000091,-0.00000028,0.00
 000136,-0.00000039\\\@


            THE IRISH PIG
 'TWAS AN EVENING IN NOVEMBER,
 AS I VERY WELL REMEMBER
 I WAS STROLLING DOWN THE STREET IN DRUNKEN PRIDE,
 BUT MY KNEES WERE ALL A'FLUTTER
 SO I LANDED IN THE GUTTER,
 AND A PIG CAME UP AND LAY DOWN BY MY SIDE.

 YES, I LAY THERE IN THE GUTTER
 THINKING THOUGHTS I COULD NOT UTTER
 WHEN A COLLEEN PASSING BY DID SOFTLY SAY,
 'YE CAN TELL A MAN THAT BOOZES
 BY THE COMPANY THAT HE CHOOSES.' -
 AT THAT, THE PIG GOT UP AND WALKED AWAY!
     -- THE ECONOMIST, AUGUST 23, 1986
 Job cpu time:       0 days  9 hours 41 minutes 39.4 seconds.
 Elapsed time:       0 days  2 hours 25 minutes 29.4 seconds.
 File lengths (MBytes):  RWF=    820 Int=      0 D2E=      0 Chk=     24 Scr=      1
 Normal termination of Gaussian 16 at Mon May 22 20:53:47 2023.
### All Done ###
