### Starting Gaussian ###
 Entering Gaussian System, Link 0=g16
 Initial command:
 /cluster/software/gaussian/gaussian-16-A.03/avx2/g16/l1.exe "/local/scratch/cz9n3/Gau-30577.inp" -scrdir="/local/scratch/cz9n3/"
 Entering Link 1 = /cluster/software/gaussian/gaussian-16-A.03/avx2/g16/l1.exe PID=     30583.
  
 Copyright (c) 1988,1990,1992,1993,1995,1998,2003,2009,2016,
            Gaussian, Inc.  All Rights Reserved.
  
 This is part of the Gaussian(R) 16 program.  It is based on
 the Gaussian(R) 09 system (copyright 2009, Gaussian, Inc.),
 the Gaussian(R) 03 system (copyright 2003, Gaussian, Inc.),
 the Gaussian(R) 98 system (copyright 1998, Gaussian, Inc.),
 the Gaussian(R) 94 system (copyright 1995, Gaussian, Inc.),
 the Gaussian 92(TM) system (copyright 1992, Gaussian, Inc.),
 the Gaussian 90(TM) system (copyright 1990, Gaussian, Inc.),
 the Gaussian 88(TM) system (copyright 1988, Gaussian, Inc.),
 the Gaussian 86(TM) system (copyright 1986, Carnegie Mellon
 University), and the Gaussian 82(TM) system (copyright 1983,
 Carnegie Mellon University). Gaussian is a federally registered
 trademark of Gaussian, Inc.
  
 This software contains proprietary and confidential information,
 including trade secrets, belonging to Gaussian, Inc.
  
 This software is provided under written license and may be
 used, copied, transmitted, or stored only in accord with that
 written license.
  
 The following legend is applicable only to US Government
 contracts under FAR:
  
                    RESTRICTED RIGHTS LEGEND
  
 Use, reproduction and disclosure by the US Government is
 subject to restrictions as set forth in subparagraphs (a)
 and (c) of the Commercial Computer Software - Restricted
 Rights clause in FAR 52.227-19.
  
 Gaussian, Inc.
 340 Quinnipiac St., Bldg. 40, Wallingford CT 06492
  
  
 ---------------------------------------------------------------
 Warning -- This program may not be used in any manner that
 competes with the business of Gaussian, Inc. or will provide
 assistance to any competitor of Gaussian, Inc.  The licensee
 of this program is prohibited from giving any competitor of
 Gaussian, Inc. access to this program.  By using this program,
 the user acknowledges that Gaussian, Inc. is engaged in the
 business of creating and licensing software in the field of
 computational chemistry and represents and warrants to the
 licensee that it is not a competitor of Gaussian, Inc. and that
 it will not use this program in any manner prohibited above.
 ---------------------------------------------------------------
  

 Cite this work as:
 Gaussian 16, Revision A.03,
 M. J. Frisch, G. W. Trucks, H. B. Schlegel, G. E. Scuseria, 
 M. A. Robb, J. R. Cheeseman, G. Scalmani, V. Barone, 
 G. A. Petersson, H. Nakatsuji, X. Li, M. Caricato, A. V. Marenich, 
 J. Bloino, B. G. Janesko, R. Gomperts, B. Mennucci, H. P. Hratchian, 
 J. V. Ortiz, A. F. Izmaylov, J. L. Sonnenberg, D. Williams-Young, 
 F. Ding, F. Lipparini, F. Egidi, J. Goings, B. Peng, A. Petrone, 
 T. Henderson, D. Ranasinghe, V. G. Zakrzewski, J. Gao, N. Rega, 
 G. Zheng, W. Liang, M. Hada, M. Ehara, K. Toyota, R. Fukuda, 
 J. Hasegawa, M. Ishida, T. Nakajima, Y. Honda, O. Kitao, H. Nakai, 
 T. Vreven, K. Throssell, J. A. Montgomery, Jr., J. E. Peralta, 
 F. Ogliaro, M. J. Bearpark, J. J. Heyd, E. N. Brothers, K. N. Kudin, 
 V. N. Staroverov, T. A. Keith, R. Kobayashi, J. Normand, 
 K. Raghavachari, A. P. Rendell, J. C. Burant, S. S. Iyengar, 
 J. Tomasi, M. Cossi, J. M. Millam, M. Klene, C. Adamo, R. Cammi, 
 J. W. Ochterski, R. L. Martin, K. Morokuma, O. Farkas, 
 J. B. Foresman, and D. J. Fox, Gaussian, Inc., Wallingford CT, 2016.
 
 ******************************************
 Gaussian 16:  ES64L-G16RevA.03 25-Dec-2016
                24-May-2023 
 ******************************************
 %chk=CCCqOrCCCC1CCCCOCC1.chk
 %NProcShared=20
 Will use up to   20 processors via shared memory.
 -----------------------------
 # opt freq b3lyp/6-31g(2df,p)
 -----------------------------
 1/18=20,19=15,26=3,38=1/1,3;
 2/9=110,12=2,17=6,18=5,40=1/2;
 3/5=1,6=6,7=104,11=2,25=1,30=1,71=1,74=-5/1,2,3;
 4//1;
 5/5=2,38=5/2;
 6/7=2,8=2,9=2,10=2,28=1/1;
 7//1,2,3,16;
 1/18=20,19=15,26=3/3(2);
 2/9=110/2;
 99//99;
 2/9=110/2;
 3/5=1,6=6,7=104,11=2,25=1,30=1,71=1,74=-5/1,2,3;
 4/5=5,16=3,69=1/1;
 5/5=2,38=5/2;
 7//1,2,3,16;
 1/18=20,19=15,26=3/3(-5);
 2/9=110/2;
 6/7=2,8=2,9=2,10=2,19=2,28=1/1;
 99/9=1/99;
 -------------------
 Title Card Required
 -------------------
 Symbolic Z-matrix:
 Charge =  0 Multiplicity = 1
 C                     0.86585   0.00589   0.01271 
 C                     2.38441  -0.00724   0.02906 
 C                     2.92299  -0.60357   1.3267 
 O                     2.45386  -1.94504   1.46984 
 C                     4.45039  -0.58361   1.32059 
 C                     5.00555  -1.14868   2.61524 
 C                     6.53892  -1.14526   2.6125 
 C                     7.02506  -1.75172   3.93563 
 C                     8.21128  -2.70271   3.72497 
 C                     8.44327  -3.68632   4.87688 
 C                     7.15145  -4.25548   5.47628 
 C                     6.73083  -3.5532    6.77598 
 O                     6.30785  -2.19514   6.63952 
 C                     7.34642  -1.23936   6.43066 
 C                     7.30909  -0.68543   5.00243 
 H                     0.5031    0.44357  -0.921 
 H                     0.47648   0.59752   0.84709 
 H                     0.46148  -1.00808   0.09221 
 H                     2.76096   1.01519  -0.09326 
 H                     2.73877  -0.59496  -0.82631 
 H                     2.54884  -0.03315   2.18385 
 H                     2.79591  -2.46392   0.72857 
 H                     4.81299   0.44172   1.18596 
 H                     4.82736  -1.18605   0.48506 
 H                     4.64826  -2.18049   2.74157 
 H                     4.62569  -0.5757    3.4701 
 H                     6.92366  -0.13007   2.47011 
 H                     6.87642  -1.74569   1.75921 
 H                     6.1725   -2.33108   4.28803 
 H                     9.12962  -2.13103   3.54068 
 H                     8.0391   -3.30229   2.82199 
 H                     9.06074  -3.22573   5.65297 
 H                     9.05523  -4.51264   4.49617 
 H                     7.30826  -5.31765   5.69468 
 H                     6.33409  -4.24041   4.74443 
 H                     7.52393  -3.62386   7.52794 
 H                     5.8677   -4.09642   7.17751 
 H                     8.33123  -1.63365   6.69307 
 H                     7.1715   -0.40883   7.12387 
 H                     8.24658  -0.15868   4.78474 
 H                     6.51569   0.07166   4.95875 
 

 GradGradGradGradGradGradGradGradGradGradGradGradGradGradGradGradGradGrad
 Berny optimization.
 Initialization pass.
                           ----------------------------
                           !    Initial Parameters    !
                           ! (Angstroms and Degrees)  !
 --------------------------                            --------------------------
 ! Name  Definition              Value          Derivative Info.                !
 --------------------------------------------------------------------------------
 ! R1    R(1,2)                  1.5187         estimate D2E/DX2                !
 ! R2    R(1,16)                 1.0931         estimate D2E/DX2                !
 ! R3    R(1,17)                 1.0945         estimate D2E/DX2                !
 ! R4    R(1,18)                 1.0945         estimate D2E/DX2                !
 ! R5    R(2,3)                  1.5263         estimate D2E/DX2                !
 ! R6    R(2,19)                 1.0964         estimate D2E/DX2                !
 ! R7    R(2,20)                 1.0967         estimate D2E/DX2                !
 ! R8    R(3,4)                  1.4283         estimate D2E/DX2                !
 ! R9    R(3,5)                  1.5275         estimate D2E/DX2                !
 ! R10   R(3,21)                 1.0955         estimate D2E/DX2                !
 ! R11   R(4,22)                 0.9673         estimate D2E/DX2                !
 ! R12   R(5,6)                  1.5178         estimate D2E/DX2                !
 ! R13   R(5,23)                 1.0959         estimate D2E/DX2                !
 ! R14   R(5,24)                 1.0969         estimate D2E/DX2                !
 ! R15   R(6,7)                  1.5334         estimate D2E/DX2                !
 ! R16   R(6,25)                 1.0992         estimate D2E/DX2                !
 ! R17   R(6,26)                 1.097          estimate D2E/DX2                !
 ! R18   R(7,8)                  1.5345         estimate D2E/DX2                !
 ! R19   R(7,27)                 1.0949         estimate D2E/DX2                !
 ! R20   R(7,28)                 1.0966         estimate D2E/DX2                !
 ! R21   R(8,9)                  1.5349         estimate D2E/DX2                !
 ! R22   R(8,15)                 1.5348         estimate D2E/DX2                !
 ! R23   R(8,29)                 1.0894         estimate D2E/DX2                !
 ! R24   R(9,10)                 1.5324         estimate D2E/DX2                !
 ! R25   R(9,30)                 1.0973         estimate D2E/DX2                !
 ! R26   R(9,31)                 1.0975         estimate D2E/DX2                !
 ! R27   R(10,11)                1.5336         estimate D2E/DX2                !
 ! R28   R(10,32)                1.0935         estimate D2E/DX2                !
 ! R29   R(10,33)                1.0965         estimate D2E/DX2                !
 ! R30   R(11,12)                1.536          estimate D2E/DX2                !
 ! R31   R(11,34)                1.0957         estimate D2E/DX2                !
 ! R32   R(11,35)                1.0972         estimate D2E/DX2                !
 ! R33   R(12,13)                1.4289         estimate D2E/DX2                !
 ! R34   R(12,36)                1.0952         estimate D2E/DX2                !
 ! R35   R(12,37)                1.096          estimate D2E/DX2                !
 ! R36   R(13,14)                1.4268         estimate D2E/DX2                !
 ! R37   R(14,15)                1.5323         estimate D2E/DX2                !
 ! R38   R(14,38)                1.0928         estimate D2E/DX2                !
 ! R39   R(14,39)                1.0959         estimate D2E/DX2                !
 ! R40   R(15,40)                1.0972         estimate D2E/DX2                !
 ! R41   R(15,41)                1.0975         estimate D2E/DX2                !
 ! A1    A(2,1,16)             110.1492         estimate D2E/DX2                !
 ! A2    A(2,1,17)             110.6219         estimate D2E/DX2                !
 ! A3    A(2,1,18)             111.1385         estimate D2E/DX2                !
 ! A4    A(16,1,17)            108.4626         estimate D2E/DX2                !
 ! A5    A(16,1,18)            108.0811         estimate D2E/DX2                !
 ! A6    A(17,1,18)            108.2991         estimate D2E/DX2                !
 ! A7    A(1,2,3)              111.4302         estimate D2E/DX2                !
 ! A8    A(1,2,19)             109.5204         estimate D2E/DX2                !
 ! A9    A(1,2,20)             108.6227         estimate D2E/DX2                !
 ! A10   A(3,2,19)             109.7554         estimate D2E/DX2                !
 ! A11   A(3,2,20)             109.8602         estimate D2E/DX2                !
 ! A12   A(19,2,20)            107.5638         estimate D2E/DX2                !
 ! A13   A(2,3,4)              109.6487         estimate D2E/DX2                !
 ! A14   A(2,3,5)              110.141          estimate D2E/DX2                !
 ! A15   A(2,3,21)             109.9541         estimate D2E/DX2                !
 ! A16   A(4,3,5)              109.9433         estimate D2E/DX2                !
 ! A17   A(4,3,21)             107.3645         estimate D2E/DX2                !
 ! A18   A(5,3,21)             109.745          estimate D2E/DX2                !
 ! A19   A(3,4,22)             108.1106         estimate D2E/DX2                !
 ! A20   A(3,5,6)              110.9445         estimate D2E/DX2                !
 ! A21   A(3,5,23)             110.0944         estimate D2E/DX2                !
 ! A22   A(3,5,24)             109.8472         estimate D2E/DX2                !
 ! A23   A(6,5,23)             109.3967         estimate D2E/DX2                !
 ! A24   A(6,5,24)             108.6367         estimate D2E/DX2                !
 ! A25   A(23,5,24)            107.8535         estimate D2E/DX2                !
 ! A26   A(5,6,7)              111.3102         estimate D2E/DX2                !
 ! A27   A(5,6,25)             109.1849         estimate D2E/DX2                !
 ! A28   A(5,6,26)             110.0964         estimate D2E/DX2                !
 ! A29   A(7,6,25)             109.1075         estimate D2E/DX2                !
 ! A30   A(7,6,26)             110.2735         estimate D2E/DX2                !
 ! A31   A(25,6,26)            106.749          estimate D2E/DX2                !
 ! A32   A(6,7,8)              108.3231         estimate D2E/DX2                !
 ! A33   A(6,7,27)             110.7123         estimate D2E/DX2                !
 ! A34   A(6,7,28)             107.935          estimate D2E/DX2                !
 ! A35   A(8,7,27)             111.545          estimate D2E/DX2                !
 ! A36   A(8,7,28)             110.9181         estimate D2E/DX2                !
 ! A37   A(27,7,28)            107.3569         estimate D2E/DX2                !
 ! A38   A(7,8,9)              111.7994         estimate D2E/DX2                !
 ! A39   A(7,8,15)             112.5425         estimate D2E/DX2                !
 ! A40   A(7,8,29)             103.956          estimate D2E/DX2                !
 ! A41   A(9,8,15)             112.5084         estimate D2E/DX2                !
 ! A42   A(9,8,29)             108.6463         estimate D2E/DX2                !
 ! A43   A(15,8,29)            106.8258         estimate D2E/DX2                !
 ! A44   A(8,9,10)             114.301          estimate D2E/DX2                !
 ! A45   A(8,9,30)             110.3065         estimate D2E/DX2                !
 ! A46   A(8,9,31)             109.2786         estimate D2E/DX2                !
 ! A47   A(10,9,30)            109.5088         estimate D2E/DX2                !
 ! A48   A(10,9,31)            106.9513         estimate D2E/DX2                !
 ! A49   A(30,9,31)            106.1248         estimate D2E/DX2                !
 ! A50   A(9,10,11)            113.8592         estimate D2E/DX2                !
 ! A51   A(9,10,32)            110.4039         estimate D2E/DX2                !
 ! A52   A(9,10,33)            107.892          estimate D2E/DX2                !
 ! A53   A(11,10,32)           110.7672         estimate D2E/DX2                !
 ! A54   A(11,10,33)           109.0347         estimate D2E/DX2                !
 ! A55   A(32,10,33)           104.4009         estimate D2E/DX2                !
 ! A56   A(10,11,12)           113.0597         estimate D2E/DX2                !
 ! A57   A(10,11,34)           108.4892         estimate D2E/DX2                !
 ! A58   A(10,11,35)           111.2041         estimate D2E/DX2                !
 ! A59   A(12,11,34)           108.2859         estimate D2E/DX2                !
 ! A60   A(12,11,35)           110.739          estimate D2E/DX2                !
 ! A61   A(34,11,35)           104.648          estimate D2E/DX2                !
 ! A62   A(11,12,13)           115.7716         estimate D2E/DX2                !
 ! A63   A(11,12,36)           110.6811         estimate D2E/DX2                !
 ! A64   A(11,12,37)           107.3993         estimate D2E/DX2                !
 ! A65   A(13,12,36)           109.9529         estimate D2E/DX2                !
 ! A66   A(13,12,37)           105.8378         estimate D2E/DX2                !
 ! A67   A(36,12,37)           106.6646         estimate D2E/DX2                !
 ! A68   A(12,13,14)           115.7956         estimate D2E/DX2                !
 ! A69   A(13,14,15)           111.153          estimate D2E/DX2                !
 ! A70   A(13,14,38)           112.2798         estimate D2E/DX2                !
 ! A71   A(13,14,39)           107.3915         estimate D2E/DX2                !
 ! A72   A(15,14,38)           112.0985         estimate D2E/DX2                !
 ! A73   A(15,14,39)           108.1638         estimate D2E/DX2                !
 ! A74   A(38,14,39)           105.3907         estimate D2E/DX2                !
 ! A75   A(8,15,14)            113.6535         estimate D2E/DX2                !
 ! A76   A(8,15,40)            110.7175         estimate D2E/DX2                !
 ! A77   A(8,15,41)            108.5295         estimate D2E/DX2                !
 ! A78   A(14,15,40)           109.7351         estimate D2E/DX2                !
 ! A79   A(14,15,41)           107.702          estimate D2E/DX2                !
 ! A80   A(40,15,41)           106.1777         estimate D2E/DX2                !
 ! D1    D(16,1,2,3)           179.5591         estimate D2E/DX2                !
 ! D2    D(16,1,2,19)           57.931          estimate D2E/DX2                !
 ! D3    D(16,1,2,20)          -59.2837         estimate D2E/DX2                !
 ! D4    D(17,1,2,3)            59.6582         estimate D2E/DX2                !
 ! D5    D(17,1,2,19)          -61.9699         estimate D2E/DX2                !
 ! D6    D(17,1,2,20)         -179.1846         estimate D2E/DX2                !
 ! D7    D(18,1,2,3)           -60.6845         estimate D2E/DX2                !
 ! D8    D(18,1,2,19)          177.6874         estimate D2E/DX2                !
 ! D9    D(18,1,2,20)           60.4727         estimate D2E/DX2                !
 ! D10   D(1,2,3,4)             59.7172         estimate D2E/DX2                !
 ! D11   D(1,2,3,5)           -179.1705         estimate D2E/DX2                !
 ! D12   D(1,2,3,21)           -58.1077         estimate D2E/DX2                !
 ! D13   D(19,2,3,4)          -178.7912         estimate D2E/DX2                !
 ! D14   D(19,2,3,5)           -57.6789         estimate D2E/DX2                !
 ! D15   D(19,2,3,21)           63.3839         estimate D2E/DX2                !
 ! D16   D(20,2,3,4)           -60.7152         estimate D2E/DX2                !
 ! D17   D(20,2,3,5)            60.3971         estimate D2E/DX2                !
 ! D18   D(20,2,3,21)         -178.5401         estimate D2E/DX2                !
 ! D19   D(2,3,4,22)            61.8947         estimate D2E/DX2                !
 ! D20   D(5,3,4,22)           -59.3368         estimate D2E/DX2                !
 ! D21   D(21,3,4,22)         -178.6781         estimate D2E/DX2                !
 ! D22   D(2,3,5,6)            178.9116         estimate D2E/DX2                !
 ! D23   D(2,3,5,23)            57.668          estimate D2E/DX2                !
 ! D24   D(2,3,5,24)           -60.9601         estimate D2E/DX2                !
 ! D25   D(4,3,5,6)            -60.1524         estimate D2E/DX2                !
 ! D26   D(4,3,5,23)           178.604          estimate D2E/DX2                !
 ! D27   D(4,3,5,24)            59.9759         estimate D2E/DX2                !
 ! D28   D(21,3,5,6)            57.7237         estimate D2E/DX2                !
 ! D29   D(21,3,5,23)          -63.5199         estimate D2E/DX2                !
 ! D30   D(21,3,5,24)          177.8521         estimate D2E/DX2                !
 ! D31   D(3,5,6,7)            179.4452         estimate D2E/DX2                !
 ! D32   D(3,5,6,25)            58.9307         estimate D2E/DX2                !
 ! D33   D(3,5,6,26)           -57.9549         estimate D2E/DX2                !
 ! D34   D(23,5,6,7)           -58.9017         estimate D2E/DX2                !
 ! D35   D(23,5,6,25)         -179.4162         estimate D2E/DX2                !
 ! D36   D(23,5,6,26)           63.6982         estimate D2E/DX2                !
 ! D37   D(24,5,6,7)            58.5992         estimate D2E/DX2                !
 ! D38   D(24,5,6,25)          -61.9153         estimate D2E/DX2                !
 ! D39   D(24,5,6,26)         -178.8009         estimate D2E/DX2                !
 ! D40   D(5,6,7,8)           -178.9605         estimate D2E/DX2                !
 ! D41   D(5,6,7,27)            58.4379         estimate D2E/DX2                !
 ! D42   D(5,6,7,28)           -58.795          estimate D2E/DX2                !
 ! D43   D(25,6,7,8)           -58.4005         estimate D2E/DX2                !
 ! D44   D(25,6,7,27)          178.9979         estimate D2E/DX2                !
 ! D45   D(25,6,7,28)           61.765          estimate D2E/DX2                !
 ! D46   D(26,6,7,8)            58.5416         estimate D2E/DX2                !
 ! D47   D(26,6,7,27)          -64.06           estimate D2E/DX2                !
 ! D48   D(26,6,7,28)          178.7071         estimate D2E/DX2                !
 ! D49   D(6,7,8,9)            137.9937         estimate D2E/DX2                !
 ! D50   D(6,7,8,15)           -94.2411         estimate D2E/DX2                !
 ! D51   D(6,7,8,29)            20.9789         estimate D2E/DX2                !
 ! D52   D(27,7,8,9)           -99.9128         estimate D2E/DX2                !
 ! D53   D(27,7,8,15)           27.8524         estimate D2E/DX2                !
 ! D54   D(27,7,8,29)          143.0724         estimate D2E/DX2                !
 ! D55   D(28,7,8,9)            19.7089         estimate D2E/DX2                !
 ! D56   D(28,7,8,15)          147.4741         estimate D2E/DX2                !
 ! D57   D(28,7,8,29)          -97.3058         estimate D2E/DX2                !
 ! D58   D(7,8,9,10)          -160.3543         estimate D2E/DX2                !
 ! D59   D(7,8,9,30)            75.7428         estimate D2E/DX2                !
 ! D60   D(7,8,9,31)           -40.5628         estimate D2E/DX2                !
 ! D61   D(15,8,9,10)           71.8622         estimate D2E/DX2                !
 ! D62   D(15,8,9,30)          -52.0407         estimate D2E/DX2                !
 ! D63   D(15,8,9,31)         -168.3463         estimate D2E/DX2                !
 ! D64   D(29,8,9,10)          -46.2058         estimate D2E/DX2                !
 ! D65   D(29,8,9,30)         -170.1087         estimate D2E/DX2                !
 ! D66   D(29,8,9,31)           73.5857         estimate D2E/DX2                !
 ! D67   D(7,8,15,14)          161.1071         estimate D2E/DX2                !
 ! D68   D(7,8,15,40)          -74.8518         estimate D2E/DX2                !
 ! D69   D(7,8,15,41)           41.3115         estimate D2E/DX2                !
 ! D70   D(9,8,15,14)          -71.5028         estimate D2E/DX2                !
 ! D71   D(9,8,15,40)           52.5383         estimate D2E/DX2                !
 ! D72   D(9,8,15,41)          168.7016         estimate D2E/DX2                !
 ! D73   D(29,8,15,14)          47.6331         estimate D2E/DX2                !
 ! D74   D(29,8,15,40)         171.6742         estimate D2E/DX2                !
 ! D75   D(29,8,15,41)         -72.1625         estimate D2E/DX2                !
 ! D76   D(8,9,10,11)           39.7169         estimate D2E/DX2                !
 ! D77   D(8,9,10,32)          -85.6054         estimate D2E/DX2                !
 ! D78   D(8,9,10,33)          160.8835         estimate D2E/DX2                !
 ! D79   D(30,9,10,11)         164.0462         estimate D2E/DX2                !
 ! D80   D(30,9,10,32)          38.7239         estimate D2E/DX2                !
 ! D81   D(30,9,10,33)         -74.7872         estimate D2E/DX2                !
 ! D82   D(31,9,10,11)         -81.3704         estimate D2E/DX2                !
 ! D83   D(31,9,10,32)         153.3073         estimate D2E/DX2                !
 ! D84   D(31,9,10,33)          39.7962         estimate D2E/DX2                !
 ! D85   D(9,10,11,12)         -99.7633         estimate D2E/DX2                !
 ! D86   D(9,10,11,34)         140.1099         estimate D2E/DX2                !
 ! D87   D(9,10,11,35)          25.5444         estimate D2E/DX2                !
 ! D88   D(32,10,11,12)         25.3658         estimate D2E/DX2                !
 ! D89   D(32,10,11,34)        -94.761          estimate D2E/DX2                !
 ! D90   D(32,10,11,35)        150.6734         estimate D2E/DX2                !
 ! D91   D(33,10,11,12)        139.709          estimate D2E/DX2                !
 ! D92   D(33,10,11,34)         19.5822         estimate D2E/DX2                !
 ! D93   D(33,10,11,35)        -94.9834         estimate D2E/DX2                !
 ! D94   D(10,11,12,13)         67.9547         estimate D2E/DX2                !
 ! D95   D(10,11,12,36)        -58.0106         estimate D2E/DX2                !
 ! D96   D(10,11,12,37)       -174.0833         estimate D2E/DX2                !
 ! D97   D(34,11,12,13)       -171.8024         estimate D2E/DX2                !
 ! D98   D(34,11,12,36)         62.2324         estimate D2E/DX2                !
 ! D99   D(34,11,12,37)        -53.8404         estimate D2E/DX2                !
 ! D100  D(35,11,12,13)        -57.6035         estimate D2E/DX2                !
 ! D101  D(35,11,12,36)        176.4312         estimate D2E/DX2                !
 ! D102  D(35,11,12,37)         60.3585         estimate D2E/DX2                !
 ! D103  D(11,12,13,14)        -75.2728         estimate D2E/DX2                !
 ! D104  D(36,12,13,14)         51.0615         estimate D2E/DX2                !
 ! D105  D(37,12,13,14)        165.9029         estimate D2E/DX2                !
 ! D106  D(12,13,14,15)        109.6779         estimate D2E/DX2                !
 ! D107  D(12,13,14,38)        -16.796          estimate D2E/DX2                !
 ! D108  D(12,13,14,39)       -132.1927         estimate D2E/DX2                !
 ! D109  D(13,14,15,8)         -41.1642         estimate D2E/DX2                !
 ! D110  D(13,14,15,40)       -165.7357         estimate D2E/DX2                !
 ! D111  D(13,14,15,41)         79.0998         estimate D2E/DX2                !
 ! D112  D(38,14,15,8)          85.4096         estimate D2E/DX2                !
 ! D113  D(38,14,15,40)        -39.162          estimate D2E/DX2                !
 ! D114  D(38,14,15,41)       -154.3265         estimate D2E/DX2                !
 ! D115  D(39,14,15,8)        -158.8258         estimate D2E/DX2                !
 ! D116  D(39,14,15,40)         76.6027         estimate D2E/DX2                !
 ! D117  D(39,14,15,41)        -38.5618         estimate D2E/DX2                !
 --------------------------------------------------------------------------------
 Trust Radius=3.00D-01 FncErr=1.00D-07 GrdErr=1.00D-06 EigMax=2.50D+02 EigMin=1.00D-04
 Number of steps in this run=    246 maximum allowed number of steps=    246.
 GradGradGradGradGradGradGradGradGradGradGradGradGradGradGradGradGradGrad

                          Input orientation:                          
 ---------------------------------------------------------------------
 Center     Atomic      Atomic             Coordinates (Angstroms)
 Number     Number       Type             X           Y           Z
 ---------------------------------------------------------------------
      1          6           0        0.865850    0.005890    0.012710
      2          6           0        2.384410   -0.007240    0.029060
      3          6           0        2.922990   -0.603570    1.326700
      4          8           0        2.453860   -1.945040    1.469840
      5          6           0        4.450390   -0.583610    1.320590
      6          6           0        5.005550   -1.148680    2.615240
      7          6           0        6.538920   -1.145260    2.612500
      8          6           0        7.025060   -1.751720    3.935630
      9          6           0        8.211280   -2.702710    3.724970
     10          6           0        8.443270   -3.686320    4.876880
     11          6           0        7.151450   -4.255480    5.476280
     12          6           0        6.730830   -3.553200    6.775980
     13          8           0        6.307850   -2.195140    6.639520
     14          6           0        7.346420   -1.239360    6.430660
     15          6           0        7.309090   -0.685430    5.002430
     16          1           0        0.503100    0.443570   -0.921000
     17          1           0        0.476480    0.597520    0.847090
     18          1           0        0.461480   -1.008080    0.092210
     19          1           0        2.760960    1.015190   -0.093260
     20          1           0        2.738770   -0.594960   -0.826310
     21          1           0        2.548840   -0.033150    2.183850
     22          1           0        2.795910   -2.463920    0.728570
     23          1           0        4.812990    0.441720    1.185960
     24          1           0        4.827360   -1.186050    0.485060
     25          1           0        4.648260   -2.180490    2.741570
     26          1           0        4.625690   -0.575700    3.470100
     27          1           0        6.923660   -0.130070    2.470110
     28          1           0        6.876420   -1.745690    1.759210
     29          1           0        6.172500   -2.331080    4.288030
     30          1           0        9.129620   -2.131030    3.540680
     31          1           0        8.039100   -3.302290    2.821990
     32          1           0        9.060740   -3.225730    5.652970
     33          1           0        9.055230   -4.512640    4.496170
     34          1           0        7.308260   -5.317650    5.694680
     35          1           0        6.334090   -4.240410    4.744430
     36          1           0        7.523930   -3.623860    7.527940
     37          1           0        5.867700   -4.096420    7.177510
     38          1           0        8.331230   -1.633650    6.693070
     39          1           0        7.171500   -0.408830    7.123870
     40          1           0        8.246580   -0.158680    4.784740
     41          1           0        6.515690    0.071660    4.958750
 ---------------------------------------------------------------------
                    Distance matrix (angstroms):
                    1          2          3          4          5
     1  C    0.000000
     2  C    1.518705   0.000000
     3  C    2.515917   1.526286   0.000000
     4  O    2.907083   2.415727   1.428326   0.000000
     5  C    3.860957   2.503702   1.527543   2.421136   0.000000
     6  C    5.024272   3.855073   2.508891   2.908136   1.517770
     7  C    6.345690   5.022868   3.875779   4.316600   2.519214
     8  C    7.510949   6.311904   4.995172   5.197438   3.851213
     9  C    8.664452   7.407950   6.174472   6.229571   4.941247
    10  C    9.731899   8.587594   7.251249   7.107251   6.181998
    11  C    9.355140   8.393117   6.959550   6.592196   6.168315
    12  C    9.633636   8.774174   7.272868   7.002412   6.616657
    13  O    8.852938   7.992401   6.497417   6.453013   5.859881
    14  C    9.205353   8.192689   6.783905   7.003204   5.910145
    15  C    8.178666   7.031844   5.723248   6.135069   4.662454
    16  H    1.093145   2.155266   3.464755   3.902184   4.654130
    17  H    1.094452   2.162199   2.767319   3.280619   4.172677
    18  H    1.094518   2.168716   2.783276   2.597179   4.195294
    19  H    2.149734   1.096410   2.159380   3.361630   2.722004
    20  H    2.138412   1.096651   2.160894   2.678842   2.745715
    21  H    2.747331   2.161210   1.095479   2.043075   2.159657
    22  H    3.215206   2.587262   1.958267   0.967324   2.573588
    23  H    4.140818   2.727267   2.164380   3.367893   1.095858
    24  H    4.163820   2.750552   2.162005   2.679433   1.096882
    25  H    5.151074   4.147981   2.732232   2.547180   2.146710
    26  H    5.140835   4.145750   2.737540   3.254685   2.156661
    27  H    6.538682   5.155444   4.187714   4.926842   2.764807
    28  H    6.499634   5.117986   4.137767   4.436498   2.725516
    29  H    7.204188   6.155378   4.723672   4.681827   3.850327
    30  H    9.235957   7.895557   6.764399   6.992048   5.405414
    31  H    8.384010   7.115710   5.974409   5.904688   4.745973
    32  H   10.460025   9.303785   7.953886   7.923989   6.856066
    33  H   10.372293   9.206169   7.932889   7.702553   6.835652
    34  H   10.105914   9.194781   7.780257   7.265602   7.050618
    35  H    8.385815   7.466888   6.045088   5.572060   5.351934
    36  H   10.676319   9.784059   8.291332   8.076176   7.564454
    37  H    9.653073   8.941758   7.423159   6.990010   6.975107
    38  H   10.151217   9.078486   7.688176   7.869090   6.710219
    39  H    9.513244   8.568187   7.189919   7.522242   6.411946
    40  H    8.790593   7.550130   6.363692   6.909070   5.156739
    41  H    7.509216   6.432382   5.153175   5.721716   4.234507
                    6          7          8          9         10
     6  C    0.000000
     7  C    1.533376   0.000000
     8  C    2.487068   1.534535   0.000000
     9  C    3.731382   2.541659   1.534887   0.000000
    10  C    4.834517   3.900122   2.576810   1.532385   0.000000
    11  C    4.737367   4.271990   2.942514   2.569323   1.533630
    12  C    5.105885   4.813478   3.376313   3.496245   2.560616
    13  O    4.357280   4.168037   2.832319   3.517851   3.144922
    14  C    4.477201   3.903749   2.567286   3.195330   3.099181
    15  C    3.349563   2.552718   1.534832   2.552503   3.210525
    16  H    5.942416   7.172247   8.422714   9.534157  10.663850
    17  H    5.166047   6.550354   7.611958   8.888242   9.902537
    18  H    5.199425   6.580726   7.642347   8.725143   9.683750
    19  H    4.129950   5.124613   6.486162   7.622837   8.893545
    20  H    4.158024   5.154550   6.510488   7.423283   8.638530
    21  H    2.732385   4.164285   5.104778   6.447079   7.439245
    22  H    3.189340   4.392969   5.355201   6.193680   7.113045
    23  H    2.146926   2.744514   4.155132   5.280378   6.621370
    24  H    2.137946   2.730770   4.129928   4.924245   6.214036
    25  H    1.099203   2.159388   2.694216   3.732948   4.607513
    26  H    1.096989   2.172631   2.712327   4.176791   5.121416
    27  H    2.176643   1.094948   2.188100   3.138649   4.555071
    28  H    2.142280   1.096598   2.181498   2.561631   3.992609
    29  H    2.357556   2.085146   1.089359   2.147503   2.709210
    30  H    4.339286   2.923181   2.174634   1.097328   2.162275
    31  H    3.726018   2.635755   2.161652   1.097504   2.129179
    32  H    5.475994   4.464570   3.044003   2.170787   1.093494
    33  H    5.590531   4.606439   3.472531   2.140759   1.096467
    34  H    5.671484   5.244097   3.986266   3.396044   2.149019
    35  H    3.982118   3.763912   2.706506   2.632045   2.184765
    36  H    6.050072   5.592428   4.081479   3.972851   2.806636
    37  H    5.499707   5.477152   4.164959   4.399412   3.477735
    38  H    5.284320   4.483520   3.053440   3.157039   2.743092
    39  H    5.056329   4.614645   3.462611   4.230313   4.172326
    40  H    4.023817   2.933951   2.179650   2.756165   3.534320
    41  H    3.043319   2.643165   2.151964   3.477696   4.224297
                   11         12         13         14         15
    11  C    0.000000
    12  C    1.536014   0.000000
    13  O    2.511929   1.428937   0.000000
    14  C    3.169516   2.419102   1.426803   0.000000
    15  C    3.604808   3.421106   2.441674   1.532342   0.000000
    16  H   10.354073  10.677186   9.890368  10.183820   9.093028
    17  H    9.462359   9.565412   8.680787   9.041375   8.099220
    18  H    9.180932   9.510792   8.857563   9.361188   8.432326
    19  H    8.836070   9.155136   8.259357   8.286795   7.038725
    20  H    8.520199   9.081990   8.428376   8.620284   7.407444
    21  H    7.060608   7.139149   6.217504   6.519748   5.570444
    22  H    6.687389   7.296663   6.880792   7.397332   6.465114
    23  H    6.777826   7.133430   6.239307   6.062275   4.697491
    24  H    6.303576   6.985862   6.409953   6.457450   5.178440
    25  H    4.248551   4.743195   4.236563   4.666388   3.798251
    26  H    4.893363   4.921988   3.936683   4.075259   3.092040
    27  H    5.109594   5.504137   4.693369   4.134635   2.620997
    28  H    4.493473   5.334442   4.933832   4.722257   3.439452
    29  H    2.464467   2.827579   2.359302   2.675968   2.123763
    30  H    3.488981   4.271291   4.191576   3.510963   2.746052
    31  H    2.956645   4.172357   4.335498   4.214022   3.483560
    32  H    2.176463   2.607080   3.100613   2.736670   3.153507
    33  H    2.156647   3.394244   4.184836   4.168530   4.237079
    34  H    1.095670   2.148469   3.412274   4.144342   4.683660
    35  H    1.097228   2.181022   2.788402   3.588103   3.695277
    36  H    2.178760   1.095191   2.075905   2.630850   3.880558
    37  H    2.137170   1.096042   2.024359   3.302603   4.294582
    38  H    3.121931   2.500565   2.100525   1.092783   2.191382
    39  H    4.184695   3.194101   2.042398   1.095864   2.143816
    40  H    4.296662   4.217262   3.368390   2.164997   1.097152
    41  H    4.404108   4.060569   2.829588   2.139020   1.097532
                   16         17         18         19         20
    16  H    0.000000
    17  H    1.774979   0.000000
    18  H    1.770767   1.774266   0.000000
    19  H    2.471808   2.505505   3.068490   0.000000
    20  H    2.466927   3.056179   2.490060   1.769304   0.000000
    21  H    3.748654   2.545456   3.111674   2.515798   3.068023
    22  H    4.053586   3.842684   2.823825   3.575029   2.431857
    23  H    4.797336   4.352519   4.715278   2.485176   3.070232
    24  H    4.830310   4.716179   4.387130   3.074072   2.535998
    25  H    6.122292   5.358185   5.091442   4.670175   4.346243
    26  H    6.108717   5.047036   5.379381   4.325007   4.692545
    27  H    7.283700   6.688027   6.941547   5.021012   5.347505
    28  H    7.252282   6.876178   6.668914   5.290663   5.012907
    29  H    8.183812   7.270585   7.209090   6.483196   6.400085
    30  H   10.047487   9.464526   9.396255   7.978976   7.891329
    31  H    9.210469   8.735100   8.374689   7.416069   6.980919
    32  H   11.397984  10.554773  10.477943   9.523224   9.427053
    33  H   11.271587  10.631297  10.272748   9.551838   9.141919
    34  H   11.102661  10.254832   9.840653   9.709946   9.257826
    35  H    9.382815   8.538526   8.159575   7.986979   7.566292
    36  H   11.714121  10.588690  10.583505  10.113820  10.092843
    37  H   10.722701   9.548431   9.432207   9.415120   9.279631
    38  H   11.116138  10.042445  10.290561   9.170525   9.428444
    39  H   10.483991   9.232226   9.737952   8.577159   9.104345
    40  H    9.637409   8.743648   9.129573   7.434035   7.874655
    41  H    8.417899   7.324912   7.842354   6.364829   6.940924
                   21         22         23         24         25
    21  H    0.000000
    22  H    2.843858   0.000000
    23  H    2.519457   3.566590   0.000000
    24  H    3.067038   2.412268   1.772316   0.000000
    25  H    3.054453   2.750219   3.053366   2.472413   0.000000
    26  H    2.502420   3.798612   2.507493   3.053467   1.762560
    27  H    4.385247   5.051548   2.535924   3.074084   3.074957
    28  H    4.673442   4.269501   3.061229   2.476954   2.473617
    29  H    4.779013   4.908030   4.377160   4.193218   2.176585
    30  H    7.039088   6.937915   5.549508   5.360899   4.552319
    31  H    6.421639   5.707566   5.205957   4.500554   3.572492
    32  H    8.039416   8.004884   7.172709   6.984919   5.388762
    33  H    8.230782   7.587566   7.314354   6.710446   5.285729
    34  H    7.931201   7.291593   7.728213   7.096839   5.063421
    35  H    6.211741   5.639305   6.074438   5.453584   3.331177
    36  H    8.136585   8.362480   8.006176   7.925690   5.767333
    37  H    7.243040   7.327331   7.589848   7.371665   4.983511
    38  H    7.505378   8.179510   6.856634   7.142607   5.429333
    39  H    6.775981   8.016798   6.445524   7.083280   5.358178
    40  H    6.264553   7.174709   5.010114   5.588721   4.605450
    41  H    4.842205   6.177407   4.155728   4.944309   3.670880
                   26         27         28         29         30
    26  H    0.000000
    27  H    2.545434   0.000000
    28  H    3.059707   1.765740   0.000000
    29  H    2.478506   2.951867   2.689445   0.000000
    30  H    4.765440   3.164841   2.898108   3.056650   0.000000
    31  H    4.416527   3.380977   2.214572   2.564511   1.754309
    32  H    5.608676   4.927557   4.703524   3.317437   2.380101
    33  H    6.014411   5.277824   4.460289   3.621141   2.567209
    34  H    5.884813   6.120192   5.332289   3.491162   4.255774
    35  H    4.239416   4.734450   3.928013   1.969760   3.703172
    36  H    5.844411   6.176450   6.101232   3.740944   4.550277
    37  H    5.261459   6.245526   5.991780   3.399768   5.265872
    38  H    5.023726   4.698446   5.145095   3.306167   3.289738
    39  H    4.456347   4.668684   5.536591   3.568618   4.431643
    40  H    3.874665   2.666167   3.681001   3.044314   2.493513
    41  H    2.491436   2.529914   3.697289   2.518095   3.700729
                   31         32         33         34         35
    31  H    0.000000
    32  H    3.010657   0.000000
    33  H    2.302248   1.730420   0.000000
    34  H    3.584432   2.729296   2.266356   0.000000
    35  H    2.735490   3.047891   2.745969   1.735635   0.000000
    36  H    4.744973   2.456788   3.510903   2.505251   3.089301
    37  H    4.931143   3.643875   4.186069   2.401125   2.481558
    38  H    4.225513   2.036839   3.693119   3.951595   3.818503
    39  H    5.256521   3.696985   5.224414   5.114470   4.587373
    40  H    3.711835   3.289905   4.437810   5.321974   4.507745
    41  H    4.274349   4.222795   5.261088   5.496765   4.321210
                   36         37         38         39         40
    36  H    0.000000
    37  H    1.757615   0.000000
    38  H    2.304274   3.516944   0.000000
    39  H    3.259432   3.911661   1.740904   0.000000
    40  H    4.478263   5.185578   2.413385   2.586484   0.000000
    41  H    4.612391   4.766097   3.035150   2.312726   1.754798
                   41
    41  H    0.000000
 Stoichiometry    C13H26O2
 Framework group  C1[X(C13H26O2)]
 Deg. of freedom   117
 Full point group                 C1      NOp   1
 Largest Abelian subgroup         C1      NOp   1
 Largest concise Abelian subgroup C1      NOp   1
                         Standard orientation:                         
 ---------------------------------------------------------------------
 Center     Atomic      Atomic             Coordinates (Angstroms)
 Number     Number       Type             X           Y           Z
 ---------------------------------------------------------------------
      1          6           0        5.959733    0.767594    0.236666
      2          6           0        4.911692   -0.320787    0.083369
      3          6           0        3.498640    0.251688    0.154813
      4          8           0        3.315756    1.210839   -0.887634
      5          6           0        2.469600   -0.868933    0.018163
      6          6           0        1.056737   -0.322717    0.113511
      7          6           0        0.016375   -1.439152   -0.036362
      8          6           0       -1.381079   -0.810303    0.044080
      9          6           0       -2.335754   -1.407484   -0.998919
     10          6           0       -3.560340   -0.538201   -1.303781
     11          6           0       -3.253914    0.962936   -1.372430
     12          6           0       -3.622198    1.711752   -0.082864
     13          8           0       -2.831797    1.397517    1.065345
     14          6           0       -3.109362    0.143013    1.685782
     15          6           0       -1.963043   -0.849324    1.463765
     16          1           0        6.962230    0.334225    0.190238
     17          1           0        5.847160    1.278461    1.198003
     18          1           0        5.874506    1.512713   -0.560519
     19          1           0        5.046983   -1.072997    0.869494
     20          1           0        5.063275   -0.819514   -0.881483
     21          1           0        3.354090    0.772725    1.107545
     22          1           0        3.420438    0.757090   -1.735495
     23          1           0        2.623476   -1.619046    0.802100
     24          1           0        2.588101   -1.367096   -0.951859
     25          1           0        0.902824    0.421510   -0.680645
     26          1           0        0.918376    0.200160    1.067891
     27          1           0        0.157292   -2.205603    0.732798
     28          1           0        0.174189   -1.919371   -1.009506
     29          1           0       -1.211773    0.238097   -0.198606
     30          1           0       -2.664319   -2.406752   -0.686451
     31          1           0       -1.797764   -1.545645   -1.945489
     32          1           0       -4.358731   -0.738419   -0.583912
     33          1           0       -3.973062   -0.863308   -2.266177
     34          1           0       -3.828234    1.397395   -2.198201
     35          1           0       -2.204897    1.142031   -1.639634
     36          1           0       -4.684976    1.583817    0.148610
     37          1           0       -3.467533    2.780735   -0.269039
     38          1           0       -4.073974   -0.267409    1.377152
     39          1           0       -3.201234    0.323448    2.762778
     40          1           0       -2.295966   -1.863100    1.719035
     41          1           0       -1.164666   -0.601499    2.174928
 ---------------------------------------------------------------------
 Rotational constants (GHZ):           1.1729395           0.2040128           0.2005325
 Standard basis: 6-31G(2df,p) (6D, 7F)
 There are   595 symmetry adapted cartesian basis functions of A   symmetry.
 There are   550 symmetry adapted basis functions of A   symmetry.
   550 basis functions,   842 primitive gaussians,   595 cartesian basis functions
    60 alpha electrons       60 beta electrons
       nuclear repulsion energy      1071.0583556731 Hartrees.
 NAtoms=   41 NActive=   41 NUniq=   41 SFac= 1.00D+00 NAtFMM=   60 NAOKFM=F Big=F
 Integral buffers will be    131072 words long.
 Raffenetti 2 integral format.
 Two-electron integral symmetry is turned on.
 One-electron integrals computed using PRISM.
 PrsmSu:  requested number of processors reduced to:  12 ShMem   1 Linda.
 NBasis=   550 RedAO= T EigKep=  4.76D-04  NBF=   550
 NBsUse=   550 1.00D-06 EigRej= -1.00D+00 NBFU=   550
 ExpMin= 1.61D-01 ExpMax= 5.48D+03 ExpMxC= 8.25D+02 IAcc=3 IRadAn=         5 AccDes= 0.00D+00
 Harris functional with IExCor=  402 and IRadAn=       5 diagonalized for initial guess.
 HarFok:  IExCor=  402 AccDes= 0.00D+00 IRadAn=         5 IDoV= 1 UseB2=F ITyADJ=14
 ICtDFT=  3500011 ScaDFX=  1.000000  1.000000  1.000000  1.000000
 FoFCou: FMM=F IPFlag=           0 FMFlag=      100000 FMFlg1=           0
         NFxFlg=           0 DoJE=T BraDBF=F KetDBF=T FulRan=T
         wScrn=  0.000000 ICntrl=       500 IOpCl=  0 I1Cent=   200000004 NGrid=           0
         NMat0=    1 NMatS0=      1 NMatT0=    0 NMatD0=    1 NMtDS0=    0 NMtDT0=    0
 Petite list used in FoFCou.
 Requested convergence on RMS density matrix=1.00D-08 within 128 cycles.
 Requested convergence on MAX density matrix=1.00D-06.
 Requested convergence on             energy=1.00D-06.
 No special actions if energy rises.
 Integral accuracy reduced to 1.0D-05 until final iterations.
 Initial convergence to 1.0D-05 achieved.  Increase integral accuracy.
 SCF Done:  E(RB3LYP) =  -661.519697129     A.U. after   12 cycles
            NFock= 12  Conv=0.54D-08     -V/T= 2.0078

 **********************************************************************

            Population analysis using the SCF density.

 **********************************************************************

 Orbital symmetries:
       Occupied  (A) (A) (A) (A) (A) (A) (A) (A) (A) (A) (A) (A)
                 (A) (A) (A) (A) (A) (A) (A) (A) (A) (A) (A) (A)
                 (A) (A) (A) (A) (A) (A) (A) (A) (A) (A) (A) (A)
                 (A) (A) (A) (A) (A) (A) (A) (A) (A) (A) (A) (A)
                 (A) (A) (A) (A) (A) (A) (A) (A) (A) (A) (A) (A)
       Virtual   (A) (A) (A) (A) (A) (A) (A) (A) (A) (A) (A) (A)
                 (A) (A) (A) (A) (A) (A) (A) (A) (A) (A) (A) (A)
                 (A) (A) (A) (A) (A) (A) (A) (A) (A) (A) (A) (A)
                 (A) (A) (A) (A) (A) (A) (A) (A) (A) (A) (A) (A)
                 (A) (A) (A) (A) (A) (A) (A) (A) (A) (A) (A) (A)
                 (A) (A) (A) (A) (A) (A) (A) (A) (A) (A) (A) (A)
                 (A) (A) (A) (A) (A) (A) (A) (A) (A) (A) (A) (A)
                 (A) (A) (A) (A) (A) (A) (A) (A) (A) (A) (A) (A)
                 (A) (A) (A) (A) (A) (A) (A) (A) (A) (A) (A) (A)
                 (A) (A) (A) (A) (A) (A) (A) (A) (A) (A) (A) (A)
                 (A) (A) (A) (A) (A) (A) (A) (A) (A) (A) (A) (A)
                 (A) (A) (A) (A) (A) (A) (A) (A) (A) (A) (A) (A)
                 (A) (A) (A) (A) (A) (A) (A) (A) (A) (A) (A) (A)
                 (A) (A) (A) (A) (A) (A) (A) (A) (A) (A) (A) (A)
                 (A) (A) (A) (A) (A) (A) (A) (A) (A) (A) (A) (A)
                 (A) (A) (A) (A) (A) (A) (A) (A) (A) (A) (A) (A)
                 (A) (A) (A) (A) (A) (A) (A) (A) (A) (A) (A) (A)
                 (A) (A) (A) (A) (A) (A) (A) (A) (A) (A) (A) (A)
                 (A) (A) (A) (A) (A) (A) (A) (A) (A) (A) (A) (A)
                 (A) (A) (A) (A) (A) (A) (A) (A) (A) (A) (A) (A)
                 (A) (A) (A) (A) (A) (A) (A) (A) (A) (A) (A) (A)
                 (A) (A) (A) (A) (A) (A) (A) (A) (A) (A) (A) (A)
                 (A) (A) (A) (A) (A) (A) (A) (A) (A) (A) (A) (A)
                 (A) (A) (A) (A) (A) (A) (A) (A) (A) (A) (A) (A)
                 (A) (A) (A) (A) (A) (A) (A) (A) (A) (A) (A) (A)
                 (A) (A) (A) (A) (A) (A) (A) (A) (A) (A) (A) (A)
                 (A) (A) (A) (A) (A) (A) (A) (A) (A) (A) (A) (A)
                 (A) (A) (A) (A) (A) (A) (A) (A) (A) (A) (A) (A)
                 (A) (A) (A) (A) (A) (A) (A) (A) (A) (A) (A) (A)
                 (A) (A) (A) (A) (A) (A) (A) (A) (A) (A) (A) (A)
                 (A) (A) (A) (A) (A) (A) (A) (A) (A) (A) (A) (A)
                 (A) (A) (A) (A) (A) (A) (A) (A) (A) (A) (A) (A)
                 (A) (A) (A) (A) (A) (A) (A) (A) (A) (A) (A) (A)
                 (A) (A) (A) (A) (A) (A) (A) (A) (A) (A) (A) (A)
                 (A) (A) (A) (A) (A) (A) (A) (A) (A) (A) (A) (A)
                 (A) (A) (A) (A) (A) (A) (A) (A) (A) (A) (A) (A)
                 (A) (A) (A) (A) (A) (A) (A) (A) (A) (A) (A) (A)
                 (A) (A) (A) (A) (A) (A) (A) (A) (A) (A) (A) (A)
                 (A) (A) (A) (A) (A) (A) (A) (A) (A) (A) (A) (A)
                 (A) (A) (A) (A) (A) (A) (A) (A) (A) (A) (A) (A)
                 (A) (A) (A) (A) (A) (A) (A) (A) (A) (A)
 The electronic state is 1-A.
 Alpha  occ. eigenvalues --  -19.12966 -19.12856 -10.22139 -10.22126 -10.21793
 Alpha  occ. eigenvalues --  -10.17493 -10.17291 -10.17255 -10.17099 -10.16971
 Alpha  occ. eigenvalues --  -10.16943 -10.16710 -10.16574 -10.16552 -10.16348
 Alpha  occ. eigenvalues --   -1.01553  -1.01025  -0.81859  -0.79160  -0.78104
 Alpha  occ. eigenvalues --   -0.76066  -0.71677  -0.70074  -0.67118  -0.62662
 Alpha  occ. eigenvalues --   -0.59664  -0.58901  -0.58766  -0.57262  -0.54021
 Alpha  occ. eigenvalues --   -0.48536  -0.48199  -0.47630  -0.46134  -0.45550
 Alpha  occ. eigenvalues --   -0.45041  -0.44037  -0.43646  -0.41855  -0.41563
 Alpha  occ. eigenvalues --   -0.41133  -0.39159  -0.38571  -0.37568  -0.36597
 Alpha  occ. eigenvalues --   -0.36202  -0.34872  -0.34571  -0.34228  -0.33523
 Alpha  occ. eigenvalues --   -0.33214  -0.32731  -0.32215  -0.31262  -0.30615
 Alpha  occ. eigenvalues --   -0.30023  -0.29611  -0.28188  -0.25413  -0.24153
 Alpha virt. eigenvalues --    0.07133   0.08323   0.09437   0.10178   0.10889
 Alpha virt. eigenvalues --    0.11649   0.12466   0.12660   0.13425   0.13748
 Alpha virt. eigenvalues --    0.14640   0.14814   0.15362   0.15779   0.16167
 Alpha virt. eigenvalues --    0.16542   0.17513   0.17665   0.18283   0.18851
 Alpha virt. eigenvalues --    0.19165   0.19728   0.20956   0.21086   0.21329
 Alpha virt. eigenvalues --    0.21979   0.22828   0.22928   0.23499   0.24055
 Alpha virt. eigenvalues --    0.24808   0.25400   0.26051   0.26523   0.27633
 Alpha virt. eigenvalues --    0.28224   0.30291   0.31425   0.32905   0.33687
 Alpha virt. eigenvalues --    0.34431   0.43089   0.45170   0.45264   0.46360
 Alpha virt. eigenvalues --    0.46596   0.47707   0.49391   0.49794   0.50456
 Alpha virt. eigenvalues --    0.51435   0.51682   0.52314   0.52836   0.52957
 Alpha virt. eigenvalues --    0.54472   0.55626   0.56398   0.57310   0.58158
 Alpha virt. eigenvalues --    0.58696   0.59307   0.59794   0.60718   0.61672
 Alpha virt. eigenvalues --    0.62769   0.63741   0.64278   0.65220   0.66037
 Alpha virt. eigenvalues --    0.68041   0.68859   0.69388   0.70573   0.71382
 Alpha virt. eigenvalues --    0.72111   0.72380   0.72648   0.73044   0.73351
 Alpha virt. eigenvalues --    0.73831   0.74358   0.74981   0.75164   0.76206
 Alpha virt. eigenvalues --    0.76303   0.77424   0.77900   0.78201   0.78556
 Alpha virt. eigenvalues --    0.79343   0.79811   0.80305   0.80998   0.81754
 Alpha virt. eigenvalues --    0.82686   0.83627   0.84629   0.85179   0.85599
 Alpha virt. eigenvalues --    0.86306   0.86678   0.87929   0.88338   0.88732
 Alpha virt. eigenvalues --    0.89953   0.90874   0.91107   0.91404   0.92437
 Alpha virt. eigenvalues --    0.94838   0.95143   0.98266   0.99840   1.00796
 Alpha virt. eigenvalues --    1.02765   1.04739   1.06260   1.06766   1.09363
 Alpha virt. eigenvalues --    1.09979   1.12341   1.13176   1.13726   1.15308
 Alpha virt. eigenvalues --    1.16357   1.17955   1.19316   1.19784   1.20343
 Alpha virt. eigenvalues --    1.23419   1.24530   1.25901   1.27013   1.28142
 Alpha virt. eigenvalues --    1.28288   1.29792   1.31376   1.31782   1.32643
 Alpha virt. eigenvalues --    1.35408   1.36736   1.38192   1.39492   1.40700
 Alpha virt. eigenvalues --    1.41234   1.42227   1.42628   1.44562   1.44934
 Alpha virt. eigenvalues --    1.46196   1.47065   1.48091   1.49770   1.50459
 Alpha virt. eigenvalues --    1.51327   1.53069   1.54178   1.55276   1.56382
 Alpha virt. eigenvalues --    1.57644   1.58234   1.60528   1.60657   1.60859
 Alpha virt. eigenvalues --    1.62530   1.62622   1.63546   1.65521   1.67740
 Alpha virt. eigenvalues --    1.68452   1.68734   1.69665   1.70746   1.71834
 Alpha virt. eigenvalues --    1.72576   1.73801   1.74944   1.77366   1.80227
 Alpha virt. eigenvalues --    1.80351   1.82006   1.84897   1.85701   1.86743
 Alpha virt. eigenvalues --    1.87545   1.88826   1.89791   1.90373   1.90805
 Alpha virt. eigenvalues --    1.92648   1.94236   1.97279   1.99105   2.00059
 Alpha virt. eigenvalues --    2.00774   2.02946   2.04127   2.05210   2.08790
 Alpha virt. eigenvalues --    2.10508   2.13590   2.16494   2.17703   2.18970
 Alpha virt. eigenvalues --    2.20009   2.20664   2.22145   2.23060   2.24239
 Alpha virt. eigenvalues --    2.26681   2.27235   2.28984   2.30350   2.31417
 Alpha virt. eigenvalues --    2.32557   2.34408   2.36017   2.37145   2.39018
 Alpha virt. eigenvalues --    2.39964   2.40531   2.41638   2.44498   2.47159
 Alpha virt. eigenvalues --    2.47764   2.49226   2.51051   2.52458   2.54197
 Alpha virt. eigenvalues --    2.54703   2.55948   2.56559   2.59090   2.61002
 Alpha virt. eigenvalues --    2.61896   2.63360   2.65756   2.66775   2.68486
 Alpha virt. eigenvalues --    2.70041   2.71113   2.73241   2.74917   2.75546
 Alpha virt. eigenvalues --    2.76469   2.76850   2.78227   2.78376   2.79476
 Alpha virt. eigenvalues --    2.80236   2.81093   2.82126   2.82539   2.83286
 Alpha virt. eigenvalues --    2.84343   2.84834   2.86512   2.86971   2.87913
 Alpha virt. eigenvalues --    2.88915   2.89464   2.89967   2.90952   2.91611
 Alpha virt. eigenvalues --    2.92259   2.92903   2.94115   2.94359   2.95580
 Alpha virt. eigenvalues --    2.96168   2.96669   2.97678   2.98845   2.99542
 Alpha virt. eigenvalues --    3.00570   3.02220   3.05059   3.06741   3.07469
 Alpha virt. eigenvalues --    3.07932   3.10040   3.11615   3.12912   3.13676
 Alpha virt. eigenvalues --    3.16613   3.18287   3.18750   3.20071   3.21072
 Alpha virt. eigenvalues --    3.22756   3.23085   3.25081   3.27040   3.29446
 Alpha virt. eigenvalues --    3.30694   3.31431   3.34304   3.36455   3.36965
 Alpha virt. eigenvalues --    3.38152   3.39432   3.40250   3.41419   3.43914
 Alpha virt. eigenvalues --    3.45120   3.45375   3.46389   3.46799   3.48645
 Alpha virt. eigenvalues --    3.50360   3.51023   3.51870   3.52685   3.54209
 Alpha virt. eigenvalues --    3.55627   3.55865   3.57863   3.59379   3.60715
 Alpha virt. eigenvalues --    3.61196   3.61825   3.62656   3.63498   3.66374
 Alpha virt. eigenvalues --    3.67637   3.68382   3.69457   3.69699   3.70999
 Alpha virt. eigenvalues --    3.72826   3.75978   3.77081   3.78429   3.78626
 Alpha virt. eigenvalues --    3.79809   3.80632   3.82254   3.82817   3.84097
 Alpha virt. eigenvalues --    3.86389   3.87542   3.90399   3.92263   3.93812
 Alpha virt. eigenvalues --    3.96143   3.97709   3.98274   4.03246   4.04819
 Alpha virt. eigenvalues --    4.09465   4.11034   4.12118   4.15998   4.18788
 Alpha virt. eigenvalues --    4.20662   4.23088   4.24608   4.26866   4.28974
 Alpha virt. eigenvalues --    4.30343   4.32550   4.36971   4.38953   4.41077
 Alpha virt. eigenvalues --    4.41859   4.43264   4.45447   4.45728   4.46504
 Alpha virt. eigenvalues --    4.47916   4.49224   4.49815   4.50425   4.52996
 Alpha virt. eigenvalues --    4.54117   4.54837   4.56054   4.57558   4.58478
 Alpha virt. eigenvalues --    4.58968   4.59858   4.60707   4.61103   4.61411
 Alpha virt. eigenvalues --    4.62641   4.62781   4.64317   4.64608   4.65209
 Alpha virt. eigenvalues --    4.65854   4.67180   4.67932   4.68100   4.68848
 Alpha virt. eigenvalues --    4.69494   4.70049   4.71244   4.71697   4.72158
 Alpha virt. eigenvalues --    4.72748   4.74059   4.74334   4.74620   4.76264
 Alpha virt. eigenvalues --    4.76731   4.77810   4.79028   4.79727   4.79830
 Alpha virt. eigenvalues --    4.81734   4.82188   4.82789   4.83291   4.85080
 Alpha virt. eigenvalues --    4.86051   4.86417   4.88180   4.89347   4.90158
 Alpha virt. eigenvalues --    4.91112   4.91279   4.91833   4.93151   4.93457
 Alpha virt. eigenvalues --    4.94860   4.96100   4.97589   4.98393   4.99086
 Alpha virt. eigenvalues --    5.01572   5.02498   5.03596   5.05995   5.09179
 Alpha virt. eigenvalues --    5.13689   5.13865   5.15566   5.20060   5.20451
 Alpha virt. eigenvalues --    5.23096   5.28901   5.31250   5.35169   5.37120
 Alpha virt. eigenvalues --    5.38882   5.40642   5.41543   5.42688   5.45734
 Alpha virt. eigenvalues --    5.47635   5.48593   5.50928   5.52909   5.56245
 Alpha virt. eigenvalues --    5.58554   5.60423   5.65176   5.69794   5.73801
 Alpha virt. eigenvalues --    5.77772   5.83767   5.94419   5.98381   6.01040
 Alpha virt. eigenvalues --    6.01944   6.07503   6.10329   6.13079   6.22238
 Alpha virt. eigenvalues --    6.37817   6.58569   6.84931   7.10948   7.19247
 Alpha virt. eigenvalues --   11.12248  11.23426  11.37621  11.53759  11.76125
 Alpha virt. eigenvalues --   11.87846  12.08475  12.23095  12.37902  12.49977
 Alpha virt. eigenvalues --   12.61724  12.81319  12.89679  13.33779  13.54175
          Condensed to atoms (all electrons):
               1          2          3          4          5          6
     1  C    4.962316   0.399599  -0.027092  -0.005843   0.003668  -0.000181
     2  C    0.399599   4.898793   0.402704  -0.041120  -0.045249   0.003508
     3  C   -0.027092   0.402704   4.562613   0.349520   0.408680  -0.028119
     4  O   -0.005843  -0.041120   0.349520   7.866947  -0.039281  -0.006520
     5  C    0.003668  -0.045249   0.408680  -0.039281   4.951297   0.415086
     6  C   -0.000181   0.003508  -0.028119  -0.006520   0.415086   4.802280
     7  C    0.000001  -0.000102   0.001450   0.000344  -0.040783   0.414333
     8  C   -0.000000   0.000002  -0.000099   0.000017   0.001926  -0.025402
     9  C    0.000000  -0.000000   0.000001   0.000000  -0.000217   0.000604
    10  C   -0.000000   0.000000  -0.000000  -0.000000   0.000001  -0.000101
    11  C   -0.000000   0.000000   0.000000   0.000000   0.000000  -0.000058
    12  C    0.000000  -0.000000  -0.000000  -0.000000  -0.000000   0.000009
    13  O    0.000000  -0.000000  -0.000000   0.000000  -0.000001  -0.000269
    14  C   -0.000000   0.000000  -0.000000   0.000000  -0.000003   0.000012
    15  C    0.000000  -0.000000   0.000001  -0.000000   0.000062   0.000135
    16  H    0.369960  -0.022615   0.002730   0.000256  -0.000137   0.000001
    17  H    0.378070  -0.031317  -0.003931  -0.000051   0.000195   0.000003
    18  H    0.375767  -0.028552  -0.006068   0.012928   0.000527   0.000002
    19  H   -0.034816   0.349510  -0.023485   0.003298   0.000524  -0.000002
    20  H   -0.040596   0.353562  -0.021411  -0.004111  -0.006905   0.000152
    21  H   -0.003716  -0.052850   0.363054  -0.023518  -0.049907  -0.003537
    22  H   -0.000167  -0.003200  -0.064581   0.305179  -0.003468  -0.000307
    23  H   -0.000069  -0.000444  -0.021667   0.003191   0.341470  -0.029856
    24  H    0.000039  -0.007461  -0.019583  -0.004218   0.342513  -0.033215
    25  H    0.000001   0.000599  -0.005075   0.015031  -0.033699   0.361999
    26  H    0.000004   0.000126  -0.001322  -0.000100  -0.038428   0.366519
    27  H    0.000000  -0.000001   0.000118  -0.000005  -0.002738  -0.029728
    28  H    0.000000   0.000009   0.000277  -0.000004  -0.003971  -0.031267
    29  H    0.000000  -0.000000   0.000046  -0.000029   0.000677  -0.007655
    30  H   -0.000000   0.000000   0.000000  -0.000000   0.000011   0.000053
    31  H    0.000000   0.000000   0.000000  -0.000000  -0.000010   0.000587
    32  H    0.000000  -0.000000   0.000000  -0.000000  -0.000000  -0.000001
    33  H    0.000000  -0.000000   0.000000  -0.000000  -0.000000   0.000001
    34  H   -0.000000   0.000000  -0.000000   0.000000   0.000000  -0.000001
    35  H    0.000000  -0.000000   0.000000   0.000000  -0.000002  -0.000067
    36  H    0.000000  -0.000000  -0.000000   0.000000  -0.000000  -0.000001
    37  H    0.000000  -0.000000   0.000000  -0.000000   0.000000   0.000000
    38  H   -0.000000  -0.000000  -0.000000   0.000000  -0.000000  -0.000014
    39  H    0.000000  -0.000000   0.000000  -0.000000  -0.000000   0.000000
    40  H    0.000000   0.000000   0.000000  -0.000000   0.000013   0.000017
    41  H    0.000000  -0.000000   0.000001   0.000000  -0.000210  -0.000305
               7          8          9         10         11         12
     1  C    0.000001  -0.000000   0.000000  -0.000000  -0.000000   0.000000
     2  C   -0.000102   0.000002  -0.000000   0.000000   0.000000  -0.000000
     3  C    0.001450  -0.000099   0.000001  -0.000000   0.000000  -0.000000
     4  O    0.000344   0.000017   0.000000  -0.000000   0.000000  -0.000000
     5  C   -0.040783   0.001926  -0.000217   0.000001   0.000000  -0.000000
     6  C    0.414333  -0.025402   0.000604  -0.000101  -0.000058   0.000009
     7  C    4.968811   0.397557  -0.032265   0.003533   0.000063   0.000144
     8  C    0.397557   4.600882   0.402464  -0.033103  -0.005487  -0.000835
     9  C   -0.032265   0.402464   4.922484   0.401083  -0.027855  -0.001237
    10  C    0.003533  -0.033103   0.401083   4.864556   0.406383  -0.020369
    11  C    0.000063  -0.005487  -0.027855   0.406383   4.957712   0.371453
    12  C    0.000144  -0.000835  -0.001237  -0.020369   0.371453   4.740711
    13  O    0.000662  -0.006465   0.000757   0.001527  -0.052910   0.390299
    14  C    0.002858  -0.029441  -0.000272   0.005613  -0.000512  -0.081784
    15  C   -0.024639   0.412372  -0.038004  -0.001030   0.003095   0.004751
    16  H   -0.000000   0.000000  -0.000000   0.000000  -0.000000  -0.000000
    17  H    0.000000   0.000000  -0.000000   0.000000  -0.000000  -0.000000
    18  H    0.000000  -0.000000  -0.000000  -0.000000   0.000000   0.000000
    19  H   -0.000005  -0.000000  -0.000000   0.000000  -0.000000   0.000000
    20  H    0.000003   0.000000   0.000000   0.000000  -0.000000  -0.000000
    21  H    0.000057   0.000007   0.000000   0.000000  -0.000000  -0.000000
    22  H   -0.000074  -0.000000  -0.000000   0.000000  -0.000000   0.000000
    23  H   -0.003425   0.000231   0.000005   0.000000  -0.000000   0.000000
    24  H   -0.003963   0.000222   0.000003   0.000000   0.000000  -0.000000
    25  H   -0.035126  -0.005018   0.000621  -0.000028  -0.000098  -0.000012
    26  H   -0.036719  -0.000890   0.000185   0.000013   0.000007  -0.000000
    27  H    0.348160  -0.023897   0.001982  -0.000191  -0.000001  -0.000005
    28  H    0.346653  -0.022703  -0.012024   0.000308   0.000049  -0.000002
    29  H   -0.048514   0.360433  -0.045360  -0.012790   0.002535  -0.003803
    30  H    0.000314  -0.024843   0.352133  -0.032393   0.004569  -0.000136
    31  H   -0.009917  -0.028769   0.357707  -0.032482  -0.003402   0.000019
    32  H   -0.000036  -0.002499  -0.032477   0.369405  -0.040916  -0.009930
    33  H   -0.000120   0.003505  -0.026617   0.358925  -0.030927   0.003351
    34  H   -0.000019   0.000318   0.004017  -0.029708   0.345571  -0.022609
    35  H    0.000146  -0.004012  -0.008663  -0.039767   0.370920  -0.030308
    36  H    0.000004  -0.000169   0.000287  -0.009722  -0.054575   0.365639
    37  H    0.000004   0.000017  -0.000107   0.004687  -0.044538   0.368261
    38  H    0.000002  -0.003065   0.000865  -0.003208  -0.001237  -0.008658
    39  H   -0.000072   0.004098   0.000070   0.000039  -0.000381   0.002945
    40  H   -0.001499  -0.022793  -0.010083  -0.000552   0.000084  -0.000374
    41  H   -0.006320  -0.028713   0.005577  -0.000117  -0.000014  -0.000091
              13         14         15         16         17         18
     1  C    0.000000  -0.000000   0.000000   0.369960   0.378070   0.375767
     2  C   -0.000000   0.000000  -0.000000  -0.022615  -0.031317  -0.028552
     3  C   -0.000000  -0.000000   0.000001   0.002730  -0.003931  -0.006068
     4  O    0.000000   0.000000  -0.000000   0.000256  -0.000051   0.012928
     5  C   -0.000001  -0.000003   0.000062  -0.000137   0.000195   0.000527
     6  C   -0.000269   0.000012   0.000135   0.000001   0.000003   0.000002
     7  C    0.000662   0.002858  -0.024639  -0.000000   0.000000   0.000000
     8  C   -0.006465  -0.029441   0.412372   0.000000   0.000000  -0.000000
     9  C    0.000757  -0.000272  -0.038004  -0.000000  -0.000000  -0.000000
    10  C    0.001527   0.005613  -0.001030   0.000000   0.000000  -0.000000
    11  C   -0.052910  -0.000512   0.003095  -0.000000  -0.000000   0.000000
    12  C    0.390299  -0.081784   0.004751  -0.000000  -0.000000   0.000000
    13  O    7.682020   0.366298  -0.055405  -0.000000   0.000000  -0.000000
    14  C    0.366298   4.795552   0.384271   0.000000   0.000000   0.000000
    15  C   -0.055405   0.384271   4.984534   0.000000   0.000000   0.000000
    16  H   -0.000000   0.000000   0.000000   0.617777  -0.031918  -0.032536
    17  H    0.000000   0.000000   0.000000  -0.031918   0.601569  -0.030454
    18  H   -0.000000   0.000000   0.000000  -0.032536  -0.030454   0.583110
    19  H   -0.000000   0.000000   0.000000  -0.003222  -0.003560   0.005808
    20  H   -0.000000   0.000000  -0.000000  -0.002327   0.005890  -0.004063
    21  H   -0.000000   0.000000  -0.000002  -0.000067   0.005188  -0.000234
    22  H    0.000000   0.000000   0.000000  -0.000041   0.000067   0.000042
    23  H   -0.000000   0.000000   0.000000  -0.000005   0.000001  -0.000016
    24  H   -0.000000  -0.000000  -0.000008   0.000002   0.000011  -0.000003
    25  H   -0.000043   0.000061  -0.000120   0.000000  -0.000000  -0.000007
    26  H    0.000130  -0.000243  -0.000391   0.000000  -0.000002  -0.000000
    27  H   -0.000001   0.000244  -0.011649   0.000000   0.000000  -0.000000
    28  H   -0.000002  -0.000188   0.003408   0.000000  -0.000000  -0.000000
    29  H    0.022937  -0.013088  -0.050358   0.000000   0.000000   0.000000
    30  H    0.000005  -0.000521  -0.009628   0.000000  -0.000000  -0.000000
    31  H   -0.000012  -0.000053   0.005008  -0.000000   0.000000   0.000000
    32  H   -0.000493  -0.002050  -0.000057  -0.000000   0.000000   0.000000
    33  H   -0.000011  -0.000081   0.000144  -0.000000   0.000000   0.000000
    34  H    0.002538  -0.000129  -0.000086   0.000000  -0.000000  -0.000000
    35  H   -0.002536  -0.000389   0.000356  -0.000000  -0.000000  -0.000000
    36  H   -0.030759  -0.012278  -0.000912  -0.000000   0.000000   0.000000
    37  H   -0.020849   0.004998  -0.000356   0.000000   0.000000   0.000000
    38  H   -0.027185   0.359180  -0.040517  -0.000000   0.000000  -0.000000
    39  H   -0.022503   0.362113  -0.043385  -0.000000   0.000000   0.000000
    40  H    0.002586  -0.026732   0.340015   0.000000  -0.000000   0.000000
    41  H   -0.000237  -0.028172   0.353801  -0.000000   0.000000  -0.000000
              19         20         21         22         23         24
     1  C   -0.034816  -0.040596  -0.003716  -0.000167  -0.000069   0.000039
     2  C    0.349510   0.353562  -0.052850  -0.003200  -0.000444  -0.007461
     3  C   -0.023485  -0.021411   0.363054  -0.064581  -0.021667  -0.019583
     4  O    0.003298  -0.004111  -0.023518   0.305179   0.003191  -0.004218
     5  C    0.000524  -0.006905  -0.049907  -0.003468   0.341470   0.342513
     6  C   -0.000002   0.000152  -0.003537  -0.000307  -0.029856  -0.033215
     7  C   -0.000005   0.000003   0.000057  -0.000074  -0.003425  -0.003963
     8  C   -0.000000   0.000000   0.000007  -0.000000   0.000231   0.000222
     9  C   -0.000000   0.000000   0.000000  -0.000000   0.000005   0.000003
    10  C    0.000000   0.000000   0.000000   0.000000   0.000000   0.000000
    11  C   -0.000000  -0.000000  -0.000000  -0.000000  -0.000000   0.000000
    12  C    0.000000  -0.000000  -0.000000   0.000000   0.000000  -0.000000
    13  O   -0.000000  -0.000000  -0.000000   0.000000  -0.000000  -0.000000
    14  C    0.000000   0.000000   0.000000   0.000000   0.000000  -0.000000
    15  C    0.000000  -0.000000  -0.000002   0.000000   0.000000  -0.000008
    16  H   -0.003222  -0.002327  -0.000067  -0.000041  -0.000005   0.000002
    17  H   -0.003560   0.005890   0.005188   0.000067   0.000001   0.000011
    18  H    0.005808  -0.004063  -0.000234   0.000042  -0.000016  -0.000003
    19  H    0.650105  -0.036249  -0.000846  -0.000111   0.002592   0.000068
    20  H   -0.036249   0.658380   0.006433   0.005267   0.000066   0.005432
    21  H   -0.000846   0.006433   0.655291   0.007264  -0.000865   0.006422
    22  H   -0.000111   0.005267   0.007264   0.471888  -0.000095   0.005457
    23  H    0.002592   0.000066  -0.000865  -0.000095   0.651239  -0.037591
    24  H    0.000068   0.005432   0.006422   0.005457  -0.037591   0.661988
    25  H   -0.000023  -0.000006  -0.000428   0.000065   0.006577  -0.005593
    26  H   -0.000001   0.000011   0.005573   0.000056  -0.004682   0.006487
    27  H   -0.000000   0.000001   0.000008   0.000002   0.004759  -0.000555
    28  H    0.000000  -0.000002   0.000010  -0.000008  -0.000550   0.005594
    29  H    0.000000   0.000000   0.000004   0.000001   0.000022   0.000027
    30  H   -0.000000  -0.000000  -0.000000  -0.000000  -0.000000  -0.000000
    31  H    0.000000   0.000000  -0.000000  -0.000000   0.000001  -0.000003
    32  H   -0.000000   0.000000   0.000000  -0.000000  -0.000000  -0.000000
    33  H   -0.000000   0.000000   0.000000  -0.000000   0.000000   0.000000
    34  H   -0.000000  -0.000000  -0.000000  -0.000000   0.000000   0.000000
    35  H   -0.000000  -0.000000  -0.000000  -0.000000   0.000000  -0.000001
    36  H   -0.000000  -0.000000  -0.000000  -0.000000  -0.000000  -0.000000
    37  H    0.000000  -0.000000  -0.000000  -0.000000  -0.000000  -0.000000
    38  H   -0.000000  -0.000000  -0.000000  -0.000000   0.000000  -0.000000
    39  H    0.000000  -0.000000  -0.000000  -0.000000  -0.000000   0.000000
    40  H   -0.000000  -0.000000   0.000000  -0.000000  -0.000004   0.000000
    41  H   -0.000000  -0.000000  -0.000001  -0.000000   0.000019   0.000003
              25         26         27         28         29         30
     1  C    0.000001   0.000004   0.000000   0.000000   0.000000  -0.000000
     2  C    0.000599   0.000126  -0.000001   0.000009  -0.000000   0.000000
     3  C   -0.005075  -0.001322   0.000118   0.000277   0.000046   0.000000
     4  O    0.015031  -0.000100  -0.000005  -0.000004  -0.000029  -0.000000
     5  C   -0.033699  -0.038428  -0.002738  -0.003971   0.000677   0.000011
     6  C    0.361999   0.366519  -0.029728  -0.031267  -0.007655   0.000053
     7  C   -0.035126  -0.036719   0.348160   0.346653  -0.048514   0.000314
     8  C   -0.005018  -0.000890  -0.023897  -0.022703   0.360433  -0.024843
     9  C    0.000621   0.000185   0.001982  -0.012024  -0.045360   0.352133
    10  C   -0.000028   0.000013  -0.000191   0.000308  -0.012790  -0.032393
    11  C   -0.000098   0.000007  -0.000001   0.000049   0.002535   0.004569
    12  C   -0.000012  -0.000000  -0.000005  -0.000002  -0.003803  -0.000136
    13  O   -0.000043   0.000130  -0.000001  -0.000002   0.022937   0.000005
    14  C    0.000061  -0.000243   0.000244  -0.000188  -0.013088  -0.000521
    15  C   -0.000120  -0.000391  -0.011649   0.003408  -0.050358  -0.009628
    16  H    0.000000   0.000000   0.000000   0.000000   0.000000   0.000000
    17  H   -0.000000  -0.000002   0.000000  -0.000000   0.000000  -0.000000
    18  H   -0.000007  -0.000000  -0.000000  -0.000000   0.000000  -0.000000
    19  H   -0.000023  -0.000001  -0.000000   0.000000   0.000000  -0.000000
    20  H   -0.000006   0.000011   0.000001  -0.000002   0.000000  -0.000000
    21  H   -0.000428   0.005573   0.000008   0.000010   0.000004  -0.000000
    22  H    0.000065   0.000056   0.000002  -0.000008   0.000001  -0.000000
    23  H    0.006577  -0.004682   0.004759  -0.000550   0.000022  -0.000000
    24  H   -0.005593   0.006487  -0.000555   0.005594   0.000027  -0.000000
    25  H    0.628958  -0.039434   0.005781  -0.005805   0.005359  -0.000006
    26  H   -0.039434   0.640699  -0.005103   0.006399   0.001529  -0.000000
    27  H    0.005781  -0.005103   0.658247  -0.041812   0.006549   0.000640
    28  H   -0.005805   0.006399  -0.041812   0.661684   0.003381   0.000997
    29  H    0.005359   0.001529   0.006549   0.003381   0.666271   0.006467
    30  H   -0.000006  -0.000000   0.000640   0.000997   0.006467   0.657686
    31  H    0.000116   0.000005  -0.000105   0.008268  -0.001875  -0.040855
    32  H    0.000001  -0.000000   0.000006   0.000001  -0.000124  -0.008103
    33  H    0.000001   0.000000   0.000003  -0.000028   0.000195   0.001478
    34  H    0.000000   0.000000   0.000000   0.000000   0.000065  -0.000159
    35  H    0.000663  -0.000025   0.000008  -0.000042   0.004925   0.000036
    36  H    0.000000   0.000000  -0.000000  -0.000000   0.000546   0.000000
    37  H    0.000000  -0.000000   0.000000   0.000000   0.000154   0.000005
    38  H    0.000000   0.000006   0.000000   0.000004   0.001048   0.000023
    39  H   -0.000001   0.000007  -0.000006   0.000003   0.000484  -0.000030
    40  H   -0.000011  -0.000004   0.003504   0.000046   0.006980   0.006737
    41  H    0.000033   0.004006   0.002140  -0.000007  -0.001006   0.000028
              31         32         33         34         35         36
     1  C    0.000000   0.000000   0.000000  -0.000000   0.000000   0.000000
     2  C    0.000000  -0.000000  -0.000000   0.000000  -0.000000  -0.000000
     3  C    0.000000   0.000000   0.000000  -0.000000   0.000000  -0.000000
     4  O   -0.000000  -0.000000  -0.000000   0.000000   0.000000   0.000000
     5  C   -0.000010  -0.000000  -0.000000   0.000000  -0.000002  -0.000000
     6  C    0.000587  -0.000001   0.000001  -0.000001  -0.000067  -0.000001
     7  C   -0.009917  -0.000036  -0.000120  -0.000019   0.000146   0.000004
     8  C   -0.028769  -0.002499   0.003505   0.000318  -0.004012  -0.000169
     9  C    0.357707  -0.032477  -0.026617   0.004017  -0.008663   0.000287
    10  C   -0.032482   0.369405   0.358925  -0.029708  -0.039767  -0.009722
    11  C   -0.003402  -0.040916  -0.030927   0.345571   0.370920  -0.054575
    12  C    0.000019  -0.009930   0.003351  -0.022609  -0.030308   0.365639
    13  O   -0.000012  -0.000493  -0.000011   0.002538  -0.002536  -0.030759
    14  C   -0.000053  -0.002050  -0.000081  -0.000129  -0.000389  -0.012278
    15  C    0.005008  -0.000057   0.000144  -0.000086   0.000356  -0.000912
    16  H   -0.000000  -0.000000  -0.000000   0.000000  -0.000000  -0.000000
    17  H    0.000000   0.000000   0.000000  -0.000000  -0.000000   0.000000
    18  H    0.000000   0.000000   0.000000  -0.000000  -0.000000   0.000000
    19  H    0.000000  -0.000000  -0.000000  -0.000000  -0.000000  -0.000000
    20  H    0.000000   0.000000   0.000000  -0.000000  -0.000000  -0.000000
    21  H   -0.000000   0.000000   0.000000  -0.000000  -0.000000  -0.000000
    22  H   -0.000000  -0.000000  -0.000000  -0.000000  -0.000000  -0.000000
    23  H    0.000001  -0.000000   0.000000   0.000000   0.000000  -0.000000
    24  H   -0.000003  -0.000000   0.000000   0.000000  -0.000001  -0.000000
    25  H    0.000116   0.000001   0.000001   0.000000   0.000663   0.000000
    26  H    0.000005  -0.000000   0.000000   0.000000  -0.000025   0.000000
    27  H   -0.000105   0.000006   0.000003   0.000000   0.000008  -0.000000
    28  H    0.008268   0.000001  -0.000028   0.000000  -0.000042  -0.000000
    29  H   -0.001875  -0.000124   0.000195   0.000065   0.004925   0.000546
    30  H   -0.040855  -0.008103   0.001478  -0.000159   0.000036   0.000000
    31  H    0.661447   0.006313  -0.011255  -0.000039   0.002600   0.000004
    32  H    0.006313   0.646895  -0.039377   0.002934   0.005595   0.005063
    33  H   -0.011255  -0.039377   0.665510  -0.012544   0.002557   0.000106
    34  H   -0.000039   0.002934  -0.012544   0.658090  -0.035730  -0.000011
    35  H    0.002600   0.005595   0.002557  -0.035730   0.620572   0.005315
    36  H    0.000004   0.005063   0.000106  -0.000011   0.005315   0.668071
    37  H    0.000008   0.000211  -0.000232  -0.000788  -0.003230  -0.039999
    38  H   -0.000047   0.005167   0.000159  -0.000105   0.000114   0.011247
    39  H    0.000006   0.000232  -0.000010   0.000013  -0.000004   0.001245
    40  H    0.000062  -0.000006  -0.000038   0.000003   0.000001   0.000031
    41  H   -0.000262  -0.000035   0.000007   0.000000  -0.000001   0.000011
              37         38         39         40         41
     1  C    0.000000  -0.000000   0.000000   0.000000   0.000000
     2  C   -0.000000  -0.000000  -0.000000   0.000000  -0.000000
     3  C    0.000000  -0.000000   0.000000   0.000000   0.000001
     4  O   -0.000000   0.000000  -0.000000  -0.000000   0.000000
     5  C    0.000000  -0.000000  -0.000000   0.000013  -0.000210
     6  C    0.000000  -0.000014   0.000000   0.000017  -0.000305
[...]
 3,0.00013452,-0.00002145,0.00013027,0.00050349,0.00025247,-0.00034182,
 -0.00044221,0.00076621,0.00074793,-0.00012414,0.00047298,0.00053017,-0
 .00689820,-0.00501751,0.00407312,0.09940910,0.18745429,0.00000252,0.00
 000191,-0.00000664,-0.00001211,-0.00000145,0.00000644,0.00004235,0.000
 02183,-0.00001846,-0.00003850,-0.00002686,0.00000536,-0.00003871,0.000
 00197,0.00002025,0.00003881,0.00002404,-0.00004569,-0.00005344,0.00001
 761,0.00005937,0.00006316,-0.00002432,-0.00007614,0.00042914,0.0000479
 0,0.00029613,0.00154093,-0.00460882,-0.00291957,0.01862779,0.01812444,
 -0.01523979,0.06710501,0.07961243,-0.10725598,-0.00032538,0.00930894,-
 0.00040767,-0.00123169,-0.00153530,0.00055317,0.00041228,-0.00001988,-
 0.00001168,-0.00000384,0.00000141,-0.00000165,-0.00000034,0.00000072,0
 .00000058,-0.00000152,-0.00000179,0.00000093,-0.00000099,-0.00000340,0
 .00000257,0.00000041,0.00000029,-0.00000088,-0.00000178,-0.00000103,0.
 00000053,0.00001216,0.00001014,-0.00000369,-0.00000005,-0.00000425,0.0
 0000267,0.00000193,-0.00000034,-0.00000264,-0.00000995,-0.00000706,-0.
 00000067,-0.00000679,0.00000568,0.00000540,-0.00000357,-0.00000433,0.0
 0000217,0.00000741,-0.00000094,0.00000645,-0.00005268,0.00001814,-0.00
 002074,-0.00011519,0.00017315,-0.00014213,0.00000472,-0.00003072,-0.00
 001758,-0.00009676,0.00004355,0.00018379,0.00098945,0.00097221,-0.0010
 4676,-0.00007376,-0.00029570,0.00094925,-0.00094258,0.00070985,0.00086
 139,-0.01094158,-0.01324244,0.00987630,-0.07575817,-0.08967584,0.11459
 353,0.00000272,0.00000060,-0.00000804,-0.00001194,-0.00000146,0.000005
 82,0.00002866,-0.00001050,0.00001730,-0.00003262,0.00001396,-0.0000324
 4,0.00001875,-0.00002667,0.00001657,-0.00001680,0.00004212,0.00008325,
 0.00012068,-0.00012402,-0.00002762,-0.00005889,0.00013387,0.00009231,-
 0.00027383,-0.00024440,-0.00055228,-0.00217150,0.00089803,0.00061920,0
 .00037588,-0.00083682,0.00017194,-0.00037557,0.00529585,-0.00078251,-0
 .01910717,-0.01291012,-0.00076636,-0.28735689,0.01985732,-0.04354019,-
 0.00467355,0.00192616,-0.00002273,-0.00000617,0.00000320,-0.00000658,-
 0.00000033,-0.00000080,0.00000229,0.00000218,-0.00000117,0.00000413,0.
 00000050,0.00000203,-0.00000006,-0.00000117,-0.00000163,-0.00000336,0.
 00000317,-0.00000514,0.00000067,0.00001587,0.00000016,0.00001178,0.000
 00105,0.00001081,-0.00000856,-0.00000788,-0.00000197,-0.00002515,0.000
 01611,0.00000398,0.00000068,0.00003311,-0.00006951,-0.00003197,-0.0000
 0701,0.00002808,-0.00001496,-0.00002272,-0.00003089,-0.00010140,0.0000
 7569,0.00008704,0.00018028,0.00006400,0.00000490,-0.00004775,0.0001073
 9,-0.00004616,0.00007015,0.00034396,0.00182207,0.00180018,0.00034199,0
 .00072211,0.00049972,0.00017666,-0.00013072,-0.00022667,-0.00006541,0.
 00018900,0.00011090,0.00182627,-0.00099788,0.00097853,0.00051596,0.000
 18629,0.00036073,0.31934060,-0.00000369,-0.00000187,0.00000880,0.00001
 548,0.00000438,-0.00000748,-0.00005034,-0.00001313,-0.00000319,0.00004
 754,0.00001283,0.00001450,-0.00000109,0.00006225,-0.00000786,0.0000272
 5,-0.00013732,-0.00001594,0.00008858,0.00008565,-0.00002663,-0.0002565
 2,-0.00026115,0.00006100,0.00009019,0.00040422,0.00008795,0.00046319,-
 0.00111377,-0.00090735,0.00017665,-0.00042142,-0.00000257,-0.00644063,
 0.00369707,-0.00224493,-0.03733459,-0.01455359,-0.00052207,0.03064960,
 -0.05221700,0.00222166,0.00809815,-0.00151028,0.00217515,0.00000655,-0
 .00000277,0.00000542,0.00000030,-0.00000007,-0.00000193,-0.00000031,0.
 00000193,-0.00000284,0.00000026,0.00000070,-0.00000202,0.00000064,0.00
 000058,0.00000304,-0.00000338,0.00000556,-0.00000149,-0.00001775,-0.00
 000619,-0.00000358,-0.00000072,-0.00000666,0.00000107,0.00001065,-0.00
 000100,0.00003683,0.00000589,0.00002064,0.00001285,-0.00007310,0.00010
 205,0.00002783,-0.00000350,0.00000281,-0.00003971,-0.00000769,0.000015
 00,0.00005235,0.00003640,0.00007127,0.00022233,-0.00000846,-0.00002617
 ,0.00001399,-0.00001721,-0.00000841,0.00009788,0.00105353,-0.00062145,
 -0.00104426,0.00002480,-0.00002153,-0.00002611,0.00012966,-0.00003403,
 -0.00006369,0.00004667,0.00012083,0.00010299,0.00097842,0.00016905,0.0
 0081797,0.00027096,0.00019984,0.00021647,-0.01904516,0.06468024,0.0000
 0498,0.00000221,-0.00001190,-0.00001933,-0.00000515,0.00001030,0.00007
 259,0.00000779,0.00001417,-0.00006680,-0.00001219,-0.00002284,0.000060
 61,-0.00013558,-0.00001275,-0.00005122,0.00018833,0.00006257,0.0000824
 4,-0.00015251,-0.00013246,-0.00044734,0.00062903,0.00075451,-0.0001082
 3,-0.00003444,-0.00035246,-0.00032617,-0.00117297,-0.00118591,-0.00030
 859,-0.00009169,0.00012050,0.00209523,0.00040566,0.00245174,0.00610491
 ,0.00271056,0.00107695,-0.04285680,0.00226074,-0.05821141,-0.03073094,
 0.00539032,-0.00500413,-0.00000888,0.00000400,-0.00000677,-0.00000059,
 0.00000051,0.00000224,0.00000044,-0.00000280,0.00000383,-0.00000029,-0
 .00000073,0.00000252,-0.00000129,-0.00000093,-0.00000349,0.00000603,-0
 .00000704,0.00000282,0.00002389,0.00000879,0.00000716,-0.00000106,0.00
 001414,-0.00000500,-0.00003252,0.00001189,-0.00007671,0.00000324,-0.00
 004027,-0.00001565,0.00018805,-0.00021492,-0.00004684,-0.00000704,0.00
 002059,0.00002371,-0.00000155,-0.00003861,-0.00018794,-0.00003400,-0.0
 0003866,0.00002165,0.00006885,0.00000107,-0.00007626,0.00020378,-0.000
 02880,0.00011304,0.00139494,-0.00064596,0.00005256,0.00019389,0.000174
 34,0.00023227,-0.00000197,0.00010456,0.00003995,0.00013047,0.00011795,
 -0.00012942,-0.00023390,-0.00026119,-0.00040685,0.00004533,-0.00007334
 ,-0.00014159,0.04495344,-0.00762155,0.06051327,-0.00000111,-0.00000023
 ,0.00000449,0.00000637,0.00000234,-0.00000279,-0.00001045,0.00000733,-
 0.00000396,0.00001235,-0.00000750,0.00001515,0.00000376,0.00001031,-0.
 00001002,0.00003746,-0.00004119,0.00003496,0.00008777,-0.00013825,-0.0
 0019631,0.00051765,0.00026502,-0.00149868,-0.00017618,0.00000852,-0.00
 040289,-0.00117949,-0.00027571,-0.00031015,0.00044842,-0.00103171,0.00
 019939,-0.00211219,-0.00058071,-0.00207299,0.00910275,-0.01814964,-0.0
 0713011,-0.09466425,0.07032884,0.06535671,0.00328945,-0.00296007,-0.00
 776835,0.00000284,-0.00000135,0.00000293,0.00000048,-0.00000014,-0.000
 00159,-0.00000129,0.00000043,-0.00000187,-0.00000054,-0.00000086,0.000
 00042,0.00000038,-0.00000041,0.00000093,-0.00000133,0.00000230,-0.0000
 0091,-0.00000687,-0.00000046,-0.00000535,-0.00000104,-0.00000471,0.000
 00579,0.00000238,0.00000026,0.00001148,-0.00000782,-0.00000517,-0.0000
 0541,-0.00001156,0.00003062,-0.00000548,-0.00001215,-0.00002166,0.0000
 0920,-0.00005738,-0.00000648,-0.00011715,-0.00001958,0.00001536,0.0002
 0072,-0.00001145,-0.00002334,-0.00002259,0.00009396,-0.00007986,0.0000
 9500,0.00055385,0.00058380,0.00057313,0.00018938,0.00036217,0.00031884
 ,0.00019200,-0.00007187,-0.00023170,0.00005942,0.00011051,0.00004742,0
 .00038531,0.00052016,0.00020998,0.00024156,-0.00008385,0.00007551,-0.0
 1180964,0.02048980,0.02053931,0.09351077,0.00000065,-0.00000228,-0.000
 00120,0.00000138,0.00000030,-0.00000151,-0.00000055,-0.00002053,-0.000
 00540,-0.00000009,0.00001574,-0.00000063,0.00001375,0.00000180,0.00000
 201,-0.00001884,-0.00002805,-0.00000834,0.00000242,0.00047073,0.000225
 41,0.00006869,-0.00080685,0.00145862,0.00026861,0.00001601,0.00018490,
 -0.00011058,-0.00001771,0.00007582,0.00072001,-0.00093858,0.00079397,-
 0.00551374,-0.00011204,-0.00452613,0.00486104,-0.04089448,-0.00724241,
 0.06466253,-0.14737348,-0.10335427,0.00010631,0.00842675,0.00627750,-0
 .00000001,-0.00000010,0.00000096,-0.00000092,0.00000261,0.00000093,0.0
 0000038,-0.00000015,-0.00000055,0.00000031,0.00000020,-0.00000107,-0.0
 0000073,0.00000238,0.00000310,-0.00000114,0.00000567,0.00000230,0.0000
 0054,-0.00000618,0.00000557,0.00000039,0.00000010,-0.00000216,-0.00000
 433,0.00000402,0.00000098,0.00000829,-0.00000441,-0.00000243,0.0000143
 4,0.00001530,0.00000256,-0.00002438,-0.00001236,-0.00002242,0.00004023
 ,-0.00003833,0.00022075,0.00015540,0.00006870,0.00020293,-0.00002471,0
 .00004882,-0.00008207,-0.00010580,0.00006113,0.00003062,0.00003659,0.0
 0003713,-0.00002836,0.00000837,0.00009454,-0.00012196,0.00036236,-0.00
 021428,-0.00039572,-0.00006905,0.00004796,0.00002326,0.00060553,0.0001
 6474,0.00035608,0.00040044,-0.00081946,0.00013830,0.00269138,0.0002137
 2,-0.00266252,-0.06829168,0.18083015,0.00000883,-0.00000127,-0.0000280
 9,-0.00004755,-0.00000091,0.00002161,0.00012135,-0.00000077,-0.0000649
 0,-0.00010582,-0.00000122,-0.00001824,-0.00015223,0.00001799,0.0000816
 6,0.00018999,-0.00007045,-0.00014883,0.00024078,-0.00174050,-0.0006827
 9,-0.00064726,0.00502021,-0.00346929,-0.00048406,0.00026410,0.00009649
 ,-0.00006150,0.00008671,-0.00005045,-0.00008692,0.00016886,-0.00020318
 ,0.00024050,0.00161259,-0.00006161,-0.00447936,0.00753726,0.01029831,0
 .06392238,-0.10594494,-0.15015204,0.01119701,-0.02049448,-0.02341055,-
 0.00001529,0.00000624,-0.00000720,-0.00000387,0.00000682,0.00000522,0.
 00000068,-0.00000406,0.00000443,0.00000128,-0.00000243,0.00000091,-0.0
 0000059,0.00000421,0.00000382,-0.00001729,0.00001404,0.00000857,0.0000
 4085,0.00000575,0.00001956,0.00001015,0.00000275,-0.00000651,0.0000113
 7,0.00000462,0.00002743,-0.00001386,-0.00000500,0.00000453,-0.00005670
 ,0.00007127,0.00001485,0.00002428,0.00002073,0.00004902,-0.00027058,0.
 00009345,-0.00068238,-0.00012151,-0.00004643,0.00025233,0.00006137,-0.
 00003362,-0.00000247,0.00009454,-0.00015047,-0.00005297,0.00012258,-0.
 00001783,0.00009803,0.00003939,-0.00000028,0.00010215,-0.00004893,-0.0
 0000782,0.00011095,0.00002115,0.00003310,-0.00000834,0.00001059,-0.000
 13886,-0.00018061,-0.00007178,0.00019434,-0.00006762,-0.00221308,0.003
 55401,0.00442130,-0.06733663,0.10976342,0.16242503,0.00000166,0.000002
 31,-0.00001143,-0.00002637,-0.00000928,0.00000443,0.00001016,-0.000033
 10,-0.00000089,0.00000080,0.00004807,-0.00004402,0.00001017,-0.0001623
 6,0.00000762,-0.00021253,0.00037737,-0.00022750,-0.00019000,-0.0004231
 0,0.00049408,-0.00017190,0.00022738,-0.00017370,0.00093458,0.00081397,
 -0.00054387,0.00007514,-0.00000528,-0.00004555,-0.00004026,0.00007665,
 0.00005335,0.00024288,0.00006813,0.00000126,0.00102543,0.00155641,-0.0
 0226183,0.00288896,0.00571769,-0.00261289,-0.15965352,-0.11699016,0.04
 100766,-0.00000571,0.00000232,-0.00000426,-0.00000344,0.00000069,0.000
 00361,0.00000519,0.00000108,0.00000364,0.00000425,0.00000805,-0.000007
 44,0.,0.00000416,0.00000158,-0.00000548,-0.00000246,0.00001132,0.00001
 308,-0.00000455,0.00001289,0.00000617,0.00004722,-0.00006588,-0.000006
 53,0.00001169,-0.00006262,0.00012484,0.00008272,0.00008873,-0.00002794
 ,-0.00025202,-0.00000492,0.00013343,0.00018706,-0.00063104,0.00012592,
 0.00021334,-0.00019967,0.00112705,0.00035360,-0.00024572,0.00042381,-0
 .00047321,-0.00014359,0.00010087,-0.00005333,-0.00012116,-0.00002063,-
 0.00003670,0.00001340,-0.00001919,-0.00006074,0.00000032,0.00000869,-0
 .00000470,0.00002242,-0.00001271,0.00002653,-0.00002151,0.00001761,-0.
 00003623,0.00001909,-0.00007573,0.00008579,0.00001188,0.00118480,0.000
 27103,0.00045558,0.00007282,-0.00033047,0.00030208,0.17189457,0.000000
 18,0.00000089,-0.00000681,-0.00001289,-0.00000003,0.00000366,0.0000079
 8,-0.00002181,-0.00001405,-0.00000858,0.00002829,-0.00002032,-0.000047
 74,0.00004293,0.00001911,0.00007710,-0.00007201,-0.00007746,0.00030495
 ,0.00029766,0.00135638,-0.01716631,-0.01916497,0.00531039,-0.00113994,
 0.00097556,0.00124280,0.00000926,-0.00027213,-0.00008394,-0.00008437,-
 0.00003379,-0.00010254,-0.00088561,0.00070018,0.00012774,0.00061619,-0
 .00145380,0.00292322,-0.00781120,-0.00821600,0.00093222,-0.11583419,-0
 .16632023,0.04189164,-0.00000368,0.00000148,-0.00000228,-0.00000078,0.
 00000071,0.00000131,0.00000243,-0.00000021,0.00000164,0.00000139,0.000
 00368,-0.00000202,-0.00000065,-0.00000006,0.00000100,-0.00000249,0.000
 00519,0.00000265,0.00000979,-0.00000749,0.00001629,-0.00000626,0.00001
 807,-0.00002464,-0.00000700,0.00000823,0.00001040,0.00016126,-0.000009
 85,0.00000767,-0.00003765,0.00002419,0.00001567,0.00007351,0.00074030,
 -0.00069039,0.00027929,0.00027734,-0.00001066,0.00007085,-0.00319523,-
 0.00377366,0.00099572,0.00012286,-0.00049302,0.00016896,0.00052033,-0.
 00002618,0.00012045,-0.00004139,0.00016777,0.00009943,0.00003440,0.000
 02637,0.00011506,-0.00000604,-0.00000642,0.00006353,0.00015819,0.00004
 944,0.00014257,-0.00008608,0.00010301,0.00013528,-0.00020610,0.0000268
 1,0.00051066,0.00049314,-0.00040225,0.00007180,-0.00016897,0.00067416,
 0.12983192,0.18477435,0.00000060,0.00000131,-0.00000333,-0.00000734,0.
 00000042,0.00000310,0.00000976,0.00000213,-0.00001333,-0.00000635,0.00
 000087,-0.00000309,-0.00002375,0.00001558,0.00001845,-0.00007060,0.000
 14917,-0.00006289,-0.00041733,-0.00099617,0.00183940,-0.01618631,-0.01
 690329,0.00421824,-0.00074263,0.00078628,0.00112650,0.00017955,0.00017
 815,-0.00004485,-0.00022549,-0.00012395,-0.00004851,0.00169517,-0.0009
 8103,-0.00098095,-0.00156035,0.00433861,-0.00544585,0.02034844,0.02028
 847,-0.00381171,0.03998511,0.04145576,-0.06192781,-0.00000177,0.000000
 72,-0.00000087,0.00000010,0.00000030,0.00000013,0.00000015,-0.00000084
 ,0.00000043,-0.00000038,0.00000031,0.00000033,-0.00000009,-0.00000059,
 -0.00000018,0.00000156,0.00000085,0.00000014,0.00000555,-0.00000020,0.
 00000439,-0.00000586,0.00001326,-0.00002427,-0.00000216,-0.00000741,-0
 .00000859,0.00013648,0.00002994,0.00001392,0.00001572,0.00002172,-0.00
 000666,0.00032676,0.00053672,-0.00021384,0.00022577,0.00022170,0.00016
 986,-0.00003758,-0.00352695,-0.00344916,0.00040084,0.00038814,0.000006
 97,-0.00012987,0.00028987,0.00004071,-0.00000369,0.00000724,-0.0000369
 0,-0.00001772,-0.00007087,0.00009002,-0.00000165,0.00005418,0.00009866
 ,0.00004109,0.00007169,0.00006747,-0.00022252,0.00025075,-0.00009710,-
 0.00034837,0.00048458,-0.00012453,-0.00032939,0.00039044,0.00157829,-0
 .00026101,-0.00151958,-0.00031458,-0.04261468,-0.04555203,0.06769010,0
 .00000395,0.00000412,-0.00000273,-0.00000194,-0.00001145,0.00000204,0.
 00008407,0.00001510,0.00007574,-0.00006467,-0.00002845,-0.00002209,0.0
 0019446,-0.00033788,-0.00019604,-0.00065787,0.00025688,-0.00110686,-0.
 00037578,0.00068971,-0.00028290,-0.00036556,-0.00003950,0.00106780,0.0
 0132529,0.00026505,0.00004744,0.00003222,-0.00017324,0.00000989,-0.000
 04471,-0.00002967,0.00002917,0.00017067,-0.00011036,0.00000637,0.00068
 664,0.00091037,-0.00030343,-0.00663277,0.00157318,-0.00089370,-0.25731
 823,0.09909663,-0.00100945,-0.00000651,0.00000313,-0.00000789,0.000001
 68,-0.00000256,0.00000085,-0.00000038,-0.00000303,0.00000387,-0.000001
 98,-0.00000162,0.00000620,-0.00000225,-0.00000337,-0.00000822,0.000023
 80,-0.00001759,-0.00000222,0.00001985,0.00001271,0.00000257,-0.0000067
 3,0.00001213,0.00002900,-0.00008083,0.00002465,-0.00021478,-0.00004771
 ,-0.00014513,0.00000421,-0.00006896,-0.00063037,-0.00163509,-0.0000830
 7,0.00001499,0.00008263,0.00003332,-0.00014470,0.00016403,0.00061873,0
 .00035502,0.00029526,0.00029167,-0.00011814,-0.00023311,-0.00014908,0.
 00023990,-0.00010944,0.00009368,-0.00005420,0.00004953,-0.00001963,0.0
 0004612,0.00000481,0.00000264,0.00002771,-0.00002064,0.00001630,0.0000
 1471,0.00000834,-0.00000552,-0.00011222,0.00003501,0.00001716,0.000058
 69,-0.00001682,0.00140308,0.00028195,-0.00138951,0.00127318,-0.0005329
 1,-0.00042629,-0.01996094,0.00917978,-0.00015578,0.27960277,-0.0000058
 2,-0.00000101,0.00001575,0.00002339,0.00000520,-0.00001326,-0.00009488
 ,0.00005249,-0.00005677,0.00006675,-0.00002730,0.00006063,-0.00026502,
 0.00030809,0.00007206,0.00033456,-0.00015963,0.00019862,0.00051322,0.0
 0048857,0.00086292,0.02408169,-0.01228318,-0.00198486,-0.00233619,-0.0
 0279590,-0.00364264,-0.00029176,0.00027048,-0.00016979,0.00007180,0.00
 016807,0.00001978,0.00003180,-0.00026543,-0.00014837,-0.00056228,0.000
 60190,0.00014516,0.01093847,-0.00455451,0.00023914,0.09893699,-0.09611
 298,0.00220437,0.00001086,-0.00000582,0.00000938,0.00000252,-0.0000002
 4,-0.00000383,-0.00000410,0.00000170,-0.00000669,-0.00000145,-0.000004
 07,0.00000250,0.00000164,-0.00000064,0.00000346,-0.00000182,0.00000886
 ,-0.00001025,-0.00003020,-0.00001097,-0.00001446,0.00000107,-0.0000612
 0,0.00007634,0.00007702,-0.00003595,0.00019398,-0.00010041,-0.00012294
 ,-0.00007864,-0.00011686,0.00086243,0.00027966,-0.00013938,0.00008481,
 -0.00011538,-0.00002345,-0.00004359,0.00021395,-0.00006691,0.00053733,
 0.00068876,0.00019629,0.00014363,-0.00014639,0.00157972,-0.00066250,-0
 .00062032,0.00000874,-0.00004187,0.00012036,0.00002435,-0.00006634,0.0
 0008891,-0.00002569,-0.00004150,0.00006299,0.00001042,0.00000521,-0.00
 002860,-0.00010505,0.00009215,-0.00003170,-0.00003907,-0.00004382,0.00
 000672,0.00005537,0.00059404,0.00159164,-0.00103272,0.00092970,-0.0004
 9529,-0.02113748,0.01004820,-0.00029625,-0.11058613,0.10213853,-0.0000
 1185,-0.00000347,0.00002937,0.00004514,0.00000962,-0.00002753,-0.00017
 969,-0.00000670,-0.00000065,0.00013516,0.00002387,0.00002961,-0.000127
 93,0.00042259,-0.00002916,-0.00019335,-0.00109918,-0.00135644,0.001040
 43,-0.00011380,0.00053027,0.02133184,-0.01018677,-0.00171211,-0.001767
 68,-0.00337044,-0.00314361,-0.00025956,-0.00000346,-0.00034289,0.00010
 191,-0.00004589,-0.00002473,0.00004772,-0.00011630,-0.00015241,0.00081
 609,-0.00081021,0.00019008,-0.03169510,0.01308458,-0.00645935,-0.00079
 053,0.00192088,-0.04383605,0.00001932,-0.00000806,0.00001141,0.0000021
 0,-0.00000370,-0.00000492,-0.00000113,0.00000563,-0.00000611,0.0000004
 3,0.00000091,-0.00000426,0.00000416,-0.00000027,0.00000509,-0.00001657
 ,0.00001296,-0.00000800,-0.00004494,-0.00001918,-0.00001369,0.00000773
 ,-0.00004012,0.00001662,0.00007264,-0.00001796,0.00020354,-0.00003783,
 0.00013542,0.00013482,-0.00156911,0.00053641,-0.00124563,-0.00000239,0
 .00012517,-0.00011011,-0.00007401,0.00015161,0.00033214,-0.00050426,0.
 00040783,0.00080160,-0.00027285,0.00018979,0.00012239,0.00127849,-0.00
 104930,-0.00038676,0.00020119,0.00002896,0.00007582,0.00009030,0.00003
 094,0.00020220,-0.00001960,-0.00003011,0.00005823,0.00001383,0.0000518
 6,0.00003725,0.00019479,-0.00008145,0.00020285,0.00007776,0.00015416,0
 .00012579,-0.00123876,0.00242071,-0.00547496,-0.00031539,0.00020874,0.
 00156643,0.00752923,-0.00362269,-0.00034812,0.00611227,0.00070639,0.06
 001196\\0.00000455,-0.00000263,-0.00000341,-0.00000590,-0.00000191,0.0
 0000102,0.00000335,0.00000440,-0.00000241,-0.00000012,-0.00000304,0.00
 000058,-0.00000597,-0.00000477,0.00001096,0.00001448,0.00000569,-0.000
 01576,-0.00001400,0.00000533,-0.00000225,0.00000895,0.00000200,0.00000
 634,-0.00000887,-0.00000163,0.00000777,0.00000821,0.00000860,-0.000007
 68,-0.00000363,-0.00000679,0.00000037,-0.00000319,0.00000863,-0.000006
 11,0.00001365,0.00001065,0.00001335,-0.00001098,-0.00002092,-0.0000014
 8,0.00000019,0.00000506,-0.00000103,0.00000009,-0.00000112,-0.00000005
 ,-0.00000228,-0.00000125,0.00000020,-0.00000094,-0.00000138,-0.0000006
 8,0.00000162,-0.00000054,-0.00000166,0.00000213,-0.00000151,-0.0000020
 4,0.00000022,-0.00000068,-0.00000136,0.00000091,0.00000062,-0.00000132
 ,0.00000267,0.00000022,-0.00000320,-0.00000034,-0.00000060,-0.00000210
 ,0.00000196,-0.00000430,0.00000461,-0.00000934,-0.00000213,0.00000250,
 0.00000169,-0.00000104,0.00000121,-0.00000030,-0.00000049,-0.00000260,
 0.00000171,0.00000191,-0.00000276,0.00000169,0.00000048,-0.00000122,0.
 00000199,-0.00000201,-0.00000122,-0.00000133,0.00000010,0.00000073,0.0
 0000297,0.00000245,0.00000288,-0.00000259,0.00000141,0.00000244,0.0000
 0346,0.00000044,-0.00000125,0.00000030,0.00000114,0.00000195,-0.000002
 18,0.00000108,-0.00000072,-0.00000043,0.00000154,0.00000619,-0.0000027
 9,-0.00000005,0.00000262,-0.00000119,-0.00000339,-0.00000304,-0.000000
 41,0.00000045,-0.00000036\\\@


 "A LITTLE BIT GOES A LONG WAY"
 R.S. MULLIKEN AS QUOTED BY K. RUEDENBERG
 Job cpu time:       0 days 13 hours 44 minutes 11.8 seconds.
 Elapsed time:       0 days  3 hours 26 minutes  4.7 seconds.
 File lengths (MBytes):  RWF=    868 Int=      0 D2E=      0 Chk=     26 Scr=      1
 Normal termination of Gaussian 16 at Thu May 25 04:06:19 2023.
### All Done ###
