### Starting Gaussian ###
 Entering Gaussian System, Link 0=g16
 Initial command:
 /cluster/software/gaussian/gaussian-16-A.03/avx2/g16/l1.exe "/local/scratch/ks29c/Gau-13901.inp" -scrdir="/local/scratch/ks29c/"
 Entering Link 1 = /cluster/software/gaussian/gaussian-16-A.03/avx2/g16/l1.exe PID=     13902.
  
 Copyright (c) 1988,1990,1992,1993,1995,1998,2003,2009,2016,
            Gaussian, Inc.  All Rights Reserved.
  
 This is part of the Gaussian(R) 16 program.  It is based on
 the Gaussian(R) 09 system (copyright 2009, Gaussian, Inc.),
 the Gaussian(R) 03 system (copyright 2003, Gaussian, Inc.),
 the Gaussian(R) 98 system (copyright 1998, Gaussian, Inc.),
 the Gaussian(R) 94 system (copyright 1995, Gaussian, Inc.),
 the Gaussian 92(TM) system (copyright 1992, Gaussian, Inc.),
 the Gaussian 90(TM) system (copyright 1990, Gaussian, Inc.),
 the Gaussian 88(TM) system (copyright 1988, Gaussian, Inc.),
 the Gaussian 86(TM) system (copyright 1986, Carnegie Mellon
 University), and the Gaussian 82(TM) system (copyright 1983,
 Carnegie Mellon University). Gaussian is a federally registered
 trademark of Gaussian, Inc.
  
 This software contains proprietary and confidential information,
 including trade secrets, belonging to Gaussian, Inc.
  
 This software is provided under written license and may be
 used, copied, transmitted, or stored only in accord with that
 written license.
  
 The following legend is applicable only to US Government
 contracts under FAR:
  
                    RESTRICTED RIGHTS LEGEND
  
 Use, reproduction and disclosure by the US Government is
 subject to restrictions as set forth in subparagraphs (a)
 and (c) of the Commercial Computer Software - Restricted
 Rights clause in FAR 52.227-19.
  
 Gaussian, Inc.
 340 Quinnipiac St., Bldg. 40, Wallingford CT 06492
  
  
 ---------------------------------------------------------------
 Warning -- This program may not be used in any manner that
 competes with the business of Gaussian, Inc. or will provide
 assistance to any competitor of Gaussian, Inc.  The licensee
 of this program is prohibited from giving any competitor of
 Gaussian, Inc. access to this program.  By using this program,
 the user acknowledges that Gaussian, Inc. is engaged in the
 business of creating and licensing software in the field of
 computational chemistry and represents and warrants to the
 licensee that it is not a competitor of Gaussian, Inc. and that
 it will not use this program in any manner prohibited above.
 ---------------------------------------------------------------
  

 Cite this work as:
 Gaussian 16, Revision A.03,
 M. J. Frisch, G. W. Trucks, H. B. Schlegel, G. E. Scuseria, 
 M. A. Robb, J. R. Cheeseman, G. Scalmani, V. Barone, 
 G. A. Petersson, H. Nakatsuji, X. Li, M. Caricato, A. V. Marenich, 
 J. Bloino, B. G. Janesko, R. Gomperts, B. Mennucci, H. P. Hratchian, 
 J. V. Ortiz, A. F. Izmaylov, J. L. Sonnenberg, D. Williams-Young, 
 F. Ding, F. Lipparini, F. Egidi, J. Goings, B. Peng, A. Petrone, 
 T. Henderson, D. Ranasinghe, V. G. Zakrzewski, J. Gao, N. Rega, 
 G. Zheng, W. Liang, M. Hada, M. Ehara, K. Toyota, R. Fukuda, 
 J. Hasegawa, M. Ishida, T. Nakajima, Y. Honda, O. Kitao, H. Nakai, 
 T. Vreven, K. Throssell, J. A. Montgomery, Jr., J. E. Peralta, 
 F. Ogliaro, M. J. Bearpark, J. J. Heyd, E. N. Brothers, K. N. Kudin, 
 V. N. Staroverov, T. A. Keith, R. Kobayashi, J. Normand, 
 K. Raghavachari, A. P. Rendell, J. C. Burant, S. S. Iyengar, 
 J. Tomasi, M. Cossi, J. M. Millam, M. Klene, C. Adamo, R. Cammi, 
 J. W. Ochterski, R. L. Martin, K. Morokuma, O. Farkas, 
 J. B. Foresman, and D. J. Fox, Gaussian, Inc., Wallingford CT, 2016.
 
 ******************************************
 Gaussian 16:  ES64L-G16RevA.03 25-Dec-2016
                22-May-2023 
 ******************************************
 %chk=CCCqCrNNCCqOCrNqOrCN.chk
 %NProcShared=20
 Will use up to   20 processors via shared memory.
 -----------------------------
 # opt freq b3lyp/6-31g(2df,p)
 -----------------------------
 1/18=20,19=15,26=3,38=1/1,3;
 2/9=110,12=2,17=6,18=5,40=1/2;
 3/5=1,6=6,7=104,11=2,25=1,30=1,71=1,74=-5/1,2,3;
 4//1;
 5/5=2,38=5/2;
 6/7=2,8=2,9=2,10=2,28=1/1;
 7//1,2,3,16;
 1/18=20,19=15,26=3/3(2);
 2/9=110/2;
 99//99;
 2/9=110/2;
 3/5=1,6=6,7=104,11=2,25=1,30=1,71=1,74=-5/1,2,3;
 4/5=5,16=3,69=1/1;
 5/5=2,38=5/2;
 7//1,2,3,16;
 1/18=20,19=15,26=3/3(-5);
 2/9=110/2;
 6/7=2,8=2,9=2,10=2,19=2,28=1/1;
 99/9=1/99;
 -------------------
 Title Card Required
 -------------------
 Symbolic Z-matrix:
 Charge =  0 Multiplicity = 1
 C                     1.03671  -0.11418   0.06524 
 C                     2.55691  -0.07369   0.05956 
 C                     3.10054   1.1183   -0.73368 
 C                     2.60867   2.44648  -0.1143 
 N                     4.58121   0.99784  -0.75983 
 N                     5.08316   2.06249  -1.58159 
 C                     6.53923   2.21749  -1.4845 
 C                     7.02945   3.49885  -2.26181 
 O                     6.59683   4.7218   -1.63127 
 C                     5.22257   5.05428  -1.7526 
 N                     8.51484   3.48738  -2.29979 
 O                     8.86732   2.29057  -3.06892 
 C                     9.0056    4.61831  -3.0814 
 N                     10.45877   4.59239  -3.06688 
 H                     0.6848   -1.00131   0.59542 
 H                     0.64942  -0.13807  -0.95842 
 H                     0.60875   0.75454   0.57339 
 H                     2.92842  -1.00834  -0.37894 
 H                     2.92532  -0.03464   1.09264 
 H                     2.72558   1.05905  -1.76557 
 H                     2.97407   2.56866   0.91076 
 H                     1.51744   2.50579  -0.09971 
 H                     2.90982   3.3216   -0.69469 
 H                     4.82566   0.08558  -1.1711 
 H                     4.73935   2.91416  -1.14329 
 H                     6.98951   1.31049  -1.90552 
 H                     6.8442    2.30407  -0.43365 
 H                     6.64598   3.46856  -3.29265 
 H                     5.09229   6.13114  -1.63051 
 H                     4.67224   4.63447  -0.91035 
 H                     4.79208   4.74465  -2.71096 
 H                     9.10727   1.66893  -2.3563 
 H                     8.68585   5.56979  -2.64147 
 H                     8.64655   4.58544  -4.11605 
 H                     10.74836   4.66213  -2.09479 
 H                     10.79924   5.42931  -3.53299 
 

 GradGradGradGradGradGradGradGradGradGradGradGradGradGradGradGradGradGrad
 Berny optimization.
 Initialization pass.
                           ----------------------------
                           !    Initial Parameters    !
                           ! (Angstroms and Degrees)  !
 --------------------------                            --------------------------
 ! Name  Definition              Value          Derivative Info.                !
 --------------------------------------------------------------------------------
 ! R1    R(1,2)                  1.5207         estimate D2E/DX2                !
 ! R2    R(1,15)                 1.0918         estimate D2E/DX2                !
 ! R3    R(1,16)                 1.0947         estimate D2E/DX2                !
 ! R4    R(1,17)                 1.0936         estimate D2E/DX2                !
 ! R5    R(2,3)                  1.5315         estimate D2E/DX2                !
 ! R6    R(2,18)                 1.0972         estimate D2E/DX2                !
 ! R7    R(2,19)                 1.0975         estimate D2E/DX2                !
 ! R8    R(3,4)                  1.5458         estimate D2E/DX2                !
 ! R9    R(3,5)                  1.4858         estimate D2E/DX2                !
 ! R10   R(3,20)                 1.0995         estimate D2E/DX2                !
 ! R11   R(4,21)                 1.0951         estimate D2E/DX2                !
 ! R12   R(4,22)                 1.0929         estimate D2E/DX2                !
 ! R13   R(4,23)                 1.0924         estimate D2E/DX2                !
 ! R14   R(5,6)                  1.4355         estimate D2E/DX2                !
 ! R15   R(5,24)                 1.0301         estimate D2E/DX2                !
 ! R16   R(6,7)                  1.4675         estimate D2E/DX2                !
 ! R17   R(6,25)                 1.0177         estimate D2E/DX2                !
 ! R18   R(7,8)                  1.5768         estimate D2E/DX2                !
 ! R19   R(7,26)                 1.0967         estimate D2E/DX2                !
 ! R20   R(7,27)                 1.0976         estimate D2E/DX2                !
 ! R21   R(8,9)                  1.4423         estimate D2E/DX2                !
 ! R22   R(8,11)                 1.4859         estimate D2E/DX2                !
 ! R23   R(8,28)                 1.1003         estimate D2E/DX2                !
 ! R24   R(9,10)                 1.4191         estimate D2E/DX2                !
 ! R25   R(10,29)                1.0916         estimate D2E/DX2                !
 ! R26   R(10,30)                1.0902         estimate D2E/DX2                !
 ! R27   R(10,31)                1.0953         estimate D2E/DX2                !
 ! R28   R(11,12)                1.4657         estimate D2E/DX2                !
 ! R29   R(11,13)                1.4597         estimate D2E/DX2                !
 ! R30   R(12,32)                0.9756         estimate D2E/DX2                !
 ! R31   R(13,14)                1.4535         estimate D2E/DX2                !
 ! R32   R(13,33)                1.0959         estimate D2E/DX2                !
 ! R33   R(13,34)                1.0957         estimate D2E/DX2                !
 ! R34   R(14,35)                1.0167         estimate D2E/DX2                !
 ! R35   R(14,36)                1.0167         estimate D2E/DX2                !
 ! A1    A(2,1,15)             110.2225         estimate D2E/DX2                !
 ! A2    A(2,1,16)             110.5323         estimate D2E/DX2                !
 ! A3    A(2,1,17)             111.8244         estimate D2E/DX2                !
 ! A4    A(15,1,16)            108.8037         estimate D2E/DX2                !
 ! A5    A(15,1,17)            107.0786         estimate D2E/DX2                !
 ! A6    A(16,1,17)            108.2626         estimate D2E/DX2                !
 ! A7    A(1,2,3)              112.178          estimate D2E/DX2                !
 ! A8    A(1,2,18)             108.4988         estimate D2E/DX2                !
 ! A9    A(1,2,19)             109.4504         estimate D2E/DX2                !
 ! A10   A(3,2,18)             109.6215         estimate D2E/DX2                !
 ! A11   A(3,2,19)             109.919          estimate D2E/DX2                !
 ! A12   A(18,2,19)            107.0281         estimate D2E/DX2                !
 ! A13   A(2,3,4)              110.3798         estimate D2E/DX2                !
 ! A14   A(2,3,5)              107.4425         estimate D2E/DX2                !
 ! A15   A(2,3,20)             108.8503         estimate D2E/DX2                !
 ! A16   A(4,3,5)              113.1913         estimate D2E/DX2                !
 ! A17   A(4,3,20)             108.2899         estimate D2E/DX2                !
 ! A18   A(5,3,20)             108.6003         estimate D2E/DX2                !
 ! A19   A(3,4,21)             111.392          estimate D2E/DX2                !
 ! A20   A(3,4,22)             111.695          estimate D2E/DX2                !
 ! A21   A(3,4,23)             112.8113         estimate D2E/DX2                !
 ! A22   A(21,4,22)            108.3369         estimate D2E/DX2                !
 ! A23   A(21,4,23)            108.4185         estimate D2E/DX2                !
 ! A24   A(22,4,23)            103.8194         estimate D2E/DX2                !
 ! A25   A(3,5,6)              107.3618         estimate D2E/DX2                !
 ! A26   A(3,5,24)             108.3798         estimate D2E/DX2                !
 ! A27   A(6,5,24)             110.1985         estimate D2E/DX2                !
 ! A28   A(5,6,7)              112.7927         estimate D2E/DX2                !
 ! A29   A(5,6,25)             104.8324         estimate D2E/DX2                !
 ! A30   A(7,6,25)             102.6104         estimate D2E/DX2                !
 ! A31   A(6,7,8)              111.2034         estimate D2E/DX2                !
 ! A32   A(6,7,26)             107.1358         estimate D2E/DX2                !
 ! A33   A(6,7,27)             110.3253         estimate D2E/DX2                !
 ! A34   A(8,7,26)             110.8045         estimate D2E/DX2                !
 ! A35   A(8,7,27)             108.7518         estimate D2E/DX2                !
 ! A36   A(26,7,27)            108.5847         estimate D2E/DX2                !
 ! A37   A(7,8,9)              112.3497         estimate D2E/DX2                !
 ! A38   A(7,8,11)             108.4879         estimate D2E/DX2                !
 ! A39   A(7,8,28)             109.3371         estimate D2E/DX2                !
 ! A40   A(9,8,11)             108.5151         estimate D2E/DX2                !
 ! A41   A(9,8,28)             109.1706         estimate D2E/DX2                !
 ! A42   A(11,8,28)            108.9195         estimate D2E/DX2                !
 ! A43   A(8,9,10)             116.8554         estimate D2E/DX2                !
 ! A44   A(9,10,29)            109.7034         estimate D2E/DX2                !
 ! A45   A(9,10,30)            109.4255         estimate D2E/DX2                !
 ! A46   A(9,10,31)            112.9046         estimate D2E/DX2                !
 ! A47   A(29,10,30)           103.4876         estimate D2E/DX2                !
 ! A48   A(29,10,31)           109.2592         estimate D2E/DX2                !
 ! A49   A(30,10,31)           111.6372         estimate D2E/DX2                !
 ! A50   A(8,11,12)            105.0774         estimate D2E/DX2                !
 ! A51   A(8,11,13)            110.1079         estimate D2E/DX2                !
 ! A52   A(12,11,13)           105.712          estimate D2E/DX2                !
 ! A53   A(11,12,32)           101.3113         estimate D2E/DX2                !
 ! A54   A(11,13,14)           108.4796         estimate D2E/DX2                !
 ! A55   A(11,13,33)           111.0759         estimate D2E/DX2                !
 ! A56   A(11,13,34)           111.8524         estimate D2E/DX2                !
 ! A57   A(14,13,33)           107.648          estimate D2E/DX2                !
 ! A58   A(14,13,34)           109.6655         estimate D2E/DX2                !
 ! A59   A(33,13,34)           108.0289         estimate D2E/DX2                !
 ! A60   A(13,14,35)           107.0437         estimate D2E/DX2                !
 ! A61   A(13,14,36)           108.3945         estimate D2E/DX2                !
 ! A62   A(35,14,36)           106.6484         estimate D2E/DX2                !
 ! D1    D(15,1,2,3)           177.1706         estimate D2E/DX2                !
 ! D2    D(15,1,2,18)           55.9202         estimate D2E/DX2                !
 ! D3    D(15,1,2,19)          -60.544          estimate D2E/DX2                !
 ! D4    D(16,1,2,3)            56.8546         estimate D2E/DX2                !
 ! D5    D(16,1,2,18)          -64.3958         estimate D2E/DX2                !
 ! D6    D(16,1,2,19)          179.14           estimate D2E/DX2                !
 ! D7    D(17,1,2,3)           -63.8392         estimate D2E/DX2                !
 ! D8    D(17,1,2,18)          174.9104         estimate D2E/DX2                !
 ! D9    D(17,1,2,19)           58.4462         estimate D2E/DX2                !
 ! D10   D(1,2,3,4)             60.4468         estimate D2E/DX2                !
 ! D11   D(1,2,3,5)           -175.6998         estimate D2E/DX2                !
 ! D12   D(1,2,3,20)           -58.2768         estimate D2E/DX2                !
 ! D13   D(18,2,3,4)          -178.9502         estimate D2E/DX2                !
 ! D14   D(18,2,3,5)           -55.0969         estimate D2E/DX2                !
 ! D15   D(18,2,3,20)           62.3261         estimate D2E/DX2                !
 ! D16   D(19,2,3,4)           -61.5719         estimate D2E/DX2                !
 ! D17   D(19,2,3,5)            62.2815         estimate D2E/DX2                !
 ! D18   D(19,2,3,20)          179.7045         estimate D2E/DX2                !
 ! D19   D(2,3,4,21)            62.2378         estimate D2E/DX2                !
 ! D20   D(2,3,4,22)           -59.0603         estimate D2E/DX2                !
 ! D21   D(2,3,4,23)          -175.5615         estimate D2E/DX2                !
 ! D22   D(5,3,4,21)           -58.2285         estimate D2E/DX2                !
 ! D23   D(5,3,4,22)          -179.5266         estimate D2E/DX2                !
 ! D24   D(5,3,4,23)            63.9722         estimate D2E/DX2                !
 ! D25   D(20,3,4,21)         -178.6975         estimate D2E/DX2                !
 ! D26   D(20,3,4,22)           60.0045         estimate D2E/DX2                !
 ! D27   D(20,3,4,23)          -56.4967         estimate D2E/DX2                !
 ! D28   D(2,3,5,6)            176.0433         estimate D2E/DX2                !
 ! D29   D(2,3,5,24)            57.0253         estimate D2E/DX2                !
 ! D30   D(4,3,5,6)            -61.8347         estimate D2E/DX2                !
 ! D31   D(4,3,5,24)           179.1473         estimate D2E/DX2                !
 ! D32   D(20,3,5,6)            58.4576         estimate D2E/DX2                !
 ! D33   D(20,3,5,24)          -60.5604         estimate D2E/DX2                !
 ! D34   D(3,5,6,7)            168.9016         estimate D2E/DX2                !
 ! D35   D(3,5,6,25)            58.0313         estimate D2E/DX2                !
 ! D36   D(24,5,6,7)           -73.2562         estimate D2E/DX2                !
 ! D37   D(24,5,6,25)          175.8735         estimate D2E/DX2                !
 ! D38   D(5,6,7,8)           -173.2008         estimate D2E/DX2                !
 ! D39   D(5,6,7,26)            65.5823         estimate D2E/DX2                !
 ! D40   D(5,6,7,27)           -52.4432         estimate D2E/DX2                !
 ! D41   D(25,6,7,8)           -60.957          estimate D2E/DX2                !
 ! D42   D(25,6,7,26)          177.8261         estimate D2E/DX2                !
 ! D43   D(25,6,7,27)           59.8006         estimate D2E/DX2                !
 ! D44   D(6,7,8,9)             68.4546         estimate D2E/DX2                !
 ! D45   D(6,7,8,11)          -171.5784         estimate D2E/DX2                !
 ! D46   D(6,7,8,28)           -52.9153         estimate D2E/DX2                !
 ! D47   D(26,7,8,9)          -172.5018         estimate D2E/DX2                !
 ! D48   D(26,7,8,11)          -52.5348         estimate D2E/DX2                !
 ! D49   D(26,7,8,28)           66.1283         estimate D2E/DX2                !
 ! D50   D(27,7,8,9)           -53.2244         estimate D2E/DX2                !
 ! D51   D(27,7,8,11)           66.7426         estimate D2E/DX2                !
 ! D52   D(27,7,8,28)         -174.5943         estimate D2E/DX2                !
 ! D53   D(7,8,9,10)           -73.0679         estimate D2E/DX2                !
 ! D54   D(11,8,9,10)          166.9808         estimate D2E/DX2                !
 ! D55   D(28,8,9,10)           48.3971         estimate D2E/DX2                !
 ! D56   D(7,8,11,12)           63.221          estimate D2E/DX2                !
 ! D57   D(7,8,11,13)          176.6298         estimate D2E/DX2                !
 ! D58   D(9,8,11,12)         -174.4479         estimate D2E/DX2                !
 ! D59   D(9,8,11,13)          -61.0391         estimate D2E/DX2                !
 ! D60   D(28,8,11,12)         -55.7056         estimate D2E/DX2                !
 ! D61   D(28,8,11,13)          57.7032         estimate D2E/DX2                !
 ! D62   D(8,9,10,29)         -156.2635         estimate D2E/DX2                !
 ! D63   D(8,9,10,30)           90.845          estimate D2E/DX2                !
 ! D64   D(8,9,10,31)          -34.1463         estimate D2E/DX2                !
 ! D65   D(8,11,12,32)        -101.0262         estimate D2E/DX2                !
 ! D66   D(13,11,12,32)        142.5089         estimate D2E/DX2                !
 ! D67   D(8,11,13,14)         178.5651         estimate D2E/DX2                !
 ! D68   D(8,11,13,33)          60.4423         estimate D2E/DX2                !
 ! D69   D(8,11,13,34)         -60.3492         estimate D2E/DX2                !
 ! D70   D(12,11,13,14)        -68.4337         estimate D2E/DX2                !
 ! D71   D(12,11,13,33)        173.4434         estimate D2E/DX2                !
 ! D72   D(12,11,13,34)         52.6519         estimate D2E/DX2                !
 ! D73   D(11,13,14,35)        -59.8127         estimate D2E/DX2                !
 ! D74   D(11,13,14,36)       -174.5047         estimate D2E/DX2                !
 ! D75   D(33,13,14,35)         60.4659         estimate D2E/DX2                !
 ! D76   D(33,13,14,36)        -54.2261         estimate D2E/DX2                !
 ! D77   D(34,13,14,35)        177.7623         estimate D2E/DX2                !
 ! D78   D(34,13,14,36)         63.0703         estimate D2E/DX2                !
 --------------------------------------------------------------------------------
 Trust Radius=3.00D-01 FncErr=1.00D-07 GrdErr=1.00D-06 EigMax=2.50D+02 EigMin=1.00D-04
 Number of steps in this run=    185 maximum allowed number of steps=    216.
 GradGradGradGradGradGradGradGradGradGradGradGradGradGradGradGradGradGrad

                          Input orientation:                          
 ---------------------------------------------------------------------
 Center     Atomic      Atomic             Coordinates (Angstroms)
 Number     Number       Type             X           Y           Z
 ---------------------------------------------------------------------
      1          6           0        1.036710   -0.114180    0.065240
      2          6           0        2.556910   -0.073690    0.059560
      3          6           0        3.100540    1.118300   -0.733680
      4          6           0        2.608670    2.446480   -0.114300
      5          7           0        4.581210    0.997840   -0.759830
      6          7           0        5.083160    2.062490   -1.581590
      7          6           0        6.539230    2.217490   -1.484500
      8          6           0        7.029450    3.498850   -2.261810
      9          8           0        6.596830    4.721800   -1.631270
     10          6           0        5.222570    5.054280   -1.752600
     11          7           0        8.514840    3.487380   -2.299790
     12          8           0        8.867320    2.290570   -3.068920
     13          6           0        9.005600    4.618310   -3.081400
     14          7           0       10.458770    4.592390   -3.066880
     15          1           0        0.684800   -1.001310    0.595420
     16          1           0        0.649420   -0.138070   -0.958420
     17          1           0        0.608750    0.754540    0.573390
     18          1           0        2.928420   -1.008340   -0.378940
     19          1           0        2.925320   -0.034640    1.092640
     20          1           0        2.725580    1.059050   -1.765570
     21          1           0        2.974070    2.568660    0.910760
     22          1           0        1.517440    2.505790   -0.099710
     23          1           0        2.909820    3.321600   -0.694690
     24          1           0        4.825660    0.085580   -1.171100
     25          1           0        4.739350    2.914160   -1.143290
     26          1           0        6.989510    1.310490   -1.905520
     27          1           0        6.844200    2.304070   -0.433650
     28          1           0        6.645980    3.468560   -3.292650
     29          1           0        5.092290    6.131140   -1.630510
     30          1           0        4.672240    4.634470   -0.910350
     31          1           0        4.792080    4.744650   -2.710960
     32          1           0        9.107270    1.668930   -2.356300
     33          1           0        8.685850    5.569790   -2.641470
     34          1           0        8.646550    4.585440   -4.116050
     35          1           0       10.748360    4.662130   -2.094790
     36          1           0       10.799240    5.429310   -3.532990
 ---------------------------------------------------------------------
                    Distance matrix (angstroms):
                    1          2          3          4          5
     1  C    0.000000
     2  C    1.520750   0.000000
     3  C    2.533116   1.531536   0.000000
     4  C    3.010029   2.526690   1.545843   0.000000
     5  N    3.805366   2.432564   1.485792   2.531043   0.000000
     6  N    4.880953   3.693044   2.353981   2.902325   1.435522
     7  C    6.173824   4.846906   3.687348   4.168835   2.417961
     8  C    7.374421   6.177007   4.841336   5.026189   3.808526
     9  O    7.561731   6.494350   5.100483   4.835669   4.323194
    10  C    6.894849   6.056876   4.586191   4.039446   4.225120
    11  N    8.630587   7.331076   6.113909   6.383000   4.903339
    12  O    8.770646   7.429562   6.331138   6.922773   5.037240
    13  C    9.787799   8.571237   7.254763   7.378431   6.170309
    14  N   10.988048   9.694654   8.465026   8.657178   7.265603
    15  H    1.091756   2.156947   3.477794   4.011513   4.584246
    16  H    1.094735   2.163087   2.763506   3.351283   4.097402
    17  H    1.093636   2.178374   2.837212   2.708368   4.197274
    18  H    2.139015   1.097211   2.162883   3.479663   2.627080
    19  H    2.151447   1.097499   2.166891   2.777216   2.690656
    20  H    2.753292   2.154681   1.099501   2.159936   2.111545
    21  H    3.415538   2.807237   2.196297   1.095077   2.800222
    22  H    2.668811   2.785603   2.198466   1.092938   3.477982
    23  H    3.986304   3.495917   2.211883   1.092419   2.863154
    24  H    3.990562   2.585946   2.057641   3.406717   1.030105
    25  H    4.933653   3.890648   2.465480   2.411917   1.960697
    26  H    6.430350   5.042364   4.066231   4.867309   2.685194
    27  H    6.310607   4.927256   3.938408   4.249939   2.633202
    28  H    7.454888   6.364381   4.964090   5.238934   4.096695
    29  H    7.637232   6.912626   5.468083   4.695102   5.231640
    30  H    6.059582   5.251868   3.855503   3.111160   3.640882
    31  H    6.739311   5.990673   4.463335   4.097744   4.229652
    32  H    8.612623   7.195854   6.246350   6.918305   4.846060
    33  H    9.906722   8.758329   7.392639   7.285175   6.425836
    34  H    9.873160   8.730803   7.363404   7.552824   6.376682
    35  H   11.036078   9.704075   8.538179   8.665218   7.296772
    36  H   11.789170  10.541605   9.256939   9.363234   8.123561
                    6          7          8          9         10
     6  N    0.000000
     7  C    1.467512   0.000000
     8  C    2.512742   1.576835   0.000000
     9  O    3.060326   2.509268   1.442341   0.000000
    10  C    2.999914   3.138925   2.437924   1.419103   0.000000
    11  N    3.784515   2.486032   1.485920   2.376862   3.686955
    12  O    4.072350   2.817043   2.342890   3.623926   4.759726
    13  C    4.916013   3.794339   2.414557   2.813496   4.033249
    14  N    6.124023   4.848388   3.688388   4.122172   5.418345
    15  H    5.785483   6.997220   8.286724   8.524332   7.923050
    16  H    4.988873   6.365162   7.458605   7.709912   6.964547
    17  H    5.135661   6.445597   7.536245   7.513773   6.722003
    18  H    3.939450   4.966507   6.377963   6.918097   6.626117
    19  H    4.025635   4.977357   6.370382   6.597226   6.266566
    20  H    2.568837   3.995611   4.972140   5.331074   4.711368
    21  H    3.303979   4.309403   5.232262   4.921617   4.281068
    22  H    3.886752   5.217196   6.003590   5.749485   4.791120
    23  H    2.663711   3.874981   4.411194   4.053614   3.077364
    24  H    2.035432   2.753104   4.206751   4.984309   5.018332
    25  H    1.017671   1.959934   2.614863   2.637408   2.277032
    26  H    2.074754   1.096658   2.217534   3.444771   4.142635
    27  H    2.115984   1.097629   2.191800   2.709410   3.454413
    28  H    2.710566   2.201358   1.100272   2.081636   2.629136
    29  H    4.068954   4.175118   3.328675   2.061524   1.091561
    30  H    2.689702   3.107586   2.944914   2.057036   1.090178
    31  H    2.924754   3.308062   2.599919   2.103182   1.095284
    32  H    4.116859   2.766909   2.770356   4.018457   5.188058
    33  H    5.138470   4.145416   2.678917   2.470546   3.612499
    34  H    5.048417   4.119835   2.689590   3.223985   4.186806
    35  H    6.254278   4.905659   3.900180   4.177752   5.550246
    36  H    6.914984   5.714874   4.421978   4.666622   5.865977
                   11         12         13         14         15
    11  N    0.000000
    12  O    1.465659   0.000000
    13  C    1.459713   2.331877   0.000000
    14  N    2.363967   2.798409   1.453474   0.000000
    15  H    9.478402   9.550785  10.692747  11.841977   0.000000
    16  H    8.764017   8.825326   9.846621  11.092619   1.777879
    17  H    8.844763   9.155861   9.939482  11.180499   1.757634
    18  H    7.423561   7.306800   8.711751   9.762140   2.446070
    19  H    7.426705   7.617910   8.720227   9.770562   2.490303
    20  H    6.300612   6.398151   7.337465   8.601170   3.739537
    21  H    6.469297   7.116571   7.517830   8.714232   4.252632
    22  H    7.400505   7.929897   8.332212   9.649113   3.671001
    23  H    5.832673   6.495521   6.673558   8.014290   5.030174
    24  H    5.143562   4.979831   6.454981   7.459038   4.631268
    25  H    3.990037   4.597505   4.986109   6.263259   5.898593
    26  H    2.687179   2.416656   4.048331   4.914813   7.165786
    27  H    2.770151   3.322325   4.127704   5.023487   7.065602
    28  H    2.116309   2.524295   2.633317   3.981373   8.404314
    29  H    4.376214   5.574034   4.439339   5.764548   8.674824
    30  H    4.244047   5.268016   4.846827   6.175461   7.066048
    31  H    3.950789   4.770558   4.231659   5.679898   7.798587
    32  H    1.913355   0.975623   3.038906   3.298196   9.315623
    33  H    2.117173   3.311937   1.095944   2.068702  10.847747
    34  H    2.126472   2.532123   1.095672   2.094027  10.807367
    35  H    2.531931   3.179864   2.003131   1.016703  11.856940
    36  H    3.241968   3.714750   2.019604   1.016668  12.676693
                   16         17         18         19         20
    16  H    0.000000
    17  H    1.773372   0.000000
    18  H    2.507391   3.065216   0.000000
    19  H    3.065496   2.501784   1.764553   0.000000
    20  H    2.528839   3.169295   2.497596   3.066825   0.000000
    21  H    4.027930   2.999931   3.802675   2.610101   3.082760
    22  H    2.912188   2.084624   3.797097   3.139683   2.515502
    23  H    4.141048   3.673247   4.341477   3.802517   2.509952
    24  H    4.187629   4.612275   2.328883   2.958084   2.389848
    25  H    5.106644   4.967173   4.387449   4.121348   2.807835
    26  H    6.572067   6.867909   4.919336   5.226469   4.273629
    27  H    6.679426   6.503538   5.129170   4.812146   4.504122
    28  H    7.376662   7.665528   6.507887   6.733980   4.848427
    29  H    7.713222   7.339423   7.564452   7.080123   5.598719
    30  H    6.241997   5.810963   5.929976   5.372549   4.159870
    31  H    6.638824   6.648923   6.481392   6.387001   4.329877
    32  H    8.760967   9.035709   7.018256   7.281061   6.437925
    33  H    9.999827   9.937882   9.029886   8.862106   7.525875
    34  H    9.810008  10.063442   8.829121   9.011552   7.281351
    35  H   11.239299  11.189287   9.810700   9.665367   8.800885
    36  H   11.859299  11.939930  10.646181  10.641890   9.349167
                   21         22         23         24         25
    21  H    0.000000
    22  H    1.773915   0.000000
    23  H    1.774406   1.719962   0.000000
    24  H    3.732052   4.236698   3.790677   0.000000
    25  H    2.730331   3.411236   1.927285   2.830033   0.000000
    26  H    5.063416   5.885001   4.706861   2.592687   2.866352
    27  H    4.105527   5.341028   4.072205   3.088695   2.303517
    28  H    5.653441   6.117492   4.553008   4.388518   2.926149
    29  H    4.861705   5.316584   3.678648   6.068850   3.272753
    30  H    3.235397   3.891167   2.208226   4.558939   1.737306
    31  H    4.599668   4.749146   3.103759   4.907059   2.410615
    32  H    7.007092   7.962289   6.625757   4.716342   4.701140
    33  H    7.365429   8.199679   6.496679   6.865829   4.987161
    34  H    7.843038   8.442757   6.798019   6.597020   5.186202
    35  H    8.593924   9.687106   8.074652   7.541644   6.330004
    36  H    9.442644  10.319215   8.645307   8.355695   6.982758
                   26         27         28         29         30
    26  H    0.000000
    27  H    1.781774   0.000000
    28  H    2.588322   3.093414   0.000000
    29  H    5.187845   4.375857   3.502284   0.000000
    30  H    4.172403   3.221089   3.306108   1.713211   0.000000
    31  H    4.155826   3.918388   2.324589   1.783214   1.807954
    32  H    2.194673   3.036688   3.189572   6.046334   5.527630
    33  H    4.643364   4.350985   3.000045   3.775027   4.469974
    34  H    4.284568   4.691821   2.434685   4.604331   5.106276
    35  H    5.039669   4.854101   4.437229   5.862139   6.190549
    36  H    5.841864   5.917379   4.599116   6.056507   6.711940
                   31         32         33         34         35
    31  H    0.000000
    32  H    5.310998   0.000000
    33  H    3.980845   3.933907   0.000000
    34  H    4.105675   3.437297   1.773380   0.000000
    35  H    5.988635   3.423567   2.318761   2.917015   0.000000
    36  H    6.101677   4.288102   2.298034   2.384565   1.630820
                   36
    36  H    0.000000
 Stoichiometry    C8H22N4O2
 Framework group  C1[X(C8H22N4O2)]
 Deg. of freedom   102
 Full point group                 C1      NOp   1
 Largest Abelian subgroup         C1      NOp   1
 Largest concise Abelian subgroup C1      NOp   1
                         Standard orientation:                         
 ---------------------------------------------------------------------
 Center     Atomic      Atomic             Coordinates (Angstroms)
 Number     Number       Type             X           Y           Z
 ---------------------------------------------------------------------
      1          6           0        5.695973   -0.316318    0.235893
      2          6           0        4.399370   -0.930468   -0.268410
      3          6           0        3.167476   -0.164036    0.222122
      4          6           0        3.208021    1.297700   -0.279191
      5          7           0        1.967080   -0.907904   -0.239709
      6          7           0        0.816019   -0.240787    0.299491
      7          6           0       -0.442711   -0.715079   -0.287227
      8          6           0       -1.663220    0.156026    0.200568
      9          8           0       -1.623252    1.498824   -0.324450
     10          6           0       -0.652222    2.374276    0.227398
     11          7           0       -2.918632   -0.492938   -0.258502
     12          8           0       -2.947854   -1.790721    0.421987
     13          6           0       -4.075872    0.242263    0.242533
     14          7           0       -5.280809   -0.401086   -0.254273
     15          1           0        6.548881   -0.914798   -0.090145
     16          1           0        5.697340   -0.266439    1.329490
     17          1           0        5.845408    0.694672   -0.153477
     18          1           0        4.348656   -1.970196    0.078383
     19          1           0        4.410379   -0.957774   -1.365515
     20          1           0        3.171105   -0.151984    1.321551
     21          1           0        3.182948    1.345699   -1.372928
     22          1           0        4.103921    1.818989    0.067411
     23          1           0        2.386558    1.902462    0.111758
     24          1           0        2.022318   -1.870660    0.122461
     25          1           0        0.879320    0.712457   -0.051184
     26          1           0       -0.565866   -1.762015    0.015123
     27          1           0       -0.393176   -0.670880   -1.382846
     28          1           0       -1.664637    0.197856    1.300043
     29          1           0       -0.969099    3.409610    0.088904
     30          1           0        0.267005    2.309617   -0.355123
     31          1           0       -0.469523    2.191683    1.291789
     32          1           0       -2.647555   -2.386737   -0.289648
     33          1           0       -4.075464    1.275125   -0.123921
     34          1           0       -4.097933    0.270979    1.337606
     35          1           0       -5.236788   -0.372705   -1.269626
     36          1           0       -6.081441    0.163032    0.018442
 ---------------------------------------------------------------------
 Rotational constants (GHZ):           1.7134758           0.2300991           0.2079672
 Standard basis: 6-31G(2df,p) (6D, 7F)
 There are   544 symmetry adapted cartesian basis functions of A   symmetry.
 There are   502 symmetry adapted basis functions of A   symmetry.
   502 basis functions,   770 primitive gaussians,   544 cartesian basis functions
    57 alpha electrons       57 beta electrons
       nuclear repulsion energy       988.7288463342 Hartrees.
 NAtoms=   36 NActive=   36 NUniq=   36 SFac= 1.00D+00 NAtFMM=   60 NAOKFM=F Big=F
 Integral buffers will be    131072 words long.
 Raffenetti 2 integral format.
 Two-electron integral symmetry is turned on.
 One-electron integrals computed using PRISM.
 PrsmSu:  requested number of processors reduced to:  12 ShMem   1 Linda.
 NBasis=   502 RedAO= T EigKep=  2.67D-04  NBF=   502
 NBsUse=   502 1.00D-06 EigRej= -1.00D+00 NBFU=   502
 ExpMin= 1.61D-01 ExpMax= 5.48D+03 ExpMxC= 8.25D+02 IAcc=3 IRadAn=         5 AccDes= 0.00D+00
 Harris functional with IExCor=  402 and IRadAn=       5 diagonalized for initial guess.
 HarFok:  IExCor=  402 AccDes= 0.00D+00 IRadAn=         5 IDoV= 1 UseB2=F ITyADJ=14
 ICtDFT=  3500011 ScaDFX=  1.000000  1.000000  1.000000  1.000000
 FoFCou: FMM=F IPFlag=           0 FMFlag=      100000 FMFlg1=           0
         NFxFlg=           0 DoJE=T BraDBF=F KetDBF=T FulRan=T
         wScrn=  0.000000 ICntrl=       500 IOpCl=  0 I1Cent=   200000004 NGrid=           0
         NMat0=    1 NMatS0=      1 NMatT0=    0 NMatD0=    1 NMtDS0=    0 NMtDT0=    0
 Petite list used in FoFCou.
 Requested convergence on RMS density matrix=1.00D-08 within 128 cycles.
 Requested convergence on MAX density matrix=1.00D-06.
 Requested convergence on             energy=1.00D-06.
 No special actions if energy rises.
 Integral accuracy reduced to 1.0D-05 until final iterations.
 Initial convergence to 1.0D-05 achieved.  Increase integral accuracy.
 SCF Done:  E(RB3LYP) =  -687.452674862     A.U. after   13 cycles
            NFock= 13  Conv=0.24D-08     -V/T= 2.0076

 **********************************************************************

            Population analysis using the SCF density.

 **********************************************************************

 Orbital symmetries:
       Occupied  (A) (A) (A) (A) (A) (A) (A) (A) (A) (A) (A) (A)
                 (A) (A) (A) (A) (A) (A) (A) (A) (A) (A) (A) (A)
                 (A) (A) (A) (A) (A) (A) (A) (A) (A) (A) (A) (A)
                 (A) (A) (A) (A) (A) (A) (A) (A) (A) (A) (A) (A)
                 (A) (A) (A) (A) (A) (A) (A) (A) (A)
       Virtual   (A) (A) (A) (A) (A) (A) (A) (A) (A) (A) (A) (A)
                 (A) (A) (A) (A) (A) (A) (A) (A) (A) (A) (A) (A)
                 (A) (A) (A) (A) (A) (A) (A) (A) (A) (A) (A) (A)
                 (A) (A) (A) (A) (A) (A) (A) (A) (A) (A) (A) (A)
                 (A) (A) (A) (A) (A) (A) (A) (A) (A) (A) (A) (A)
                 (A) (A) (A) (A) (A) (A) (A) (A) (A) (A) (A) (A)
                 (A) (A) (A) (A) (A) (A) (A) (A) (A) (A) (A) (A)
                 (A) (A) (A) (A) (A) (A) (A) (A) (A) (A) (A) (A)
                 (A) (A) (A) (A) (A) (A) (A) (A) (A) (A) (A) (A)
                 (A) (A) (A) (A) (A) (A) (A) (A) (A) (A) (A) (A)
                 (A) (A) (A) (A) (A) (A) (A) (A) (A) (A) (A) (A)
                 (A) (A) (A) (A) (A) (A) (A) (A) (A) (A) (A) (A)
                 (A) (A) (A) (A) (A) (A) (A) (A) (A) (A) (A) (A)
                 (A) (A) (A) (A) (A) (A) (A) (A) (A) (A) (A) (A)
                 (A) (A) (A) (A) (A) (A) (A) (A) (A) (A) (A) (A)
                 (A) (A) (A) (A) (A) (A) (A) (A) (A) (A) (A) (A)
                 (A) (A) (A) (A) (A) (A) (A) (A) (A) (A) (A) (A)
                 (A) (A) (A) (A) (A) (A) (A) (A) (A) (A) (A) (A)
                 (A) (A) (A) (A) (A) (A) (A) (A) (A) (A) (A) (A)
                 (A) (A) (A) (A) (A) (A) (A) (A) (A) (A) (A) (A)
                 (A) (A) (A) (A) (A) (A) (A) (A) (A) (A) (A) (A)
                 (A) (A) (A) (A) (A) (A) (A) (A) (A) (A) (A) (A)
                 (A) (A) (A) (A) (A) (A) (A) (A) (A) (A) (A) (A)
                 (A) (A) (A) (A) (A) (A) (A) (A) (A) (A) (A) (A)
                 (A) (A) (A) (A) (A) (A) (A) (A) (A) (A) (A) (A)
                 (A) (A) (A) (A) (A) (A) (A) (A) (A) (A) (A) (A)
                 (A) (A) (A) (A) (A) (A) (A) (A) (A) (A) (A) (A)
                 (A) (A) (A) (A) (A) (A) (A) (A) (A) (A) (A) (A)
                 (A) (A) (A) (A) (A) (A) (A) (A) (A) (A) (A) (A)
                 (A) (A) (A) (A) (A) (A) (A) (A) (A) (A) (A) (A)
                 (A) (A) (A) (A) (A) (A) (A) (A) (A) (A) (A) (A)
                 (A) (A) (A) (A) (A) (A) (A) (A) (A) (A) (A) (A)
                 (A) (A) (A) (A) (A) (A) (A) (A) (A) (A) (A) (A)
                 (A) (A) (A) (A) (A) (A) (A) (A) (A) (A) (A) (A)
                 (A) (A) (A) (A) (A) (A) (A) (A) (A) (A) (A) (A)
                 (A) (A) (A) (A) (A) (A) (A) (A) (A) (A) (A) (A)
                 (A) (A) (A) (A) (A) (A) (A) (A) (A) (A) (A) (A)
                 (A)
 The electronic state is 1-A.
 Alpha  occ. eigenvalues --  -19.16042 -19.14895 -14.37120 -14.33115 -14.32726
 Alpha  occ. eigenvalues --  -14.29632 -10.26249 -10.23386 -10.22079 -10.20958
 Alpha  occ. eigenvalues --  -10.19912 -10.17872 -10.17780 -10.17298  -1.05292
 Alpha  occ. eigenvalues --   -1.02766  -0.95867  -0.88673  -0.83094  -0.81819
 Alpha  occ. eigenvalues --   -0.76295  -0.71688  -0.71484  -0.67000  -0.63137
 Alpha  occ. eigenvalues --   -0.61353  -0.58583  -0.56414  -0.52546  -0.50812
 Alpha  occ. eigenvalues --   -0.50426  -0.48152  -0.47244  -0.46357  -0.44808
 Alpha  occ. eigenvalues --   -0.44576  -0.43132  -0.42692  -0.42222  -0.41614
 Alpha  occ. eigenvalues --   -0.39903  -0.38935  -0.38879  -0.38487  -0.37714
 Alpha  occ. eigenvalues --   -0.37095  -0.36236  -0.34602  -0.33154  -0.32302
 Alpha  occ. eigenvalues --   -0.31975  -0.29754  -0.28960  -0.25881  -0.23351
 Alpha  occ. eigenvalues --   -0.22457  -0.17852
 Alpha virt. eigenvalues --    0.06292   0.07406   0.08749   0.09233   0.09964
 Alpha virt. eigenvalues --    0.11132   0.11994   0.12673   0.13323   0.13705
 Alpha virt. eigenvalues --    0.14000   0.14868   0.15445   0.16028   0.16620
 Alpha virt. eigenvalues --    0.16794   0.17289   0.17637   0.18624   0.19253
 Alpha virt. eigenvalues --    0.19714   0.20359   0.21286   0.21561   0.22584
 Alpha virt. eigenvalues --    0.23055   0.23904   0.23939   0.24153   0.25740
 Alpha virt. eigenvalues --    0.26454   0.27128   0.28155   0.30011   0.31265
 Alpha virt. eigenvalues --    0.42568   0.44386   0.45703   0.46771   0.47644
 Alpha virt. eigenvalues --    0.48832   0.49790   0.49970   0.50829   0.51907
 Alpha virt. eigenvalues --    0.52725   0.53227   0.53910   0.54489   0.55348
 Alpha virt. eigenvalues --    0.57008   0.58081   0.58762   0.59238   0.60754
 Alpha virt. eigenvalues --    0.61298   0.62504   0.63006   0.64658   0.66180
 Alpha virt. eigenvalues --    0.66787   0.68034   0.69689   0.70104   0.70636
 Alpha virt. eigenvalues --    0.71426   0.71714   0.72183   0.73162   0.73668
 Alpha virt. eigenvalues --    0.73924   0.74231   0.75011   0.75720   0.76449
 Alpha virt. eigenvalues --    0.76698   0.77391   0.77643   0.77867   0.78788
 Alpha virt. eigenvalues --    0.79519   0.79567   0.80332   0.81723   0.82686
 Alpha virt. eigenvalues --    0.83511   0.83995   0.84566   0.85777   0.85912
 Alpha virt. eigenvalues --    0.86739   0.87327   0.87600   0.88052   0.89769
 Alpha virt. eigenvalues --    0.91179   0.91267   0.92486   0.92500   0.93916
 Alpha virt. eigenvalues --    0.96076   0.98027   0.98924   0.99495   1.01110
 Alpha virt. eigenvalues --    1.02979   1.05038   1.08315   1.09821   1.10949
 Alpha virt. eigenvalues --    1.11832   1.14435   1.16275   1.16737   1.18437
 Alpha virt. eigenvalues --    1.19717   1.21871   1.22065   1.24094   1.25414
 Alpha virt. eigenvalues --    1.26224   1.27624   1.29051   1.32000   1.32808
 Alpha virt. eigenvalues --    1.33507   1.35095   1.36393   1.36874   1.38380
 Alpha virt. eigenvalues --    1.39688   1.41939   1.42568   1.44384   1.45128
 Alpha virt. eigenvalues --    1.46058   1.46967   1.49512   1.50293   1.51849
 Alpha virt. eigenvalues --    1.52289   1.53593   1.55380   1.55995   1.56881
 Alpha virt. eigenvalues --    1.57483   1.58763   1.59024   1.60166   1.62132
 Alpha virt. eigenvalues --    1.64153   1.66761   1.66980   1.69290   1.69809
 Alpha virt. eigenvalues --    1.72657   1.73355   1.74382   1.77720   1.78914
 Alpha virt. eigenvalues --    1.80526   1.81626   1.81912   1.82724   1.84016
 Alpha virt. eigenvalues --    1.86830   1.87906   1.89499   1.90281   1.91316
 Alpha virt. eigenvalues --    1.91903   1.92537   1.94091   1.95212   1.96097
 Alpha virt. eigenvalues --    1.97453   1.98156   2.00106   2.02356   2.05060
 Alpha virt. eigenvalues --    2.07584   2.09714   2.11068   2.17414   2.19013
 Alpha virt. eigenvalues --    2.19627   2.19920   2.22980   2.23775   2.25982
 Alpha virt. eigenvalues --    2.27094   2.28964   2.29705   2.30897   2.34542
 Alpha virt. eigenvalues --    2.36293   2.38373   2.40083   2.41007   2.42577
 Alpha virt. eigenvalues --    2.43386   2.46737   2.47613   2.50718   2.51964
 Alpha virt. eigenvalues --    2.54375   2.55142   2.56594   2.58807   2.61129
 Alpha virt. eigenvalues --    2.62377   2.64855   2.66601   2.67854   2.71674
 Alpha virt. eigenvalues --    2.73282   2.73701   2.74490   2.76664   2.77280
 Alpha virt. eigenvalues --    2.78815   2.79659   2.80417   2.81524   2.82160
 Alpha virt. eigenvalues --    2.82767   2.83505   2.84454   2.86366   2.87456
 Alpha virt. eigenvalues --    2.87980   2.88987   2.89705   2.91281   2.91457
 Alpha virt. eigenvalues --    2.92675   2.94411   2.95619   2.96423   2.97224
 Alpha virt. eigenvalues --    2.97611   2.97808   2.99306   3.00665   3.02010
 Alpha virt. eigenvalues --    3.03829   3.05716   3.06064   3.08242   3.10549
 Alpha virt. eigenvalues --    3.11124   3.12739   3.14691   3.16079   3.16757
 Alpha virt. eigenvalues --    3.18961   3.21879   3.22939   3.24220   3.26549
 Alpha virt. eigenvalues --    3.27847   3.31244   3.32478   3.33952   3.34563
 Alpha virt. eigenvalues --    3.35919   3.37911   3.39403   3.40132   3.43062
 Alpha virt. eigenvalues --    3.44230   3.45203   3.46664   3.46755   3.48661
 Alpha virt. eigenvalues --    3.50180   3.50589   3.57664   3.58220   3.61303
 Alpha virt. eigenvalues --    3.61742   3.62597   3.64459   3.64859   3.66082
 Alpha virt. eigenvalues --    3.66869   3.68087   3.68629   3.69955   3.72815
 Alpha virt. eigenvalues --    3.75645   3.76136   3.77828   3.78211   3.79316
 Alpha virt. eigenvalues --    3.82070   3.86922   3.88405   3.90591   3.93578
 Alpha virt. eigenvalues --    3.93614   3.94773   3.96811   3.99258   4.00167
 Alpha virt. eigenvalues --    4.01512   4.03752   4.05875   4.07965   4.08881
 Alpha virt. eigenvalues --    4.13515   4.15111   4.18776   4.20166   4.20893
 Alpha virt. eigenvalues --    4.22176   4.23428   4.26127   4.27984   4.29492
 Alpha virt. eigenvalues --    4.32627   4.33229   4.34819   4.35134   4.35652
 Alpha virt. eigenvalues --    4.37731   4.38365   4.38875   4.41137   4.41422
 Alpha virt. eigenvalues --    4.41894   4.42704   4.43789   4.44226   4.45365
 Alpha virt. eigenvalues --    4.46080   4.47024   4.47800   4.49459   4.49901
 Alpha virt. eigenvalues --    4.51399   4.52697   4.53226   4.53820   4.55431
 Alpha virt. eigenvalues --    4.57229   4.58746   4.59653   4.61158   4.61871
 Alpha virt. eigenvalues --    4.62050   4.63084   4.63618   4.64582   4.65239
 Alpha virt. eigenvalues --    4.66395   4.67986   4.69450   4.70186   4.71057
 Alpha virt. eigenvalues --    4.72099   4.72518   4.73690   4.75732   4.76436
 Alpha virt. eigenvalues --    4.77065   4.78000   4.78353   4.80109   4.80466
 Alpha virt. eigenvalues --    4.81699   4.81969   4.82650   4.84416   4.85427
 Alpha virt. eigenvalues --    4.85876   4.86892   4.88573   4.90840   4.92453
 Alpha virt. eigenvalues --    4.93215   4.95505   4.96400   4.97568   5.02761
 Alpha virt. eigenvalues --    5.04858   5.07807   5.08195   5.10235   5.12314
 Alpha virt. eigenvalues --    5.14352   5.17465   5.18185   5.21302   5.24174
 Alpha virt. eigenvalues --    5.26146   5.28155   5.30042   5.30905   5.35354
 Alpha virt. eigenvalues --    5.35678   5.38251   5.40382   5.43324   5.43420
 Alpha virt. eigenvalues --    5.47162   5.48464   5.51550   5.51849   5.54280
 Alpha virt. eigenvalues --    5.54768   5.57567   5.61198   5.61917   5.68651
 Alpha virt. eigenvalues --    5.79271   5.85335   5.90381   5.91624   5.96813
 Alpha virt. eigenvalues --    5.99077   6.05616   6.07817   6.16990   6.33465
 Alpha virt. eigenvalues --    7.05296   7.17356   9.71209  10.53421  11.22489
 Alpha virt. eigenvalues --   11.28765  11.29782  11.38886  11.46000  11.55302
 Alpha virt. eigenvalues --   11.64321  11.81194  11.90827  12.15556  12.36022
 Alpha virt. eigenvalues --   12.90769  13.39850  13.53506  15.60711  17.58548
          Condensed to atoms (all electrons):
               1          2          3          4          5          6
     1  C    4.971686   0.393022  -0.035405  -0.009165   0.002022  -0.000072
     2  C    0.393022   4.857183   0.411656  -0.028325  -0.036898   0.002418
     3  C   -0.035405   0.411656   4.621946   0.374532   0.378349  -0.046609
     4  C   -0.009165  -0.028325   0.374532   5.071935  -0.029926  -0.006642
     5  N    0.002022  -0.036898   0.378349  -0.029926   6.561734   0.245781
     6  N   -0.000072   0.002418  -0.046609  -0.006642   0.245781   6.541200
     7  C    0.000002  -0.000309   0.001895   0.001103  -0.055877   0.362746
     8  C    0.000000   0.000002  -0.000191  -0.000018   0.002394  -0.031656
     9  O   -0.000000   0.000000   0.000008   0.000044  -0.000018  -0.000625
    10  C    0.000000  -0.000002   0.000230  -0.002344   0.000274  -0.006255
    11  N    0.000000  -0.000000   0.000001  -0.000000  -0.000004   0.000584
    12  O    0.000000   0.000000   0.000000  -0.000000   0.000007   0.000426
    13  C    0.000000   0.000000  -0.000000  -0.000000   0.000001  -0.000059
    14  N    0.000000  -0.000000   0.000000  -0.000000  -0.000000   0.000000
    15  H    0.374401  -0.022419   0.002789   0.000211  -0.000080   0.000001
    16  H    0.377106  -0.029786  -0.003384  -0.000904   0.000122   0.000004
    17  H    0.381833  -0.028861  -0.005683  -0.000022   0.000076   0.000003
    18  H   -0.035622   0.362137  -0.029169   0.005517  -0.002434   0.000199
    19  H   -0.036390   0.362235  -0.023789  -0.010413   0.003084   0.000087
    20  H    0.000583  -0.047119   0.354996  -0.068419  -0.054389   0.015077
    21  H    0.000412  -0.006304  -0.018960   0.361640   0.001982  -0.000593
    22  H    0.000983  -0.007389  -0.020499   0.371954   0.002155   0.000260
    23  H    0.000287   0.004422  -0.019850   0.357841  -0.002370  -0.001387
    24  H   -0.000500  -0.001504  -0.046568   0.006445   0.328215  -0.037680
    25  H   -0.000004   0.000022  -0.011633   0.008757  -0.038850   0.328687
    26  H   -0.000000  -0.000007  -0.000052   0.000023  -0.004234  -0.020208
    27  H    0.000001   0.000058   0.001192  -0.000448   0.014575  -0.041008
    28  H    0.000000   0.000000   0.000039  -0.000006  -0.000026   0.007013
    29  H    0.000000   0.000000  -0.000000   0.000085  -0.000008   0.000413
    30  H   -0.000000  -0.000001  -0.000386  -0.000291   0.000521  -0.007951
    31  H    0.000000   0.000000   0.000052  -0.000153  -0.000046   0.002217
    32  H    0.000000   0.000000   0.000000  -0.000000   0.000001  -0.000011
    33  H   -0.000000  -0.000000  -0.000000  -0.000000   0.000000  -0.000003
    34  H    0.000000   0.000000   0.000000   0.000000   0.000000   0.000015
    35  H    0.000000   0.000000   0.000000  -0.000000   0.000000   0.000000
    36  H   -0.000000   0.000000  -0.000000  -0.000000   0.000000  -0.000000
               7          8          9         10         11         12
     1  C    0.000002   0.000000  -0.000000   0.000000   0.000000   0.000000
     2  C   -0.000309   0.000002   0.000000  -0.000002  -0.000000   0.000000
     3  C    0.001895  -0.000191   0.000008   0.000230   0.000001   0.000000
     4  C    0.001103  -0.000018   0.000044  -0.002344  -0.000000  -0.000000
     5  N   -0.055877   0.002394  -0.000018   0.000274  -0.000004   0.000007
     6  N    0.362746  -0.031656  -0.000625  -0.006255   0.000584   0.000426
     7  C    5.048153   0.344227  -0.020205  -0.001567  -0.033291  -0.002171
     8  C    0.344227   4.744363   0.306017  -0.070700   0.331315  -0.054281
     9  O   -0.020205   0.306017   7.766208   0.358718  -0.019052   0.001014
    10  C   -0.001567  -0.070700   0.358718   4.844422   0.002305  -0.000053
    11  N   -0.033291   0.331315  -0.019052   0.002305   6.439290   0.195337
    12  O   -0.002171  -0.054281   0.001014  -0.000053   0.195337   7.963371
    13  C    0.004141  -0.076179   0.001791   0.000221   0.359843  -0.034786
    14  N   -0.000009   0.001450   0.000286  -0.000010  -0.035183  -0.004164
    15  H   -0.000000   0.000000  -0.000000   0.000000  -0.000000   0.000000
    16  H    0.000000   0.000000  -0.000000   0.000000   0.000000  -0.000000
    17  H    0.000000   0.000000  -0.000000   0.000000   0.000000  -0.000000
    18  H    0.000004  -0.000000  -0.000000   0.000000  -0.000000   0.000000
    19  H    0.000016   0.000000  -0.000000   0.000000   0.000000  -0.000000
    20  H    0.000245   0.000084  -0.000000  -0.000001   0.000000   0.000000
    21  H   -0.000109   0.000015  -0.000001  -0.000080   0.000000   0.000000
    22  H   -0.000004  -0.000001  -0.000000   0.000053  -0.000000  -0.000000
    23  H   -0.000374   0.000081  -0.000098  -0.000386  -0.000000   0.000000
    24  H   -0.002746  -0.000215   0.000002  -0.000012  -0.000003  -0.000005
    25  H   -0.062349  -0.001838   0.002209   0.005764  -0.000134  -0.000020
    26  H    0.326083  -0.014821   0.002619  -0.000167  -0.004022   0.014181
    27  H    0.319347  -0.018643  -0.000945   0.000585   0.004073   0.000525
    28  H   -0.066783   0.346849  -0.041586  -0.006357  -0.052460   0.007427
    29  H   -0.000149   0.003070  -0.020333   0.372854  -0.000044   0.000000
    30  H    0.002247   0.001093  -0.035435   0.370894  -0.000176   0.000001
    31  H   -0.001909  -0.007718  -0.026781   0.372043  -0.000097   0.000003
    32  H    0.002702  -0.004311  -0.000104  -0.000004  -0.045787   0.301987
    33  H    0.000164   0.004641   0.008686   0.000193  -0.032969   0.002334
    34  H   -0.000171  -0.000909  -0.000435   0.000007  -0.032293   0.003594
    35  H    0.000000   0.000156  -0.000010  -0.000000   0.007605   0.000291
    36  H    0.000003  -0.000332   0.000008  -0.000000   0.004441   0.000204
              13         14         15         16         17         18
     1  C    0.000000   0.000000   0.374401   0.377106   0.381833  -0.035622
     2  C    0.000000  -0.000000  -0.022419  -0.029786  -0.028861   0.362137
     3  C   -0.000000   0.000000   0.002789  -0.003384  -0.005683  -0.029169
     4  C   -0.000000  -0.000000   0.000211  -0.000904  -0.000022   0.005517
     5  N    0.000001  -0.000000  -0.000080   0.000122   0.000076  -0.002434
     6  N   -0.000059   0.000000   0.000001   0.000004   0.000003   0.000199
     7  C    0.004141  -0.000009  -0.000000   0.000000   0.000000   0.000004
     8  C   -0.076179   0.001450   0.000000   0.000000   0.000000  -0.000000
     9  O    0.001791   0.000286  -0.000000  -0.000000  -0.000000  -0.000000
    10  C    0.000221  -0.000010   0.000000   0.000000   0.000000   0.000000
    11  N    0.359843  -0.035183  -0.000000   0.000000   0.000000  -0.000000
    12  O   -0.034786  -0.004164   0.000000  -0.000000  -0.000000   0.000000
    13  C    4.822665   0.376591   0.000000   0.000000   0.000000   0.000000
    14  N    0.376591   6.568763  -0.000000   0.000000   0.000000   0.000000
    15  H    0.000000  -0.000000   0.602194  -0.030740  -0.031583  -0.003779
    16  H    0.000000   0.000000  -0.030740   0.599172  -0.034508  -0.003910
    17  H    0.000000   0.000000  -0.031583  -0.034508   0.593683   0.005642
    18  H    0.000000   0.000000  -0.003779  -0.003910   0.005642   0.653773
    19  H    0.000000   0.000000  -0.001696   0.005673  -0.004383  -0.040125
    20  H    0.000000   0.000000  -0.000033   0.005855  -0.000010  -0.005616
    21  H    0.000000   0.000000  -0.000029   0.000105   0.000807  -0.000070
    22  H   -0.000000   0.000000  -0.000090   0.001121   0.003789   0.000055
    23  H    0.000000   0.000000  -0.000001  -0.000044  -0.000204  -0.000188
    24  H   -0.000000  -0.000000  -0.000004   0.000002   0.000013   0.006904
    25  H   -0.000005   0.000000   0.000000  -0.000000  -0.000000   0.000012
    26  H    0.000193  -0.000011   0.000000   0.000000  -0.000000  -0.000001
    27  H    0.000196  -0.000001   0.000000  -0.000000   0.000000  -0.000002
    28  H   -0.008353  -0.000240   0.000000  -0.000000  -0.000000  -0.000000
    29  H    0.000017  -0.000001  -0.000000   0.000000  -0.000000  -0.000000
    30  H    0.000024   0.000000   0.000000  -0.000000   0.000000  -0.000000
    31  H   -0.000113  -0.000001   0.000000  -0.000000  -0.000000  -0.000000
    32  H    0.001345   0.000825   0.000000   0.000000   0.000000  -0.000000
    33  H    0.388034  -0.046487   0.000000   0.000000  -0.000000   0.000000
    34  H    0.333599  -0.029246  -0.000000   0.000000  -0.000000   0.000000
    35  H   -0.058818   0.334471   0.000000   0.000000   0.000000   0.000000
    36  H   -0.049273   0.336404   0.000000   0.000000   0.000000   0.000000
              19         20         21         22         23         24
     1  C   -0.036390   0.000583   0.000412   0.000983   0.000287  -0.000500
     2  C    0.362235  -0.047119  -0.006304  -0.007389   0.004422  -0.001504
     3  C   -0.023789   0.354996  -0.018960  -0.020499  -0.019850  -0.046568
     4  C   -0.010413  -0.068419   0.361640   0.371954   0.357841   0.006445
     5  N    0.003084  -0.054389   0.001982   0.002155  -0.002370   0.328215
     6  N    0.000087   0.015077  -0.000593   0.000260  -0.001387  -0.037680
     7  C    0.000016   0.000245  -0.000109  -0.000004  -0.000374  -0.002746
     8  C    0.000000   0.000084   0.000015  -0.000001   0.000081  -0.000215
     9  O   -0.000000  -0.000000  -0.000001  -0.000000  -0.000098   0.000002
    10  C    0.000000  -0.000001  -0.000080   0.000053  -0.000386  -0.000012
    11  N    0.000000   0.000000   0.000000  -0.000000  -0.000000  -0.000003
    12  O   -0.000000   0.000000   0.000000  -0.000000   0.000000  -0.000005
    13  C    0.000000   0.000000   0.000000  -0.000000   0.000000  -0.000000
    14  N    0.000000   0.000000   0.000000   0.000000   0.000000  -0.000000
    15  H   -0.001696  -0.000033  -0.000029  -0.000090  -0.000001  -0.000004
    16  H    0.005673   0.005855   0.000105   0.001121  -0.000044   0.000002
    17  H   -0.004383  -0.000010   0.000807   0.003789  -0.000204   0.000013
    18  H   -0.040125  -0.005616  -0.000070   0.000055  -0.000188   0.006904
    19  H    0.628502   0.007222   0.005596   0.000280  -0.000025  -0.000559
    20  H    0.007222   0.730974   0.006884  -0.000318  -0.002159  -0.007834
    21  H    0.005596   0.006884   0.593609  -0.031014  -0.036494  -0.000178
    22  H    0.000280  -0.000318  -0.031014   0.582913  -0.027622  -0.000151
    23  H   -0.000025  -0.002159  -0.036494  -0.027622   0.605680  -0.000194
    24  H   -0.000559  -0.007834  -0.000178  -0.000151  -0.000194   0.522996
    25  H    0.000007  -0.000702   0.000803  -0.000551  -0.000418   0.006552
    26  H   -0.000000  -0.000079  -0.000002   0.000000  -0.000026   0.004832
    27  H    0.000009   0.000139   0.000141  -0.000001   0.000143  -0.001455
    28  H    0.000000   0.000011   0.000000  -0.000000   0.000009   0.000001
    29  H    0.000000   0.000000  -0.000002   0.000000  -0.000248   0.000000
    30  H   -0.000001  -0.000054   0.000525  -0.000086   0.005826  -0.000012
    31  H    0.000000   0.000061   0.000008  -0.000005   0.000779  -0.000006
    32  H    0.000000   0.000000   0.000000   0.000000  -0.000000  -0.000000
    33  H   -0.000000  -0.000000  -0.000000   0.000000   0.000000   0.000000
    34  H   -0.000000  -0.000000  -0.000000   0.000000  -0.000000   0.000000
    35  H    0.000000  -0.000000  -0.000000   0.000000   0.000000   0.000000
    36  H    0.000000   0.000000   0.000000   0.000000   0.000000  -0.000000
              25         26         27         28         29         30
     1  C   -0.000004  -0.000000   0.000001   0.000000   0.000000  -0.000000
     2  C    0.000022  -0.000007   0.000058   0.000000   0.000000  -0.000001
     3  C   -0.011633  -0.000052   0.001192   0.000039  -0.000000  -0.000386
     4  C    0.008757   0.000023  -0.000448  -0.000006   0.000085  -0.000291
     5  N   -0.038850  -0.004234   0.014575  -0.000026  -0.000008   0.000521
     6  N    0.328687  -0.020208  -0.041008   0.007013   0.000413  -0.007951
     7  C   -0.062349   0.326083   0.319347  -0.066783  -0.000149   0.002247
     8  C   -0.001838  -0.014821  -0.018643   0.346849   0.003070   0.001093
     9  O    0.002209   0.002619  -0.000945  -0.041586  -0.020333  -0.035435
    10  C    0.005764  -0.000167   0.000585  -0.006357   0.372854   0.370894
    11  N   -0.000134  -0.004022   0.004073  -0.052460  -0.000044  -0.000176
    12  O   -0.000020   0.014181   0.000525   0.007427   0.000000   0.000001
    13  C   -0.000005   0.000193   0.000196  -0.008353   0.000017   0.000024
    14  N    0.000000  -0.000011  -0.000001  -0.000240  -0.000001   0.000000
    15  H    0.000000   0.000000   0.000000   0.000000  -0.000000   0.000000
    16  H   -0.000000   0.000000  -0.000000  -0.000000   0.000000  -0.000000
    17  H   -0.000000  -0.000000   0.000000  -0.000000  -0.000000   0.000000
    18  H    0.000012  -0.000001  -0.000002  -0.000000  -0.000000  -0.000000
    19  H    0.000007  -0.000000   0.000009   0.000000   0.000000  -0.000001
    20  H   -0.000702  -0.000079   0.000139   0.000011   0.000000  -0.000054
    21  H    0.000803  -0.000002   0.000141   0.000000  -0.000002   0.000525
    22  H   -0.000551   0.000000  -0.000001  -0.000000   0.000000  -0.000086
    23  H   -0.000418  -0.000026   0.000143   0.000009  -0.000248   0.005826
    24  H    0.006552   0.004832  -0.001455   0.000001   0.000000  -0.000012
    25  H    0.524287   0.007065  -0.007097  -0.000104  -0.000498   0.009007
    26  H    0.007065   0.640106  -0.047114   0.000677   0.000011  -0.000129
    27  H   -0.007097  -0.047114   0.671580   0.007269   0.000009  -0.000976
    28  H   -0.000104   0.000677   0.007269   0.700169   0.000293  -0.001084
    29  H   -0.000498   0.000011   0.000009   0.000293   0.592860  -0.041988
    30  H    0.009007  -0.000129  -0.000976  -0.001084  -0.041988   0.622648
    31  H    0.000039  -0.000033   0.000430   0.014829  -0.030555  -0.048884
    32  H    0.000009   0.000444   0.000080  -0.000217  -0.000000  -0.000001
    33  H    0.000000  -0.000033  -0.000005   0.000026  -0.000106   0.000035
    34  H    0.000000   0.000031   0.000021   0.013186   0.000005   0.000003
    35  H    0.000000  -0.000001   0.000003   0.000073  -0.000000   0.000000
    36  H    0.000000   0.000000   0.000000   0.000019   0.000000   0.000000
              31         32         33         34         35         36
     1  C    0.000000   0.000000  -0.000000   0.000000   0.000000  -0.000000
     2  C    0.000000   0.000000  -0.000000   0.000000   0.000000   0.000000
     3  C    0.000052   0.000000  -0.000000   0.000000   0.000000  -0.000000
     4  C   -0.000153  -0.000000  -0.000000   0.000000  -0.000000  -0.000000
     5  N   -0.000046   0.000001   0.000000   0.000000   0.000000   0.000000
     6  N    0.002217  -0.000011  -0.000003   0.000015   0.000000  -0.000000
     7  C   -0.001909   0.002702   0.000164  -0.000171   0.000000   0.000003
     8  C   -0.007718  -0.004311   0.004641  -0.000909   0.000156  -0.000332
     9  O   -0.026781  -0.000104   0.008686  -0.000435  -0.000010   0.000008
    10  C    0.372043  -0.000004   0.000193   0.000007  -0.000000  -0.000000
    11  N   -0.000097  -0.045787  -0.032969  -0.032293   0.007605   0.004441
    12  O    0.000003   0.301987   0.002334   0.003594   0.000291   0.000204
    13  C   -0.000113   0.001345   0.388034   0.333599  -0.058818  -0.049273
    14  N   -0.000001   0.000825  -0.046487  -0.029246   0.334471   0.336404
    15  H    0.000000   0.000000   0.000000  -0.000000   0.000000   0.000000
    16  H   -0.000000   0.000000   0.000000   0.000000   0.000000   0.000000
    17  H   -0.000000   0.000000  -0.000000  -0.000000   0.000000   0.000000
    18  H   -0.000000  -0.000000   0.000000   0.000000   0.000000   0.000000
    19  H    0.000000   0.000000  -0.000000  -0.000000   0.000000   0.000000
    20  H    0.000061   0.000000  -0.000000  -0.000000  -0.000000   0.000000
    21  H    0.000008   0.000000  -0.000000  -0.000000  -0.000000   0.000000
    22  H   -0.000005   0.000000   0.000000   0.000000   0.000000   0.000000
    23  H    0.000779  -0.000000   0.000000  -0.000000   0.000000   0.000000
    24  H   -0.000006  -0.000000   0.000000   0.000000   0.000000  -0.000000
    25  H    0.000039   0.000009   0.000000   0.000000   0.000000   0.000000
    26  H   -0.000033   0.000444  -0.000033   0.000031  -0.000001   0.000000
    27  H    0.000430   0.000080  -0.000005   0.000021   0.000003   0.000000
    28  H    0.014829  -0.000217   0.000026   0.013186   0.000073   0.000019
    29  H   -0.030555  -0.000000  -0.000106   0.000005  -0.000000   0.000000
    30  H   -0.048884  -0.000001   0.000035   0.000003   0.000000   0.000000
    31  H    0.597608   0.000002   0.000072   0.000047   0.000000   0.000000
    32  H    0.000002   0.437707  -0.000278  -0.000140  -0.000030   0.000004
    33  H    0.000072  -0.000278   0.622133  -0.048885  -0.005729  -0.003968
    34  H    0.000047  -0.000140  -0.048885   0.658849   0.008084   0.001063
    35  H    0.000000  -0.000030  -0.005729   0.008084   0.518443  -0.027510
    36  H    0.000000   0.000004  -0.003968   0.001063  -0.027510   0.518211
 Mulliken charges:
               1
     1  C   -0.385181
     2  C   -0.184234
     3  C    0.114495
     4  C   -0.403011
     5  N   -0.316131
     6  N   -0.306373
     7  C   -0.165056
     8  C    0.196056
     9  O   -0.281979
    10  C   -0.240623
    11  N   -0.089279
    12  O   -0.395224
    13  C   -0.061074
    14  N   -0.503437
    15  H    0.110860
    16  H    0.114117
    17  H    0.119408
    18  H    0.086672
    19  H    0.104668
    20  H    0.064600
    21  H    0.121310
    22  H    0.124169
    23  H    0.117021
    24  H    0.223664
    25  H    0.230984
    26  H    0.094674
    27  H    0.097321
    28  H    0.079327
    29  H    0.124316
    30  H    0.124633
    31  H    0.128109
    32  H    0.305777
    33  H    0.112146
    34  H    0.093576
    35  H    0.222972
    36  H    0.220726
 Sum of Mulliken charges =  -0.00000
 Mulliken charges with hydrogens summed into heavy atoms:
               1
     1  C   -0.040796
     2  C    0.007107
     3  C    0.179096
     4  C   -0.040511
     5  N   -0.092467
     6  N   -0.075388
     7  C    0.026939
     8  C    0.275383
     9  O   -0.281979
    10  C    0.136434
    11  N   -0.089279
    12  O   -0.089447
    13  C    0.144648
    14  N   -0.059739
 Electronic spatial extent (au):  <R**2>=           5247.8658
 Charge=             -0.0000 electrons
 Dipole moment (field-independent basis, Debye):
    X=              1.5199    Y=              1.5598    Z=             -0.1651  Tot=              2.1841
 Quadrupole moment (field-independent basis, Debye-Ang):
   XX=            -85.6481   YY=            -81.5276   ZZ=            -89.9047
   XY=             -7.4395   XZ=              3.0809   YZ=              2.8429
 Traceless Quadrupole moment (field-independent basis, Debye-Ang):
   XX=              0.0454   YY=              4.1658   ZZ=             -4.2112
   XY=             -7.4395   XZ=              3.0809   YZ=              2.8429
 Octapole moment (field-independent basis, Debye-Ang**2):
  XXX=            -37.3294  YYY=            -10.0662  ZZZ=             -2.0528  XYY=             -0.8996
  XXY=             41.9756  XXZ=            -15.5313  XZZ=            -17.1194  YZZ=              0.3140
  YYZ=             -2.2642  XYZ=            -13.2686
 Hexadecapole moment (field-independent basis, Debye-Ang**3):
 XXXX=          -5646.6602 YYYY=           -705.1976 ZZZZ=           -186.3497 XXXY=           -267.3252
 XXXZ=             69.9393 YYYX=             11.8893 YYYZ=              8.2023 ZZZX=              9.6680
 ZZZY=             -2.3723 XXYY=          -1140.5355 XXZZ=           -984.5469 YYZZ=           -168.0726
 XXYZ=             25.6282 YYXZ=             19.8444 ZZXY=              7.5567
 N-N= 9.887288463342D+02 E-N=-3.580222450790D+03  KE= 6.822864870020D+02
 PrsmSu:  requested number of processors reduced to:  13 ShMem   1 Linda.
 Calling FoFJK, ICntrl=      2127 FMM=F ISym2X=0 I1Cent= 0 IOpClX= 0 NMat=1 NMatS=1 NMatT=0.
 ***** Axes restored to original set *****
 -------------------------------------------------------------------
 Center     Atomic                   Forces (Hartrees/Bohr)
 Number     Number              X              Y              Z
 -------------------------------------------------------------------
      1        6          -0.004180659   -0.002914399    0.001697626
      2        6          -0.001323354    0.000854888    0.000601162
      3        6           0.005976198   -0.007075489    0.002953145
      4        6           0.004701801    0.000411030   -0.003187256
      5        7          -0.009057812   -0.000012135    0.022788974
      6        7           0.008749450    0.017725303   -0.020418641
      7        6          -0.000838608    0.002979320    0.000337866
      8        6          -0.011948134   -0.013211548    0.009546478
      9        8           0.012429113   -0.009729772   -0.006683983
     10        6           0.006794270    0.002026727    0.003206920
     11        7          -0.011604897    0.004631906   -0.000366036
     12        8          -0.004353227    0.004219047    0.014056043
     13        6           0.012739116    0.007288219    0.003033125
     14        7           0.008794610   -0.004477836   -0.003884194
     15        1          -0.002249685   -0.001800192   -0.000839222
     16        1          -0.002336048   -0.000600146    0.000367332
     17        1          -0.000789329   -0.001063963   -0.000470843
     18        1           0.001993390    0.000193845   -0.000089402
     19        1           0.002297733    0.000603079   -0.001731493
     20        1          -0.003680645    0.001783674   -0.001962510
     21        1           0.000843473   -0.000826084    0.000134571
     22        1           0.000789488   -0.004093066    0.000365396
     23        1           0.002139180   -0.000206052   -0.000614247
     24        1          -0.002926471    0.013171523   -0.004194017
     25        1          -0.004414760   -0.011214877   -0.001136540
     26        1           0.002328304    0.004757496   -0.001274797
     27        1           0.005508546    0.000460326    0.001419070
     28        1          -0.003616045   -0.000568319   -0.001235179
     29        1           0.007048591    0.003961030   -0.004175723
     30        1          -0.006844558   -0.003516048    0.000138563
     31        1          -0.000908802   -0.001845554    0.000913753
     32        1           0.001293812    0.008184630   -0.009597531
     33        1          -0.015801441   -0.007305201    0.004666012
     34        1          -0.000262647   -0.002485126   -0.004338479
     35        1           0.001616492    0.000726345   -0.000286500
     36        1           0.001093556   -0.001032582    0.000260553
 -------------------------------------------------------------------
 Cartesian Forces:  Max     0.022788974 RMS     0.006257326

 GradGradGradGradGradGradGradGradGradGradGradGradGradGradGradGradGradGrad
 Berny optimization.
 FormGI is forming the generalized inverse of G from B-inverse, IUseBI=4.
 Internal  Forces:  Max     0.028743466 RMS     0.006291963
 Search for a local minimum.
 Step number   1 out of a maximum of  185
 All quantities printed in internal units (Hartrees-Bohrs-Radians)
 Mixed Optimization -- RFO/linear search
 Second derivative matrix not updated -- first step.
 ITU=  0
     Eigenvalues ---    0.00230   0.00230   0.00349   0.00426   0.00491
     Eigenvalues ---    0.00555   0.00557   0.00799   0.00825   0.00902
     Eigenvalues ---    0.00984   0.01132   0.01439   0.03584   0.03633
     Eigenvalues ---    0.03880   0.04045   0.04289   0.04518   0.04653
     Eigenvalues ---    0.04894   0.04965   0.05157   0.05207   0.05271
     Eigenvalues ---    0.05344   0.05398   0.05564   0.05598   0.05700
     Eigenvalues ---    0.05759   0.06747   0.07676   0.08273   0.09192
     Eigenvalues ---    0.09478   0.09788   0.10498   0.10904   0.11233
     Eigenvalues ---    0.12150   0.12664   0.12924   0.15720   0.16000
     Eigenvalues ---    0.16000   0.16000   0.16000   0.16000   0.16000
     Eigenvalues ---    0.16000   0.16000   0.16000   0.16000   0.16000
     Eigenvalues ---    0.16000   0.16312   0.17155   0.17974   0.19219
     Eigenvalues ---    0.19969   0.21915   0.21939   0.21980   0.23527
     Eigenvalues ---    0.24080   0.25000   0.25490   0.28008   0.29282
     Eigenvalues ---    0.30294   0.33652   0.33737   0.33901   0.33915
     Eigenvalues ---    0.33946   0.33960   0.33992   0.34054   0.34135
     Eigenvalues ---    0.34165   0.34209   0.34232   0.34271   0.34396
     Eigenvalues ---    0.34475   0.34535   0.34610   0.34633   0.34792
     Eigenvalues ---    0.36040   0.36265   0.37000   0.37793   0.39266
     Eigenvalues ---    0.40206   0.42596   0.42764   0.44712   0.44868
     Eigenvalues ---    0.44874   0.52244
 RFO step:  Lambda=-3.55959472D-02 EMin= 2.30000000D-03
 Linear search not attempted -- first point.
 Maximum step size (   0.300) exceeded in Quadratic search.
    -- Step size scaled by   0.888
 Iteration  1 RMS(Cart)=  0.27805667 RMS(Int)=  0.01308218
 Iteration  2 RMS(Cart)=  0.05227522 RMS(Int)=  0.00072256
 Iteration  3 RMS(Cart)=  0.00132691 RMS(Int)=  0.00055223
 Iteration  4 RMS(Cart)=  0.00000136 RMS(Int)=  0.00055223
 Iteration  5 RMS(Cart)=  0.00000000 RMS(Int)=  0.00055223
 Variable       Old X    -DE/DX   Delta X   Delta X   Delta X     New X
                                 (Linear)    (Quad)   (Total)
    R1        2.87380   0.00973   0.00000   0.02550   0.02550   2.89930
    R2        2.06312   0.00178   0.00000   0.00414   0.00414   2.06726
    R3        2.06875   0.00050   0.00000   0.00116   0.00116   2.06991
    R4        2.06667  -0.00075   0.00000  -0.00176  -0.00176   2.06491
    R5        2.89418   0.00578   0.00000   0.01561   0.01561   2.90979
    R6        2.07343   0.00055   0.00000   0.00129   0.00129   2.07472
    R7        2.07397  -0.00084   0.00000  -0.00198  -0.00198   2.07199
    R8        2.92122  -0.00807   0.00000  -0.02269  -0.02269   2.89853
    R9        2.80774  -0.00541   0.00000  -0.01281  -0.01281   2.79493
   R10        2.07776   0.00300   0.00000   0.00714   0.00714   2.08490
   R11        2.06940   0.00032   0.00000   0.00074   0.00074   2.07014
   R12        2.06535  -0.00101   0.00000  -0.00235  -0.00235   2.06301
   R13        2.06437   0.00075   0.00000   0.00175   0.00175   2.06612
   R14        2.71274   0.01295   0.00000   0.02626   0.02626   2.73901
   R15        1.94662  -0.01068   0.00000  -0.02047  -0.02047   1.92615
   R16        2.77320   0.00330   0.00000   0.00739   0.00739   2.78059
   R17        1.92312  -0.00838   0.00000  -0.01541  -0.01541   1.90771
   R18        2.97979  -0.01436   0.00000  -0.04387  -0.04387   2.93591
   R19        2.07238  -0.00249   0.00000  -0.00587  -0.00587   2.06651
   R20        2.07422   0.00293   0.00000   0.00692   0.00692   2.08114
   R21        2.72563  -0.01616   0.00000  -0.03349  -0.03349   2.69214
   R22        2.80798  -0.00665   0.00000  -0.01575  -0.01575   2.79223
   R23        2.07921   0.00243   0.00000   0.00580   0.00580   2.08502
   R24        2.68172  -0.00576   0.00000  -0.01107  -0.01107   2.67065
   R25        2.06275   0.00260   0.00000   0.00604   0.00604   2.06879
   R26        2.06014   0.00492   0.00000   0.01138   0.01138   2.07152
   R27        2.06979   0.00008   0.00000   0.00019   0.00019   2.06997
   R28        2.76969  -0.01320   0.00000  -0.02942  -0.02942   2.74027
   R29        2.75846  -0.00260   0.00000  -0.00569  -0.00569   2.75277
   R30        1.84366  -0.01191   0.00000  -0.01894  -0.01894   1.82472
   R31        2.74667   0.01155   0.00000   0.02479   0.02479   2.77145
   R32        2.07103   0.00014   0.00000   0.00033   0.00033   2.07136
   R33        2.07052   0.00426   0.00000   0.01002   0.01002   2.08054
   R34        1.92129   0.00024   0.00000   0.00043   0.00043   1.92172
   R35        1.92122  -0.00060   0.00000  -0.00111  -0.00111   1.92012
    A1        1.92374   0.00170   0.00000   0.00725   0.00722   1.93097
    A2        1.92915   0.00250   0.00000   0.01072   0.01069   1.93984
    A3        1.95170   0.00100   0.00000   0.00563   0.00560   1.95730
    A4        1.89898  -0.00272   0.00000  -0.01449  -0.01451   1.88447
    A5        1.86887  -0.00109   0.00000  -0.00371  -0.00374   1.86514
    A6        1.88954  -0.00167   0.00000  -0.00668  -0.00672   1.88282
    A7        1.95788   0.01281   0.00000   0.04828   0.04823   2.00611
    A8        1.89366  -0.00353   0.00000  -0.01073  -0.01035   1.88331
    A9        1.91027  -0.00137   0.00000   0.00844   0.00845   1.91872
   A10        1.91326  -0.00478   0.00000  -0.02343  -0.02352   1.88974
   A11        1.91845  -0.00520   0.00000  -0.01865  -0.01937   1.89908
   A12        1.86799   0.00158   0.00000  -0.00634  -0.00671   1.86128
   A13        1.92649   0.00688   0.00000   0.02622   0.02612   1.95261
   A14        1.87523  -0.00247   0.00000  -0.01199  -0.01182   1.86340
   A15        1.89980  -0.00218   0.00000  -0.00742  -0.00745   1.89235
   A16        1.97556  -0.00485   0.00000  -0.02357  -0.02344   1.95212
   A17        1.89002  -0.00092   0.00000  -0.00126  -0.00122   1.88879
   A18        1.89543   0.00355   0.00000   0.01829   0.01825   1.91369
   A19        1.94416  -0.00076   0.00000  -0.00541  -0.00547   1.93868
   A20        1.94945  -0.00428   0.00000  -0.01930  -0.01936   1.93009
   A21        1.96893  -0.00082   0.00000  -0.00193  -0.00193   1.96700
   A22        1.89084   0.00196   0.00000   0.00553   0.00540   1.89624
[...]
 00470,0.00000426,0.00001703,0.00000050,-0.00000706,-0.00000407,0.00002
 457,0.00001318,0.00001120,-0.00003375,0.00000470,-0.00002366,-0.000009
 28,0.00002760,0.00000701,-0.00016289,-0.00012290,0.00013552,0.00010681
 ,0.00018034,-0.00007541,-0.00005890,-0.00011394,-0.00002809,0.00048689
 ,0.00048728,0.00081062,0.00743471,0.00580919,-0.01804112,0.00029869,-0
 .00108598,-0.00128470,-0.06339484,-0.07813845,0.27965784,-0.00000715,0
 .00000549,-0.00000459,0.00000632,-0.00000602,0.00002064,-0.00008296,-0
 .00000524,0.00000060,0.00000511,0.00000077,0.00000159,0.00006352,-0.00
 004491,-0.00008183,0.00011633,0.00006581,-0.00004851,-0.00015904,-0.00
 023761,0.00005850,-0.00308624,-0.00084455,0.00064544,0.00089646,-0.001
 96350,-0.00064217,-0.00011159,0.00034315,-0.00039011,0.00822237,-0.005
 03526,-0.00465658,-0.42909353,0.10209354,0.13942368,0.00597545,-0.0019
 3220,-0.00263710,-0.00150370,0.00245160,-0.00263589,0.00000808,0.00001
 558,-0.00000443,-0.00000207,-0.00000666,-0.00000367,0.00000482,-0.0000
 0464,0.00000320,0.00000052,-0.00000494,0.00000753,0.00000766,-0.000000
 85,-0.00001069,0.00001033,-0.00000783,-0.00001674,0.00000916,-0.000004
 07,-0.00001325,0.00001085,0.00000441,0.00000826,-0.00002021,0.00000959
 ,-0.00000536,-0.00002013,0.00002703,0.00004345,-0.00000295,-0.00001069
 ,0.00002837,-0.00003823,0.00019202,0.00008423,0.00002801,0.00006087,0.
 00008751,0.00056804,-0.00012779,0.00019967,0.00004095,-0.00013996,-0.0
 0001354,0.00006944,-0.00008464,0.00005109,0.00007632,-0.00004868,0.000
 08603,0.42055828,-0.00000367,-0.00000272,0.00003086,-0.00003293,0.0000
 2308,-0.00002498,0.00006070,0.00004169,0.00005961,0.00000080,-0.000001
 91,-0.00000684,-0.00004629,0.00001424,0.00002357,0.00006328,0.00002751
 ,0.00024277,-0.00091608,0.00000046,0.00001158,-0.00322765,-0.00586753,
 -0.00260140,0.00143246,-0.00166566,-0.00122985,-0.00010848,0.00035757,
 -0.00067487,0.03296905,-0.01849687,-0.02129752,0.05979719,-0.04396753,
 -0.03972129,0.00478595,-0.00569444,-0.00252469,0.00161380,0.00091251,-
 0.00052326,-0.00000920,-0.00001032,-0.00000014,-0.00000406,0.00000051,
 -0.00001776,0.00001009,-0.00000285,-0.00000471,0.00001393,-0.00000779,
 0.00001688,0.00000684,-0.00000828,-0.00000459,0.00001237,0.00000489,-0
 .00002663,0.00000185,-0.00000234,0.00000118,-0.00001136,-0.00000056,-0
 .00000628,0.00001470,-0.00001371,0.00000944,0.00000896,-0.00001691,0.0
 0000040,-0.00010366,0.00001931,0.00005798,0.00023994,0.00039376,-0.000
 04833,0.00007497,0.00006667,0.00009481,-0.00052843,0.00032839,0.000357
 73,0.00007927,-0.00013908,0.00005102,0.00003080,-0.00008032,0.00005066
 ,0.00006242,-0.00006427,0.00017697,-0.09663464,0.07053727,0.00000117,0
 .00000262,0.00001358,0.00001316,-0.00000342,-0.00000910,0.00007587,0.0
 0002166,0.00001287,-0.00000397,0.00000004,-0.00000291,-0.00001453,0.00
 001523,0.00003140,-0.00028391,0.00006724,-0.00002714,0.00052829,0.0000
 8710,0.00024374,-0.00259079,-0.00282841,-0.00376420,0.00135092,-0.0008
 8388,-0.00011473,0.00001600,-0.00015193,-0.00039413,0.02899687,-0.0134
 1837,-0.01480765,0.10494433,-0.04837094,-0.05830644,-0.00086903,-0.000
 20657,0.00390429,-0.00053946,0.00031307,-0.00336379,-0.00000439,-0.000
 01069,0.00000054,0.00000496,0.00000048,-0.00000147,-0.00000906,0.00000
 280,-0.00000407,-0.00000998,0.00001189,-0.00000824,-0.00000681,-0.0000
 0100,0.00000403,-0.00000265,0.00000314,0.00000494,-0.00000696,0.000001
 73,0.00000746,-0.00001745,-0.00000560,-0.00000767,0.00002014,-0.000005
 55,0.00000530,0.00001682,-0.00000461,-0.00002272,0.00000716,-0.0000722
 9,0.00002408,0.00020334,-0.00006599,-0.00039837,-0.00005454,0.00005788
 ,-0.00013930,-0.00025382,-0.00016731,0.00006293,0.00007572,-0.00006742
 ,0.00005284,0.00003257,-0.00003963,-0.00000791,-0.00004262,0.00001754,
 0.00002710,-0.13133425,0.06628436,0.07818180,0.00000203,0.00000061,-0.
 00000827,0.00000592,0.00000116,0.00000923,-0.00000953,-0.00001247,-0.0
 0004884,-0.00000246,-0.00000363,0.00000822,-0.00001297,0.00003065,0.00
 004406,-0.00000066,0.00002951,0.00000246,-0.00001667,0.00002848,-0.000
 03545,0.00003668,-0.00160269,-0.00132466,-0.00049453,0.00108249,0.0011
 7966,-0.00119425,0.00028871,0.00094710,0.00040445,-0.00997822,-0.01067
 976,-0.00088489,-0.00655496,0.00224706,-0.05399850,-0.02417298,-0.0179
 2730,-0.00655327,0.03074615,0.02134114,0.00000135,0.00000260,0.0000013
 0,0.00000005,0.00000166,0.00000331,-0.00000106,-0.00000008,0.00000073,
 -0.00000104,0.00000114,-0.00000255,-0.00000196,-0.00000033,0.00000272,
 -0.00000241,0.00000785,0.00001568,-0.00000285,0.00000040,0.00000198,0.
 00000617,0.00000456,0.00000121,-0.00000483,-0.00000145,-0.00000774,0.0
 0000665,0.00001376,-0.00000980,-0.00004534,-0.00003995,0.00011321,0.00
 012926,0.00011827,-0.00006720,0.00000859,0.00001684,-0.00001829,-0.000
 02496,0.00006126,0.00007692,0.00002456,0.00001052,-0.00004225,0.000154
 00,-0.00004574,-0.00017066,-0.00024424,0.00018120,-0.00023658,-0.00177
 350,0.00001347,0.00047331,0.06196640,0.00000287,0.00000010,-0.00001020
 ,0.00000838,0.00000173,0.00001071,0.00000333,-0.00001374,-0.00005730,-
 0.00000379,-0.00000459,0.00000961,-0.00003083,0.00003628,0.00009142,0.
 00000241,0.00006662,0.00001717,-0.00015802,0.00001368,-0.00007397,0.00
 012632,-0.00269068,-0.00192386,0.00305550,0.00159995,-0.00108924,-0.00
 017275,0.00099102,-0.00016495,-0.00589823,-0.02333479,-0.01343617,-0.0
 0264792,-0.00520617,0.00272004,-0.02502388,-0.21687510,-0.10752757,0.0
 0655096,-0.00671662,-0.00769194,0.00000161,0.00000218,0.00000116,0.000
 00097,0.00000180,0.00000545,-0.00000307,0.00000077,0.00000085,-0.00000
 252,0.00000282,-0.00000558,-0.00000407,0.00000032,0.00000492,-0.000002
 68,0.00001020,0.00002267,-0.00000521,0.00000142,0.00000289,0.00000487,
 0.00000326,0.00000148,-0.00000217,0.00000023,-0.00000707,0.00000914,0.
 00000898,-0.00002592,-0.00008999,-0.00004908,0.00014360,0.00017857,0.0
 0012495,-0.00008420,0.00000689,0.00000411,-0.00002007,-0.00026256,0.00
 016814,0.00018562,-0.00001714,0.00000484,-0.00005182,0.00010896,-0.000
 11010,-0.00000470,-0.00018727,-0.00002897,0.00001266,-0.00004564,0.000
 74853,0.00002471,0.02335400,0.24383209,0.00000091,-0.00000065,0.000000
 14,-0.00000144,-0.00000038,-0.00000152,0.00001039,0.00000422,0.0000104
 6,-0.00000226,-0.00000264,-0.00000113,-0.00003264,0.00000279,0.0000156
 8,-0.00002082,-0.00002648,-0.00002335,-0.00004742,0.00009870,-0.000000
 39,-0.00003308,-0.00045676,0.00091062,0.00232320,0.00009427,-0.0024327
 5,0.00070720,-0.00055128,0.00028606,0.00037749,0.01522042,0.01041107,0
 .00299320,0.00489408,0.00089347,-0.02207043,-0.11774465,-0.13343768,0.
 00534692,-0.00938471,-0.00301849,-0.00000002,-0.00000011,-0.00000023,-
 0.00000043,-0.00000008,0.00000036,-0.00000084,0.00000007,-0.00000042,-
 0.00000074,0.00000126,-0.00000033,0.00000034,0.00000021,0.00000043,-0.
 00000098,0.00000014,-0.00000254,-0.00000042,-0.00000047,0.00000141,-0.
 00000037,0.00000098,-0.00000042,0.00000165,-0.00000054,-0.00000100,0.0
 0000219,0.00000419,-0.00000435,0.00001888,-0.00002237,0.00000477,-0.00
 005584,-0.00005204,0.00002066,-0.00001284,0.00000332,-0.00000528,0.000
 09780,-0.00007434,-0.00014901,0.00001245,0.00005157,-0.00008028,-0.000
 09580,0.00017611,-0.00014813,-0.00032648,0.00025922,-0.00022356,0.0007
 7430,0.00011540,-0.00053820,0.01261000,0.12592610,0.13850735,-0.000000
 04,-0.00000043,-0.00000063,-0.00000101,0.00000173,-0.00000098,-0.00000
 462,-0.00000120,-0.00000518,0.00000101,0.00000040,-0.00000062,0.000010
 86,0.00002006,-0.00000852,-0.00008422,0.00003732,-0.00006396,-0.000020
 66,-0.00023432,0.00014861,0.00471286,-0.00108606,0.00108241,-0.0000487
 4,-0.00007942,-0.00019748,-0.00006095,0.00054264,-0.00029013,0.0075497
 1,-0.00630652,0.01547274,0.00077271,0.00292884,0.00082941,-0.12227110,
 0.02041014,-0.10205864,-0.02463289,0.00820358,-0.02454767,-0.00000064,
 -0.00000114,0.00000086,-0.00000078,0.00000114,0.,0.00000184,-0.0000000
 7,-0.00000014,0.00000228,-0.00000203,0.00000103,-0.00000051,0.00000016
 ,0.00000080,-0.00000032,0.00000092,0.00000120,-0.00000021,-0.00000009,
 0.00000130,0.00000199,0.00000097,0.00000010,-0.00000198,-0.00000226,-0
 .00000042,0.00001546,-0.00000792,-0.00000294,-0.00000372,0.00000405,-0
 .00000450,-0.00001682,-0.00000652,-0.00000376,-0.00021652,0.00004395,-
 0.00005117,0.00023215,0.00042160,-0.00160518,-0.00003325,-0.00002887,0
 .00008589,-0.00000752,-0.00000474,0.00002758,-0.00009853,-0.00002418,0
 .00023528,-0.00056361,-0.00018505,-0.00037895,-0.00033091,0.00058325,-
 0.00294198,0.13963921,-0.00000023,-0.00000065,0.00000828,-0.00000345,-
 0.00000112,-0.00001053,0.00003236,0.00002236,0.00004058,-0.00000223,-0
 .00000181,-0.00000484,-0.00004799,0.00001298,0.00002505,-0.00018363,-0
 .00007359,-0.00002806,-0.00024259,0.00008943,0.00001236,0.00264404,-0.
 00059513,-0.00141103,0.00074237,0.00033351,-0.00019888,-0.00023801,0.0
 0014412,-0.00009528,0.00614809,-0.01224372,0.02921439,0.00143640,0.005
 58608,-0.00071930,0.01910754,-0.05866478,0.02214367,0.01116880,-0.0026
 8046,0.01090111,-0.00000237,-0.00000436,-0.00000084,0.00000074,-0.0000
 0092,-0.00000241,-0.00000150,0.00000051,-0.00000146,-0.00000095,0.0000
 0266,-0.00000038,-0.00000030,-0.00000022,-0.00000050,0.00000102,-0.000
 00313,-0.00001028,-0.00000105,0.00000013,0.00000101,-0.00000840,-0.000
 00263,-0.00000249,0.00000971,-0.00000133,0.00000520,0.00001320,-0.0000
 0960,-0.00001204,-0.00000246,-0.00002417,0.00001631,-0.00003764,-0.000
 02940,-0.00000562,-0.00000885,0.00015421,-0.00019219,-0.00096837,0.000
 44583,-0.00031658,-0.00002085,0.00002421,0.00006619,0.00004261,-0.0000
 1063,0.00003200,0.00002330,-0.00011232,-0.00007282,0.00031624,-0.00030
 377,0.00025796,-0.01381747,0.00669300,-0.01971935,-0.02829630,0.060531
 74,-0.00000283,0.00000406,-0.00001405,0.00000983,-0.00000049,0.0000242
 2,-0.00010665,-0.00002569,-0.00005540,0.00001227,0.00001121,0.00000365
 ,0.00011044,-0.00003363,-0.00006921,0.00034205,0.00005888,-0.00003949,
 0.00047867,-0.00012188,0.00026631,-0.00500003,0.00164562,0.00177068,0.
 00082554,-0.00114188,-0.00021005,-0.00026936,0.00110668,-0.00102126,-0
 .00381684,0.01422389,-0.03091039,0.00168054,-0.00245850,0.00614386,-0.
 10944266,0.02850188,-0.20313263,0.00756880,-0.00306643,0.00934747,0.00
 000639,0.00001107,0.00000080,-0.00000288,0.00000004,0.00000158,0.00000
 790,-0.00000203,0.00000309,0.00000548,-0.00001116,0.00000585,0.0000026
 9,0.00000073,-0.00000426,0.00000432,0.00000050,0.00000627,0.00000543,-
 0.00000492,-0.00000518,0.00002066,0.00000704,0.00000761,-0.00002708,0.
 00000236,-0.00001336,-0.00002240,0.00001436,0.00002997,-0.00002377,0.0
 0005352,-0.00004401,0.00000594,-0.00000189,0.00003084,-0.00003155,-0.0
 0028772,0.00033937,0.00208169,-0.00068629,0.00036405,-0.00004094,-0.00
 012333,0.00016212,0.00006507,-0.00008729,0.00017910,0.00000388,-0.0004
 2397,0.00032102,0.00029166,0.00046667,-0.00081044,-0.00914114,0.003070
 24,-0.01172785,0.11260398,-0.03941334,0.22708105,-0.00000036,-0.000000
 31,-0.00000556,0.00000219,-0.00000093,0.00000583,-0.00002890,-0.000007
 88,-0.00001070,0.00000251,-0.00000046,0.00000100,0.00000259,-0.0000031
 7,-0.00000335,0.00006426,-0.00001272,-0.00000072,-0.00004018,0.0000429
 2,0.00010620,-0.00033778,-0.00020750,0.00059536,0.00017203,-0.00011047
 ,0.00002445,-0.00005613,0.00022806,-0.00014195,0.00130875,-0.00074147,
 -0.00010373,-0.00020882,0.00009932,0.00050081,-0.02461445,-0.00269991,
 -0.02865551,-0.22397028,-0.00751335,-0.17926116,0.00000168,0.00000517,
 -0.00000105,-0.00000157,0.00000028,0.00000161,0.00000238,-0.00000189,0
 .00000209,0.00000062,-0.00000209,0.00000170,0.00000183,0.00000032,-0.0
 0000123,0.00000243,-0.00000015,0.00000058,0.00000159,-0.00000027,-0.00
 000166,0.00000584,0.00000245,0.00000273,-0.00000779,0.00000225,-0.0000
 0357,-0.00000468,0.00000422,0.00000584,-0.00001173,0.00000591,0.000000
 87,0.00000401,0.00001220,0.00000361,-0.00000692,-0.00004307,0.00005717
 ,0.00047087,-0.00010831,-0.00004545,-0.00001485,-0.00001880,0.00002296
 ,0.00001938,-0.00002111,0.00002843,-0.00001570,-0.00004913,0.00005244,
 -0.00030425,0.00016211,-0.00043091,0.00256475,0.00012583,0.00029015,-0
 .00498959,0.00256064,0.00281918,0.23975118,0.00000117,-0.00000151,0.00
 000345,-0.00001005,0.00000603,-0.00000511,0.00000228,0.00000135,0.0000
 0707,0.00000171,0.00000119,0.00000025,-0.00000793,-0.00000117,0.000000
 65,0.00005157,-0.00006127,0.00004550,-0.00016439,0.00005793,-0.0000599
 4,0.00001755,0.00022336,0.00058911,-0.00044396,-0.00030760,0.00005116,
 0.00008841,-0.00001984,-0.00003909,-0.00047095,-0.00000053,-0.00104203
 ,-0.00144145,-0.00158113,0.00131000,0.01833512,-0.00412519,0.01176028,
 -0.04206904,-0.01896998,-0.03971731,-0.00000272,-0.00000230,0.00000082
 ,-0.00000140,0.00000164,-0.00000212,0.00000369,-0.00000051,-0.00000005
 ,0.00000509,-0.00000405,0.00000350,0.00000141,-0.00000117,-0.00000081,
 0.00000076,-0.00000001,-0.00000421,0.00000106,0.00000025,-0.00000039,0
 .00000008,-0.00000031,-0.00000102,0.00000024,-0.00000249,0.00000199,-0
 .00000348,-0.00000770,0.00000240,0.00000153,0.00002746,-0.00003264,0.0
 0000565,0.00000303,-0.00000061,0.00002830,-0.00000406,0.00005730,0.000
 10363,-0.00009475,-0.00004262,0.00002387,-0.00001673,-0.00003520,-0.00
 003616,-0.00001123,0.00002002,0.00004959,0.00001489,0.00005635,-0.0003
 7046,0.00148765,-0.00190704,-0.00078663,0.00115199,0.00176218,0.003651
 74,-0.00017013,-0.00137689,0.00950245,0.02510901,0.00000097,-0.0000012
 8,0.00000109,0.00000078,0.00000035,-0.00000469,0.00001875,0.00000513,0
 .00000486,-0.00000124,-0.00000280,-0.00000284,0.00000116,0.00000017,-0
 .00000426,-0.00005136,0.00003430,-0.00000372,0.00006410,-0.00005407,-0
 .00003894,0.00035348,-0.00013296,-0.00028527,-0.00004169,0.00011524,-0
 .00005420,0.00002556,-0.00009456,0.00008663,-0.00109271,-0.00071755,0.
 00125348,-0.00021855,0.00001835,-0.00037471,0.01075609,-0.00180512,0.0
 0990897,-0.18038251,-0.00132268,-0.26147161,-0.00000196,-0.00000180,-0
 .00000014,-0.00000044,0.00000098,0.00000017,-0.00000108,-0.00000072,0.
 00000002,-0.00000208,0.00000276,0.,0.00000039,-0.00000023,0.00000169,-
 0.00000177,-0.00000004,-0.00000050,-0.00000082,0.00000189,0.00000282,-
 0.00000384,-0.00000082,-0.00000214,0.00000448,-0.00000160,0.00000283,0
 .00000435,-0.00000116,0.00000265,0.00000881,-0.00000864,0.00000885,-0.
 00001118,0.00000318,-0.00000416,-0.00001164,0.00003379,-0.00003939,-0.
 00018356,0.00011160,-0.00014937,0.00000796,0.00000233,-0.00000844,-0.0
 0001211,0.00001142,-0.00002312,-0.00002344,0.00004374,-0.00003495,-0.0
 0031919,-0.00022747,-0.00002737,0.00095011,-0.00011805,0.00107956,0.00
 250990,-0.00046412,0.00081673,0.19157672,0.01204972,0.27169833,0.00000
 206,-0.00000335,0.00000834,-0.00001005,0.00000187,-0.00001553,0.000058
 37,0.00002330,0.00004443,-0.00000419,-0.00000604,-0.00000383,-0.000107
 34,0.00001164,0.00011382,-0.00009746,-0.00025551,0.00008766,-0.0005449
 7,0.00056542,0.00002440,-0.00030662,-0.00244816,0.00036086,0.00016021,
 0.00033446,-0.00008815,0.00009710,-0.00022697,0.00018292,-0.00764626,0
 .00375586,0.00309264,0.00018603,0.00050608,0.00029523,-0.00799116,-0.0
 2149821,0.02540545,-0.10398054,-0.05685566,0.10511956,-0.00000399,-0.0
 0000470,-0.00000134,0.00000005,-0.00000009,-0.00000174,-0.00000186,0.,
 -0.00000091,-0.00000077,0.00000341,-0.00000042,0.00000088,-0.00000026,
 0.00000038,-0.00000245,-0.00000297,-0.00001281,-0.00000135,0.00000152,
 0.00000232,-0.00001008,-0.00000268,-0.00000383,0.00001184,-0.00000126,
 0.00000582,0.00000030,-0.00000764,-0.00001414,0.00000083,0.00000108,0.
 00000930,0.00000622,0.00000737,-0.00002190,0.00001929,-0.00001128,0.00
 002960,-0.00016923,0.00002996,-0.00000313,-0.00000642,0.00004128,-0.00
 001375,-0.00001482,0.00000830,-0.00002749,-0.00002322,0.00005149,-0.00
 005337,0.00009114,0.00035656,0.00009344,0.00028995,0.00043391,0.000077
 78,0.00044908,-0.00036242,-0.00102429,0.01023508,0.01393171,-0.0239224
 6,0.10931435,0.00000113,-0.00000168,0.00001056,-0.00000461,0.00000455,
 -0.00001410,0.00005426,0.00001744,0.00002337,-0.00000122,-0.00000091,-
 0.00000413,-0.00002840,0.00000617,0.00003450,-0.00005648,0.00000110,0.
 00004881,-0.00002551,0.00003157,-0.00005055,0.00033859,-0.00020928,-0.
 00091926,0.00000918,0.00026657,0.00017721,0.00004915,-0.00007224,0.000
 01366,-0.00084860,-0.00201683,0.00046711,-0.00179387,0.00061905,0.0008
 9341,0.01173281,0.00163255,-0.01808635,-0.07199393,-0.12189508,0.19506
 090,-0.00000533,-0.00000841,0.00000050,0.00000080,0.00000195,-0.000002
 37,-0.00000105,0.00000065,-0.00000190,-0.00000112,0.00000292,-0.000000
 20,-0.00000096,-0.00000158,0.00000201,-0.00000275,-0.00000002,-0.00000
 479,-0.00000271,0.00000211,0.00000470,-0.00001138,-0.00000381,-0.00000
 574,0.00001378,-0.00000490,0.00000718,0.00000718,-0.00001309,-0.000009
 82,-0.00000515,0.00000402,-0.00000092,0.00001838,0.00003176,-0.0000088
 0,-0.00000760,0.00000443,-0.00000573,-0.00024548,0.00006242,0.00008188
 ,0.00000049,0.00001587,0.00000396,-0.00002536,-0.00000123,0.00000443,0
 .00001435,-0.00000090,0.00000371,0.00197465,0.00138280,0.00104120,0.00
 102130,-0.00043921,-0.00057839,-0.00058538,0.00089311,0.00008858,-0.00
 121115,-0.00270211,-0.00747929,0.06162198,0.12239024,0.00000061,0.0000
 0067,0.00000837,-0.00000361,0.00000086,-0.00000439,0.00002102,0.000009
 57,0.00001882,-0.00000100,0.00000292,0.00000031,-0.00002535,-0.0000063
 2,-0.00000111,-0.00001422,-0.00000068,0.00001460,-0.00006765,-0.000025
 08,0.00004279,0.00014012,0.00032364,0.00069905,-0.00022907,-0.00004286
 ,0.00014239,0.00004073,-0.00000365,-0.00005033,0.00197173,-0.00144456,
 -0.00052208,-0.00125165,-0.00021536,0.00034685,0.00222602,0.00621389,-
 0.00821225,0.09429786,0.14863215,-0.27761617,-0.00000185,-0.00000500,0
 .00000100,0.00000172,-0.00000061,-0.00000363,-0.00000170,0.00000221,-0
 .00000231,0.00000037,0.00000071,-0.00000057,-0.00000120,-0.00000095,-0
 .00000093,0.00000055,-0.00000033,-0.00000359,-0.00000056,-0.00000057,-
 0.00000026,-0.00000539,-0.00000306,-0.00000263,0.00000626,-0.00000134,
 0.00000319,0.00000384,-0.00000166,-0.00000980,0.00000241,0.00000647,-0
 .00001572,0.00001654,0.00000799,-0.00000325,-0.00000679,0.00000941,0.0
 0000159,0.00017708,-0.00005360,-0.00008917,0.00000246,-0.00000492,0.00
 000280,-0.00002210,-0.00000613,0.00002106,0.00004595,-0.00003204,0.000
 03222,0.00100217,0.00088871,0.00017893,-0.00030897,0.00004131,-0.00034
 512,-0.00083824,-0.00004177,0.00115191,0.01256681,0.01654534,-0.022338
 83,-0.10974486,-0.17079535,0.30655623\\-0.00000054,-0.00000233,0.00000
 213,-0.00000126,-0.00000412,-0.00000135,-0.00000347,-0.00000529,0.0000
 0488,0.00000066,0.00000464,-0.00000440,0.00000283,0.00000537,-0.000011
 95,0.00000858,-0.00000291,0.00000548,-0.00000969,0.00001176,0.00001282
 ,0.00000347,-0.00000021,0.00001286,-0.00000358,0.00001422,-0.00000255,
 0.00000535,-0.00000896,-0.00000127,-0.00000739,-0.00001109,-0.00001459
 ,0.00001111,0.00002033,0.00000690,0.00000027,0.00000052,-0.00000153,-0
 .00000197,-0.00000561,0.00000440,-0.00000079,-0.00000105,-0.00000219,-
 0.00000022,0.00000033,-0.00000111,0.00000038,0.00000017,0.00000044,-0.
 00000103,0.00000117,0.00000130,-0.00000043,0.00000023,-0.00000035,-0.0
 0000148,0.00000306,0.00000004,-0.00000139,-0.00000072,0.00000058,0.000
 00059,-0.00000108,0.00000307,0.00000165,-0.00000352,-0.00000065,-0.000
 00450,-0.00000554,0.00000190,0.00000152,-0.00000042,-0.00000731,0.0000
 0099,-0.00000262,-0.00000278,0.00000011,0.00000062,-0.00000009,0.00000
 216,0.00000065,-0.00000032,-0.00000052,-0.00000426,0.00000170,-0.00000
 105,0.00000182,0.00000111,0.00000057,0.00000204,-0.00000113,-0.0000038
 7,-0.00000683,-0.00000247,-0.00000373,-0.00000327,-0.00000076,0.000000
 32,-0.00000009,-0.00000194,0.00000363,0.00000246,-0.00000029,0.0000027
 2,0.00000053,-0.00000056\\\@


 IF IT'S NOT TRUE, IT'S WELL INVENTED -- DANTE
 Job cpu time:       0 days  8 hours 25 minutes 49.4 seconds.
 Elapsed time:       0 days  2 hours  6 minutes 29.8 seconds.
 File lengths (MBytes):  RWF=    668 Int=      0 D2E=      0 Chk=     22 Scr=      1
 Normal termination of Gaussian 16 at Mon May 22 14:35:02 2023.
### All Done ###
