### Starting Gaussian ###
 Entering Gaussian System, Link 0=g16
 Initial command:
 /cluster/software/gaussian/gaussian-16-A.03/avx2/g16/l1.exe "/local/scratch/cz9n3/Gau-15318.inp" -scrdir="/local/scratch/cz9n3/"
 Entering Link 1 = /cluster/software/gaussian/gaussian-16-A.03/avx2/g16/l1.exe PID=     15319.
  
 Copyright (c) 1988,1990,1992,1993,1995,1998,2003,2009,2016,
            Gaussian, Inc.  All Rights Reserved.
  
 This is part of the Gaussian(R) 16 program.  It is based on
 the Gaussian(R) 09 system (copyright 2009, Gaussian, Inc.),
 the Gaussian(R) 03 system (copyright 2003, Gaussian, Inc.),
 the Gaussian(R) 98 system (copyright 1998, Gaussian, Inc.),
 the Gaussian(R) 94 system (copyright 1995, Gaussian, Inc.),
 the Gaussian 92(TM) system (copyright 1992, Gaussian, Inc.),
 the Gaussian 90(TM) system (copyright 1990, Gaussian, Inc.),
 the Gaussian 88(TM) system (copyright 1988, Gaussian, Inc.),
 the Gaussian 86(TM) system (copyright 1986, Carnegie Mellon
 University), and the Gaussian 82(TM) system (copyright 1983,
 Carnegie Mellon University). Gaussian is a federally registered
 trademark of Gaussian, Inc.
  
 This software contains proprietary and confidential information,
 including trade secrets, belonging to Gaussian, Inc.
  
 This software is provided under written license and may be
 used, copied, transmitted, or stored only in accord with that
 written license.
  
 The following legend is applicable only to US Government
 contracts under FAR:
  
                    RESTRICTED RIGHTS LEGEND
  
 Use, reproduction and disclosure by the US Government is
 subject to restrictions as set forth in subparagraphs (a)
 and (c) of the Commercial Computer Software - Restricted
 Rights clause in FAR 52.227-19.
  
 Gaussian, Inc.
 340 Quinnipiac St., Bldg. 40, Wallingford CT 06492
  
  
 ---------------------------------------------------------------
 Warning -- This program may not be used in any manner that
 competes with the business of Gaussian, Inc. or will provide
 assistance to any competitor of Gaussian, Inc.  The licensee
 of this program is prohibited from giving any competitor of
 Gaussian, Inc. access to this program.  By using this program,
 the user acknowledges that Gaussian, Inc. is engaged in the
 business of creating and licensing software in the field of
 computational chemistry and represents and warrants to the
 licensee that it is not a competitor of Gaussian, Inc. and that
 it will not use this program in any manner prohibited above.
 ---------------------------------------------------------------
  

 Cite this work as:
 Gaussian 16, Revision A.03,
 M. J. Frisch, G. W. Trucks, H. B. Schlegel, G. E. Scuseria, 
 M. A. Robb, J. R. Cheeseman, G. Scalmani, V. Barone, 
 G. A. Petersson, H. Nakatsuji, X. Li, M. Caricato, A. V. Marenich, 
 J. Bloino, B. G. Janesko, R. Gomperts, B. Mennucci, H. P. Hratchian, 
 J. V. Ortiz, A. F. Izmaylov, J. L. Sonnenberg, D. Williams-Young, 
 F. Ding, F. Lipparini, F. Egidi, J. Goings, B. Peng, A. Petrone, 
 T. Henderson, D. Ranasinghe, V. G. Zakrzewski, J. Gao, N. Rega, 
 G. Zheng, W. Liang, M. Hada, M. Ehara, K. Toyota, R. Fukuda, 
 J. Hasegawa, M. Ishida, T. Nakajima, Y. Honda, O. Kitao, H. Nakai, 
 T. Vreven, K. Throssell, J. A. Montgomery, Jr., J. E. Peralta, 
 F. Ogliaro, M. J. Bearpark, J. J. Heyd, E. N. Brothers, K. N. Kudin, 
 V. N. Staroverov, T. A. Keith, R. Kobayashi, J. Normand, 
 K. Raghavachari, A. P. Rendell, J. C. Burant, S. S. Iyengar, 
 J. Tomasi, M. Cossi, J. M. Millam, M. Klene, C. Adamo, R. Cammi, 
 J. W. Ochterski, R. L. Martin, K. Morokuma, O. Farkas, 
 J. B. Foresman, and D. J. Fox, Gaussian, Inc., Wallingford CT, 2016.
 
 ******************************************
 Gaussian 16:  ES64L-G16RevA.03 25-Dec-2016
                29-May-2023 
 ******************************************
 %chk=CCCqdOrCCdCqCrCCqOrCCCCN.chk
 %NProcShared=20
 Will use up to   20 processors via shared memory.
 -----------------------------
 # opt freq b3lyp/6-31g(2df,p)
 -----------------------------
 1/18=20,19=15,26=3,38=1/1,3;
 2/9=110,12=2,17=6,18=5,40=1/2;
 3/5=1,6=6,7=104,11=2,25=1,30=1,71=1,74=-5/1,2,3;
 4//1;
 5/5=2,38=5/2;
 6/7=2,8=2,9=2,10=2,28=1/1;
 7//1,2,3,16;
 1/18=20,19=15,26=3/3(2);
 2/9=110/2;
 99//99;
 2/9=110/2;
 3/5=1,6=6,7=104,11=2,25=1,30=1,71=1,74=-5/1,2,3;
 4/5=5,16=3,69=1/1;
 5/5=2,38=5/2;
 7//1,2,3,16;
 1/18=20,19=15,26=3/3(-5);
 2/9=110/2;
 6/7=2,8=2,9=2,10=2,19=2,28=1/1;
 99/9=1/99;
 -------------------
 Title Card Required
 -------------------
 Symbolic Z-matrix:
 Charge =  0 Multiplicity = 1
 C                     1.00987   0.04651   0.08234 
 C                     2.52478   0.10268   0.0371 
 C                     2.9665    1.23084  -0.87164 
 O                     2.14786   1.95104  -1.45345 
 C                     4.46289   1.41557  -1.01865 
 C                     4.80649   2.55326  -1.93532 
 C                     6.06932   2.91268  -2.22297 
 C                     7.24906   2.18972  -1.62289 
 C                     6.31905   4.0715   -3.17335 
 C                     7.80463   4.35696  -3.41803 
 O                     8.44321   3.22903  -4.02531 
 C                     8.01791   5.54585  -4.33806 
 C                     9.51673   5.77308  -4.51884 
 C                     9.76795   6.93672  -5.45832 
 C                     11.26369   7.15124  -5.63342 
 N                     11.48767   8.27519  -6.52926 
 H                     0.66278  -0.75935   0.7315 
 H                     0.60409  -0.11486  -0.92279 
 H                     0.6041    0.99424   0.45401 
 H                     2.92748  -0.84121  -0.34614 
 H                     2.92741   0.2761    1.04099 
 H                     4.87741   0.48269  -1.41904 
 H                     4.87533   1.60743  -0.02114 
 H                     3.98418   3.10794  -2.38904 
 H                     6.96526   1.39069  -0.93604 
 H                     7.87091   2.88439  -1.05196 
 H                     7.84387   1.70435  -2.39922 
 H                     5.84286   4.9762   -2.76973 
 H                     5.83266   3.8502   -4.13383 
 H                     8.30207   4.55988  -2.46209 
 H                     7.92379   2.98033  -4.80837 
 H                     7.54381   6.4419   -3.92214 
 H                     7.56318   5.34475  -5.31585 
 H                     9.99397   4.87265  -4.92641 
 H                     9.9811    5.96363  -3.54283 
 H                     9.29627   7.83963  -5.05264 
 H                     9.29733   6.72666  -6.42715 
 H                     11.73126   6.24935  -6.04524 
 H                     11.73087   7.35547  -4.66396 
 H                     11.08428   8.06545  -7.44144 
 H                     12.48827   8.39245  -6.67525 
 

 GradGradGradGradGradGradGradGradGradGradGradGradGradGradGradGradGradGrad
 Berny optimization.
 Initialization pass.
                           ----------------------------
                           !    Initial Parameters    !
                           ! (Angstroms and Degrees)  !
 --------------------------                            --------------------------
 ! Name  Definition              Value          Derivative Info.                !
 --------------------------------------------------------------------------------
 ! R1    R(1,2)                  1.5166         estimate D2E/DX2                !
 ! R2    R(1,17)                 1.0915         estimate D2E/DX2                !
 ! R3    R(1,18)                 1.0959         estimate D2E/DX2                !
 ! R4    R(1,19)                 1.0959         estimate D2E/DX2                !
 ! R5    R(2,3)                  1.5145         estimate D2E/DX2                !
 ! R6    R(2,20)                 1.0954         estimate D2E/DX2                !
 ! R7    R(2,21)                 1.0954         estimate D2E/DX2                !
 ! R8    R(3,4)                  1.2359         estimate D2E/DX2                !
 ! R9    R(3,5)                  1.5149         estimate D2E/DX2                !
 ! R10   R(5,6)                  1.5009         estimate D2E/DX2                !
 ! R11   R(5,22)                 1.0965         estimate D2E/DX2                !
 ! R12   R(5,23)                 1.0963         estimate D2E/DX2                !
 ! R13   R(6,7)                  1.3441         estimate D2E/DX2                !
 ! R14   R(6,24)                 1.0907         estimate D2E/DX2                !
 ! R15   R(7,8)                  1.5082         estimate D2E/DX2                !
 ! R16   R(7,9)                  1.5194         estimate D2E/DX2                !
 ! R17   R(8,25)                 1.0912         estimate D2E/DX2                !
 ! R18   R(8,26)                 1.0933         estimate D2E/DX2                !
 ! R19   R(8,27)                 1.0918         estimate D2E/DX2                !
 ! R20   R(9,10)                 1.5324         estimate D2E/DX2                !
 ! R21   R(9,28)                 1.0992         estimate D2E/DX2                !
 ! R22   R(9,29)                 1.0991         estimate D2E/DX2                !
 ! R23   R(10,11)                1.4314         estimate D2E/DX2                !
 ! R24   R(10,12)                1.5184         estimate D2E/DX2                !
 ! R25   R(10,30)                1.0966         estimate D2E/DX2                !
 ! R26   R(11,31)                0.972          estimate D2E/DX2                !
 ! R27   R(12,13)                1.5267         estimate D2E/DX2                !
 ! R28   R(12,32)                1.0957         estimate D2E/DX2                !
 ! R29   R(12,33)                1.0969         estimate D2E/DX2                !
 ! R30   R(13,14)                1.5165         estimate D2E/DX2                !
 ! R31   R(13,34)                1.0976         estimate D2E/DX2                !
 ! R32   R(13,35)                1.0975         estimate D2E/DX2                !
 ! R33   R(14,15)                1.5212         estimate D2E/DX2                !
 ! R34   R(14,36)                1.0965         estimate D2E/DX2                !
 ! R35   R(14,37)                1.0974         estimate D2E/DX2                !
 ! R36   R(15,16)                1.4546         estimate D2E/DX2                !
 ! R37   R(15,38)                1.0962         estimate D2E/DX2                !
 ! R38   R(15,39)                1.0954         estimate D2E/DX2                !
 ! R39   R(16,40)                1.0192         estimate D2E/DX2                !
 ! R40   R(16,41)                1.018          estimate D2E/DX2                !
 ! A1    A(2,1,17)             111.268          estimate D2E/DX2                !
 ! A2    A(2,1,18)             110.3619         estimate D2E/DX2                !
 ! A3    A(2,1,19)             110.361          estimate D2E/DX2                !
 ! A4    A(17,1,18)            108.6046         estimate D2E/DX2                !
 ! A5    A(17,1,19)            108.6056         estimate D2E/DX2                !
 ! A6    A(18,1,19)            107.5358         estimate D2E/DX2                !
 ! A7    A(1,2,3)              109.6833         estimate D2E/DX2                !
 ! A8    A(1,2,20)             110.2261         estimate D2E/DX2                !
 ! A9    A(1,2,21)             110.2223         estimate D2E/DX2                !
 ! A10   A(3,2,20)             108.9485         estimate D2E/DX2                !
 ! A11   A(3,2,21)             108.9509         estimate D2E/DX2                !
 ! A12   A(20,2,21)            108.7783         estimate D2E/DX2                !
 ! A13   A(2,3,4)              121.559          estimate D2E/DX2                !
 ! A14   A(2,3,5)              115.9231         estimate D2E/DX2                !
 ! A15   A(4,3,5)              122.5179         estimate D2E/DX2                !
 ! A16   A(3,5,6)              112.1996         estimate D2E/DX2                !
 ! A17   A(3,5,22)             107.7641         estimate D2E/DX2                !
 ! A18   A(3,5,23)             107.737          estimate D2E/DX2                !
 ! A19   A(6,5,22)             109.5922         estimate D2E/DX2                !
 ! A20   A(6,5,23)             109.6894         estimate D2E/DX2                !
 ! A21   A(22,5,23)            109.8096         estimate D2E/DX2                !
 ! A22   A(5,6,7)              123.2628         estimate D2E/DX2                !
 ! A23   A(5,6,24)             117.8357         estimate D2E/DX2                !
 ! A24   A(7,6,24)             118.9011         estimate D2E/DX2                !
 ! A25   A(6,7,8)              121.4392         estimate D2E/DX2                !
 ! A26   A(6,7,9)              119.4877         estimate D2E/DX2                !
 ! A27   A(8,7,9)              119.0731         estimate D2E/DX2                !
 ! A28   A(7,8,25)             113.454          estimate D2E/DX2                !
 ! A29   A(7,8,26)             110.3731         estimate D2E/DX2                !
 ! A30   A(7,8,27)             110.8756         estimate D2E/DX2                !
 ! A31   A(25,8,26)            106.5287         estimate D2E/DX2                !
 ! A32   A(25,8,27)            105.2911         estimate D2E/DX2                !
 ! A33   A(26,8,27)            110.1159         estimate D2E/DX2                !
 ! A34   A(7,9,10)             113.6591         estimate D2E/DX2                !
 ! A35   A(7,9,28)             109.0787         estimate D2E/DX2                !
 ! A36   A(7,9,29)             108.6818         estimate D2E/DX2                !
 ! A37   A(10,9,28)            108.9836         estimate D2E/DX2                !
 ! A38   A(10,9,29)            109.0854         estimate D2E/DX2                !
 ! A39   A(28,9,29)            107.1512         estimate D2E/DX2                !
 ! A40   A(9,10,11)            110.6984         estimate D2E/DX2                !
 ! A41   A(9,10,12)            112.2584         estimate D2E/DX2                !
 ! A42   A(9,10,30)            109.5755         estimate D2E/DX2                !
 ! A43   A(11,10,12)           107.294          estimate D2E/DX2                !
 ! A44   A(11,10,30)           108.2582         estimate D2E/DX2                !
 ! A45   A(12,10,30)           108.6397         estimate D2E/DX2                !
 ! A46   A(10,11,31)           107.7586         estimate D2E/DX2                !
 ! A47   A(10,12,13)           109.0381         estimate D2E/DX2                !
 ! A48   A(10,12,32)           110.4587         estimate D2E/DX2                !
 ! A49   A(10,12,33)           109.7758         estimate D2E/DX2                !
 ! A50   A(13,12,32)           110.3655         estimate D2E/DX2                !
 ! A51   A(13,12,33)           109.1905         estimate D2E/DX2                !
 ! A52   A(32,12,33)           107.9929         estimate D2E/DX2                !
 ! A53   A(12,13,14)           110.4993         estimate D2E/DX2                !
 ! A54   A(12,13,34)           110.4107         estimate D2E/DX2                !
 ! A55   A(12,13,35)           109.6287         estimate D2E/DX2                !
 ! A56   A(14,13,34)           109.1123         estimate D2E/DX2                !
 ! A57   A(14,13,35)           110.3409         estimate D2E/DX2                !
 ! A58   A(34,13,35)           106.7795         estimate D2E/DX2                !
 ! A59   A(13,14,15)           110.0238         estimate D2E/DX2                !
 ! A60   A(13,14,36)           109.3527         estimate D2E/DX2                !
 ! A61   A(13,14,37)           109.2087         estimate D2E/DX2                !
 ! A62   A(15,14,36)           110.4533         estimate D2E/DX2                !
 ! A63   A(15,14,37)           110.3077         estimate D2E/DX2                !
 ! A64   A(36,14,37)           107.4445         estimate D2E/DX2                !
 ! A65   A(14,15,16)           109.3453         estimate D2E/DX2                !
 ! A66   A(14,15,38)           110.2815         estimate D2E/DX2                !
 ! A67   A(14,15,39)           110.1083         estimate D2E/DX2                !
 ! A68   A(16,15,38)           109.7959         estimate D2E/DX2                !
 ! A69   A(16,15,39)           109.5926         estimate D2E/DX2                !
 ! A70   A(38,15,39)           107.6969         estimate D2E/DX2                !
 ! A71   A(15,16,40)           109.3437         estimate D2E/DX2                !
 ! A72   A(15,16,41)           109.1883         estimate D2E/DX2                !
 ! A73   A(40,16,41)           106.5221         estimate D2E/DX2                !
 ! D1    D(17,1,2,3)          -179.9985         estimate D2E/DX2                !
 ! D2    D(17,1,2,20)           60.0456         estimate D2E/DX2                !
 ! D3    D(17,1,2,21)          -60.042          estimate D2E/DX2                !
 ! D4    D(18,1,2,3)            59.3622         estimate D2E/DX2                !
 ! D5    D(18,1,2,20)          -60.5938         estimate D2E/DX2                !
 ! D6    D(18,1,2,21)          179.3187         estimate D2E/DX2                !
 ! D7    D(19,1,2,3)           -59.3585         estimate D2E/DX2                !
 ! D8    D(19,1,2,20)         -179.3145         estimate D2E/DX2                !
 ! D9    D(19,1,2,21)           60.598          estimate D2E/DX2                !
 ! D10   D(1,2,3,4)             -0.0712         estimate D2E/DX2                !
 ! D11   D(1,2,3,5)            179.9415         estimate D2E/DX2                !
 ! D12   D(20,2,3,4)           120.6614         estimate D2E/DX2                !
 ! D13   D(20,2,3,5)           -59.3259         estimate D2E/DX2                !
 ! D14   D(21,2,3,4)          -120.8006         estimate D2E/DX2                !
 ! D15   D(21,2,3,5)            59.2121         estimate D2E/DX2                !
 ! D16   D(2,3,5,6)            179.996          estimate D2E/DX2                !
 ! D17   D(2,3,5,22)            59.2627         estimate D2E/DX2                !
 ! D18   D(2,3,5,23)           -59.168          estimate D2E/DX2                !
 ! D19   D(4,3,5,6)              0.0088         estimate D2E/DX2                !
 ! D20   D(4,3,5,22)          -120.7245         estimate D2E/DX2                !
 ! D21   D(4,3,5,23)           120.8449         estimate D2E/DX2                !
 ! D22   D(3,5,6,7)            179.9811         estimate D2E/DX2                !
 ! D23   D(3,5,6,24)            -0.2562         estimate D2E/DX2                !
 ! D24   D(22,5,6,7)           -60.3475         estimate D2E/DX2                !
 ! D25   D(22,5,6,24)          119.4153         estimate D2E/DX2                !
 ! D26   D(23,5,6,7)            60.2782         estimate D2E/DX2                !
 ! D27   D(23,5,6,24)         -119.959          estimate D2E/DX2                !
 ! D28   D(5,6,7,8)             -0.5274         estimate D2E/DX2                !
 ! D29   D(5,6,7,9)            179.443          estimate D2E/DX2                !
 ! D30   D(24,6,7,8)           179.7122         estimate D2E/DX2                !
 ! D31   D(24,6,7,9)            -0.3174         estimate D2E/DX2                !
 ! D32   D(6,7,8,25)            -1.4513         estimate D2E/DX2                !
 ! D33   D(6,7,8,26)          -120.9188         estimate D2E/DX2                !
 ! D34   D(6,7,8,27)           116.7866         estimate D2E/DX2                !
 ! D35   D(9,7,8,25)           178.5782         estimate D2E/DX2                !
 ! D36   D(9,7,8,26)            59.1107         estimate D2E/DX2                !
 ! D37   D(9,7,8,27)           -63.1839         estimate D2E/DX2                !
 ! D38   D(6,7,9,10)          -179.3969         estimate D2E/DX2                !
 ! D39   D(6,7,9,28)            58.7786         estimate D2E/DX2                !
 ! D40   D(6,7,9,29)           -57.7302         estimate D2E/DX2                !
 ! D41   D(8,7,9,10)             0.5742         estimate D2E/DX2                !
 ! D42   D(8,7,9,28)          -121.2503         estimate D2E/DX2                !
 ! D43   D(8,7,9,29)           122.2408         estimate D2E/DX2                !
 ! D44   D(7,9,10,11)           61.8571         estimate D2E/DX2                !
 ! D45   D(7,9,10,12)         -178.2741         estimate D2E/DX2                !
 ! D46   D(7,9,10,30)          -57.4719         estimate D2E/DX2                !
 ! D47   D(28,9,10,11)        -176.2655         estimate D2E/DX2                !
 ! D48   D(28,9,10,12)         -56.3968         estimate D2E/DX2                !
 ! D49   D(28,9,10,30)          64.4055         estimate D2E/DX2                !
 ! D50   D(29,9,10,11)         -59.5847         estimate D2E/DX2                !
 ! D51   D(29,9,10,12)          60.2841         estimate D2E/DX2                !
 ! D52   D(29,9,10,30)        -178.9137         estimate D2E/DX2                !
 ! D53   D(9,10,11,31)          52.2938         estimate D2E/DX2                !
 ! D54   D(12,10,11,31)        -70.5079         estimate D2E/DX2                !
 ! D55   D(30,10,11,31)        172.4135         estimate D2E/DX2                !
 ! D56   D(9,10,12,13)         179.3954         estimate D2E/DX2                !
 ! D57   D(9,10,12,32)          57.9515         estimate D2E/DX2                !
 ! D58   D(9,10,12,33)         -61.0277         estimate D2E/DX2                !
 ! D59   D(11,10,12,13)        -58.7733         estimate D2E/DX2                !
 ! D60   D(11,10,12,32)        179.7828         estimate D2E/DX2                !
 ! D61   D(11,10,12,33)         60.8036         estimate D2E/DX2                !
 ! D62   D(30,10,12,13)         58.055          estimate D2E/DX2                !
 ! D63   D(30,10,12,32)        -63.3888         estimate D2E/DX2                !
 ! D64   D(30,10,12,33)        177.632          estimate D2E/DX2                !
 ! D65   D(10,12,13,14)        178.7604         estimate D2E/DX2                !
 ! D66   D(10,12,13,34)         57.957          estimate D2E/DX2                !
 ! D67   D(10,12,13,35)        -59.4136         estimate D2E/DX2                !
 ! D68   D(32,12,13,14)        -59.7391         estimate D2E/DX2                !
 ! D69   D(32,12,13,34)        179.4575         estimate D2E/DX2                !
 ! D70   D(32,12,13,35)         62.0869         estimate D2E/DX2                !
 ! D71   D(33,12,13,14)         58.8212         estimate D2E/DX2                !
 ! D72   D(33,12,13,34)        -61.9822         estimate D2E/DX2                !
 ! D73   D(33,12,13,35)       -179.3528         estimate D2E/DX2                !
 ! D74   D(12,13,14,15)       -179.8571         estimate D2E/DX2                !
 ! D75   D(12,13,14,36)         58.6627         estimate D2E/DX2                !
 ! D76   D(12,13,14,37)        -58.6494         estimate D2E/DX2                !
 ! D77   D(34,13,14,15)        -58.2832         estimate D2E/DX2                !
 ! D78   D(34,13,14,36)       -179.7633         estimate D2E/DX2                !
 ! D79   D(34,13,14,37)         62.9246         estimate D2E/DX2                !
 ! D80   D(35,13,14,15)         58.7376         estimate D2E/DX2                !
 ! D81   D(35,13,14,36)        -62.7425         estimate D2E/DX2                !
 ! D82   D(35,13,14,37)        179.9454         estimate D2E/DX2                !
 ! D83   D(13,14,15,16)       -179.6241         estimate D2E/DX2                !
 ! D84   D(13,14,15,38)         59.5519         estimate D2E/DX2                !
 ! D85   D(13,14,15,39)        -59.1599         estimate D2E/DX2                !
 ! D86   D(36,14,15,16)        -58.8032         estimate D2E/DX2                !
 ! D87   D(36,14,15,38)       -179.6272         estimate D2E/DX2                !
 ! D88   D(36,14,15,39)         61.661          estimate D2E/DX2                !
 ! D89   D(37,14,15,16)         59.8283         estimate D2E/DX2                !
 ! D90   D(37,14,15,38)        -60.9956         estimate D2E/DX2                !
 ! D91   D(37,14,15,39)       -179.7075         estimate D2E/DX2                !
 ! D92   D(14,15,16,40)        -61.4931         estimate D2E/DX2                !
 ! D93   D(14,15,16,41)       -177.6798         estimate D2E/DX2                !
 ! D94   D(38,15,16,40)         59.626          estimate D2E/DX2                !
 ! D95   D(38,15,16,41)        -56.5608         estimate D2E/DX2                !
 ! D96   D(39,15,16,40)        177.7282         estimate D2E/DX2                !
 ! D97   D(39,15,16,41)         61.5414         estimate D2E/DX2                !
 --------------------------------------------------------------------------------
 Trust Radius=3.00D-01 FncErr=1.00D-07 GrdErr=1.00D-06 EigMax=2.50D+02 EigMin=1.00D-04
 Number of steps in this run=    220 maximum allowed number of steps=    246.
 GradGradGradGradGradGradGradGradGradGradGradGradGradGradGradGradGradGrad

                          Input orientation:                          
 ---------------------------------------------------------------------
 Center     Atomic      Atomic             Coordinates (Angstroms)
 Number     Number       Type             X           Y           Z
 ---------------------------------------------------------------------
      1          6           0        1.009870    0.046510    0.082340
      2          6           0        2.524780    0.102680    0.037100
      3          6           0        2.966500    1.230840   -0.871640
      4          8           0        2.147860    1.951040   -1.453450
      5          6           0        4.462890    1.415570   -1.018650
      6          6           0        4.806490    2.553260   -1.935320
      7          6           0        6.069320    2.912680   -2.222970
      8          6           0        7.249060    2.189720   -1.622890
      9          6           0        6.319050    4.071500   -3.173350
     10          6           0        7.804630    4.356960   -3.418030
     11          8           0        8.443210    3.229030   -4.025310
     12          6           0        8.017910    5.545850   -4.338060
     13          6           0        9.516730    5.773080   -4.518840
     14          6           0        9.767950    6.936720   -5.458320
     15          6           0       11.263690    7.151240   -5.633420
     16          7           0       11.487670    8.275190   -6.529260
     17          1           0        0.662780   -0.759350    0.731500
     18          1           0        0.604090   -0.114860   -0.922790
     19          1           0        0.604100    0.994240    0.454010
     20          1           0        2.927480   -0.841210   -0.346140
     21          1           0        2.927410    0.276100    1.040990
     22          1           0        4.877410    0.482690   -1.419040
     23          1           0        4.875330    1.607430   -0.021140
     24          1           0        3.984180    3.107940   -2.389040
     25          1           0        6.965260    1.390690   -0.936040
     26          1           0        7.870910    2.884390   -1.051960
     27          1           0        7.843870    1.704350   -2.399220
     28          1           0        5.842860    4.976200   -2.769730
     29          1           0        5.832660    3.850200   -4.133830
     30          1           0        8.302070    4.559880   -2.462090
     31          1           0        7.923790    2.980330   -4.808370
     32          1           0        7.543810    6.441900   -3.922140
     33          1           0        7.563180    5.344750   -5.315850
     34          1           0        9.993970    4.872650   -4.926410
     35          1           0        9.981100    5.963630   -3.542830
     36          1           0        9.296270    7.839630   -5.052640
     37          1           0        9.297330    6.726660   -6.427150
     38          1           0       11.731260    6.249350   -6.045240
     39          1           0       11.730870    7.355470   -4.663960
     40          1           0       11.084280    8.065450   -7.441440
     41          1           0       12.488270    8.392450   -6.675250
 ---------------------------------------------------------------------
                    Distance matrix (angstroms):
                    1          2          3          4          5
     1  C    0.000000
     2  C    1.516626   0.000000
     3  C    2.478128   1.514487   0.000000
     4  O    2.698316   2.404214   1.235865   0.000000
     5  C    3.874255   2.567987   1.514899   2.415604   0.000000
     6  C    4.976854   3.886127   2.503153   2.768245   1.500894
     7  C    6.255191   5.056459   3.779176   4.110324   2.504464
     8  C    6.813857   5.424954   4.452432   5.109591   2.954176
     9  C    7.415353   6.360425   4.960525   4.985302   3.891276
    10  C    8.775040   7.610101   6.297954   6.453454   5.057275
    11  O    9.069496   7.829754   6.628178   6.919476   5.307691
    12  C    9.944612   8.885077   7.493472   7.463318   6.380898
    13  C   11.239712  10.089469   8.765816   8.849003   7.535285
    14  C   12.444994  11.373973   9.992718   9.947953   8.850843
    15  C   13.721805  12.577978  11.250291  11.296574  10.022220
    16  N   14.873087  13.792766  12.419415  12.368944  11.259163
    17  H    1.091463   2.166179   3.440645   3.784928   4.715309
    18  H    1.095894   2.158185   2.719284   2.633015   4.152318
    19  H    1.095892   2.158172   2.719239   2.633831   4.151687
    20  H    2.156124   1.095431   2.138005   3.103321   2.811194
    21  H    2.156080   1.095436   2.138039   3.104087   2.810375
    22  H    4.171602   2.792780   2.123900   3.099626   1.096542
    23  H    4.170007   2.791550   2.123394   3.099786   1.096332
    24  H    4.932200   4.128873   2.619481   2.363433   2.229630
    25  H    6.189555   4.724810   4.002472   4.877402   2.503857
    26  H    7.510930   6.124138   5.178801   5.812541   3.711218
    27  H    7.457220   6.065783   5.132879   5.779262   3.663385
    28  H    7.469534   6.529866   5.089589   4.953505   4.201034
    29  H    7.450064   6.510195   5.071272   4.936496   4.184261
    30  H    8.945435   7.712954   6.486937   6.760008   5.168124
    31  H    8.962624   7.804406   6.567593   6.758424   5.365471
    32  H    9.981445   9.002886   7.577101   7.441675   6.571630
    33  H   10.007881   9.028779   7.602942   7.467335   6.596680
    34  H   11.361921  10.157650   8.893215   9.064144   7.603607
    35  H   11.341831  10.137226   8.873509   9.045774   7.583335
    36  H   12.480591  11.472529  10.060957   9.936268   8.994620
    37  H   12.477173  11.468700  10.057193   9.932732   8.990626
    38  H   13.819214  12.630744  11.347801  11.463052  10.072797
    39  H   13.816226  12.627550  11.344909  11.460773  10.069470
    40  H   14.913229  13.878015  12.480886  12.373425  11.371717
    41  H   15.718569  14.596132  13.252722  13.254548  12.044945
                    6          7          8          9         10
     6  C    0.000000
     7  C    1.344122   0.000000
     8  C    2.489161   1.508162   0.000000
     9  C    2.474997   1.519359   2.609586   0.000000
    10  C    3.800080   2.554489   2.868469   1.532418   0.000000
    11  O    4.248583   2.997309   2.877113   2.438780   1.431363
    12  C    5.004196   3.899255   4.384847   2.533058   1.518355
    13  C    6.263240   5.033641   5.135107   3.864049   2.479610
    14  C    7.499489   6.351398   6.602222   5.032443   3.830479
    15  C    8.747159   7.521838   7.537791   6.323465   4.968003
    16  N    9.923857   8.755522   8.892200   7.459744   6.212653
    17  H    5.937647   7.172404   7.590735   8.401093   9.716030
    18  H    5.079788   6.381630   7.068016   7.433128   8.835789
    19  H    5.079323   6.380851   7.063864   7.435585   8.840148
    20  H    4.192684   5.242646   5.430716   6.605345   7.761705
    21  H    4.192233   5.241811   5.425390   6.608248   7.766824
    22  H    2.135143   2.823438   2.929203   4.246821   5.251147
    23  H    2.136216   2.824419   2.922201   4.253516   5.261138
    24  H    1.090745   2.100837   3.477004   2.644846   4.149061
    25  H    2.647719   2.185258   1.091217   3.551040   3.957723
    26  H    3.206344   2.148905   1.093263   2.884059   2.787677
    27  H    3.187715   2.154101   1.091820   2.920232   2.841805
    28  H    2.764225   2.146706   3.325223   1.099158   2.156917
    29  H    2.751095   2.141574   3.326891   1.099123   2.158203
    30  H    4.064860   2.784891   2.725939   2.162585   1.096560
    31  H    4.260794   3.182441   3.350762   2.537545   1.960192
    32  H    5.153823   4.185295   4.842981   2.771195   2.160817
    33  H    5.178778   4.208621   4.867324   2.785558   2.153079
    34  H    6.421537   5.152955   5.064177   4.149711   2.708202
    35  H    6.402445   5.133454   5.039108   4.138512   2.708133
    36  H    7.604046   6.534147   6.919229   5.156973   4.126249
    37  H    7.600095   6.530055   6.918103   5.148518   4.110771
    38  H    8.860303   7.602676   7.491855   6.502523   5.089381
    39  H    8.857411   7.599340   7.484631   6.503397   5.094974
    40  H   10.005611   8.884441   9.115297   7.541594   6.379407
    41  H   10.750480   9.542201   9.562924   8.306214   6.987929
                   11         12         13         14         15
    11  O    0.000000
    12  C    2.376204   0.000000
    13  C    2.805033   1.526688   0.000000
    14  C    4.189919   2.500428   1.516507   0.000000
    15  C    5.091646   3.845819   2.488671   1.521156   0.000000
    16  N    6.403299   4.928477   3.766556   2.428137   1.454634
    17  H    9.953367  10.934072  12.191437  13.433074  14.678860
    18  H    9.069677   9.933400  11.270961  12.420634  13.733656
    19  H    9.301088   9.932053  11.269495  12.419535  13.732892
    20  H    7.779873   9.090789  10.226362  11.550870  12.701456
    21  H    8.050543   9.089424  10.224854  11.549800  12.700743
    22  H    5.200957   6.634682   7.688971   9.049180  10.149637
    23  H    5.602922   6.634965   7.689248   9.049972  10.150993
    24  H    4.751315   5.100300   6.499856   7.584987   8.936752
    25  H    3.886826   5.472400   6.209009   7.685346   8.586374
    26  H    3.047477   4.231245   4.803385   6.279821   7.120867
    27  H    2.308252   4.306566   4.883218   6.359078   7.198877
    28  H    3.375041   2.741351   4.146290   5.145725   6.505145
    29  H    2.685628   2.773492   4.173496   5.173721   6.530063
    30  H    2.057848   2.138258   2.679081   4.095799   5.054075
    31  H    0.972025   2.609970   3.228117   4.413206   5.406675
    32  H    3.337978   1.095749   2.166976   2.747998   4.155617
    33  H    2.629870   1.096948   2.152916   2.723174   4.130137
    34  H    2.432761   2.168909   1.097563   2.143455   2.702596
    35  H    3.174261   2.158946   1.097517   2.159037   2.725073
    36  H    4.800078   2.721444   2.145734   1.096497   2.163776
    37  H    4.328022   2.719471   2.144551   1.097379   2.162602
    38  H    4.900380   4.147089   2.731460   2.161374   1.096186
    39  H    5.314517   4.143309   2.725332   2.158568   1.095363
    40  H    6.483529   5.038053   4.031596   2.634297   2.033938
    41  H    7.074291   5.792211   4.510128   3.316656   2.031159
                   16         17         18         19         20
    16  N    0.000000
    17  H   15.859376   0.000000
    18  H   14.841757   1.776369   0.000000
    19  H   14.840161   1.776379   1.767960   0.000000
    20  H   13.950504   2.509358   2.501650   3.067118   0.000000
    21  H   13.948913   2.509281   3.067099   2.501607   1.781154
    22  H   11.425101   4.891890   4.343339   4.693738   2.589605
    23  H   11.425309   4.890163   4.692840   4.341103   3.145724
    24  H   10.007210   5.977073   4.895032   4.896489   4.570103
    25  H    9.956538   6.864737   6.536921   6.523325   4.651132
    26  H    8.493674   8.271318   7.862497   7.658142   6.230231
    27  H    8.573823   8.212142   7.609454   7.814054   5.904736
    28  H    7.541968   8.484596   7.534905   7.327558   6.943737
    29  H    7.569528   8.464458   7.305506   7.519483   6.692981
    30  H    6.363446   9.841340   9.136823   8.970851   7.907922
    31  H    6.610465   9.869024   8.846239   9.231200   7.712249
    32  H    5.070706  10.993768  10.007343   9.848211   9.334986
    33  H    5.045935  11.020254   9.875994  10.032299   9.189877
    34  H    4.046918  12.280166  11.361077  11.496114  10.176559
    35  H    4.065935  12.259667  11.477847  11.340092  10.309133
    36  H    2.678125  13.488361  12.485334  12.358656  11.750303
    37  H    2.684392  13.484883  12.356245  12.481316  11.611474
    38  H    2.097055  14.749825  13.804223  13.916541  12.659476
    39  H    2.093890  14.746658  13.914288  13.800865  12.780016
    40  H    1.019209  15.914827  14.806912  14.905513  14.007329
    41  H    1.017970  16.687049  15.706650  15.709658  14.721644
                   21         22         23         24         25
    21  H    0.000000
    22  H    3.145938   0.000000
    23  H    2.587461   1.794204   0.000000
    24  H    4.571782   2.937805   2.941535   0.000000
    25  H    4.631975   2.327417   2.291686   3.734568   0.000000
    26  H    5.968401   3.855380   3.415658   4.116361   1.750651
    27  H    6.168186   3.354563   3.804851   4.106991   1.735291
    28  H    6.716575   4.790416   4.454152   2.662708   4.180680
    29  H    6.927729   4.429753   4.781288   2.648041   4.190207
    30  H    7.714228   5.425839   5.139820   4.556055   3.762932
    31  H    8.154243   5.196748   5.839138   4.624929   4.294261
    32  H    9.163018   6.991951   6.760968   5.112402   5.896290
    33  H    9.359006   6.785139   7.016128   5.136027   5.930838
    34  H   10.328330   7.599512   7.805371   6.757960   6.100835
    35  H   10.154504   7.784526   7.579424   6.741606   6.066500
    36  H   11.614719   9.319546   9.148826   7.596180   7.998052
    37  H   11.745583   9.143523   9.316521   7.591510   8.003962
    38  H   12.782885  10.081238  10.239188   9.124336   8.510303
    39  H   12.655625  10.233989  10.079393   9.122937   8.496295
    40  H   14.112410  11.501860  11.632624  10.025720  10.190141
    41  H   14.724997  12.170343  12.176639  10.891152  10.605037
                   26         27         28         29         30
    26  H    0.000000
    27  H    1.791183   0.000000
    28  H    3.382217   3.853092   0.000000
    29  H    3.819054   3.414456   1.768827   0.000000
    30  H    2.231957   2.892741   2.513101   3.065346   0.000000
    31  H    3.758007   2.727364   3.531263   2.363155   2.853612
    32  H    4.582664   4.985349   2.523798   3.112837   2.499741
    33  H    4.932426   4.673118   3.094844   2.574014   3.050562
    34  H    4.844783   4.587782   4.679071   4.357762   3.005532
    35  H    4.487656   4.900721   4.324087   4.693125   2.440831
    36  H    6.526216   6.840451   5.033582   5.362495   4.296061
    37  H    6.759466   6.600028   5.326743   5.053442   4.626789
    38  H    7.152489   7.004448   6.857341   6.648525   5.239524
    39  H    6.923611   7.223086   6.627043   6.881630   4.941682
    40  H    8.831454   8.740013   7.670777   7.502542   6.695046
    41  H    9.125795   9.197041   8.431211   8.449142   7.068492
                   31         32         33         34         35
    31  H    0.000000
    32  H    3.593363   0.000000
    33  H    2.445007   1.773849   0.000000
    34  H    2.807215   3.078049   2.506648   0.000000
    35  H    3.838515   2.512569   3.061527   1.762015   0.000000
    36  H    5.055311   2.510537   3.049149   3.050523   2.503576
    37  H    4.306048   3.070993   2.480310   2.484931   3.060892
    38  H    5.168478   4.698869   4.327032   2.482994   3.067043
    39  H    5.801428   4.349296   4.673071   3.041397   2.501169
    40  H    6.540657   5.249411   4.931378   4.208102   4.564407
    41  H    7.321937   5.985979   5.949198   4.654994   4.690109
                   36         37         38         39         40
    36  H    0.000000
    37  H    1.768610   0.000000
    38  H    3.073015   2.509521   0.000000
    39  H    2.512521   3.070237   1.769586   0.000000
    40  H    2.992380   2.452414   2.380373   2.938800   0.000000
    41  H    3.623167   3.608117   2.358570   2.386267   1.632533
                   41
    41  H    0.000000
 Stoichiometry    C13H25NO2
 Framework group  C1[X(C13H25NO2)]
 Deg. of freedom   117
 Full point group                 C1      NOp   1
 Largest Abelian subgroup         C1      NOp   1
 Largest concise Abelian subgroup C1      NOp   1
                         Standard orientation:                         
 ---------------------------------------------------------------------
 Center     Atomic      Atomic             Coordinates (Angstroms)
 Number     Number       Type             X           Y           Z
 ---------------------------------------------------------------------
      1          6           0       -7.256089   -0.615020    0.044508
      2          6           0       -6.133926    0.397151   -0.083610
      3          6           0       -4.797292   -0.311375   -0.012393
      4          8           0       -4.721482   -1.536489    0.131517
      5          6           0       -3.572304    0.572371   -0.127790
      6          6           0       -2.296283   -0.213689   -0.046781
      7          6           0       -1.077866    0.348514   -0.124582
      8          6           0       -0.908081    1.835097   -0.313784
      9          6           0        0.158481   -0.528332   -0.019526
     10          6           0        1.474726    0.251101   -0.110557
     11          8           0        1.584719    1.185952    0.967754
     12          6           0        2.688029   -0.659334   -0.044163
     13          6           0        3.953114    0.187914   -0.156005
     14          6           0        5.188235   -0.687056   -0.062749
     15          6           0        6.441654    0.167906   -0.171817
     16          7           0        7.616223   -0.686255   -0.089618
     17          1           0       -8.233197   -0.131043   -0.003608
     18          1           0       -7.178398   -1.151989    0.996670
     19          1           0       -7.193625   -1.357341   -0.759257
     20          1           0       -6.191256    1.130880    0.727761
     21          1           0       -6.206715    0.924000   -1.041270
     22          1           0       -3.607552    1.301550    0.690415
     23          1           0       -3.625230    1.092427   -1.091473
     24          1           0       -2.370992   -1.293792    0.085590
     25          1           0       -1.853686    2.372455   -0.402283
     26          1           0       -0.346706    2.040608   -1.229125
     27          1           0       -0.402571    2.281359    0.544925
     28          1           0        0.133303   -1.282166   -0.819056
     29          1           0        0.126392   -1.069027    0.936869
     30          1           0        1.506651    0.809358   -1.053835
     31          1           0        1.434447    0.701280    1.796816
     32          1           0        2.654075   -1.402023   -0.849102
     33          1           0        2.697135   -1.196415    0.912265
     34          1           0        3.983141    0.938450    0.644269
     35          1           0        3.945874    0.737679   -1.105873
     36          1           0        5.164342   -1.435893   -0.863360
     37          1           0        5.177185   -1.226587    0.892774
     38          1           0        6.465961    0.911074    0.633623
     39          1           0        6.446809    0.708860   -1.124268
     40          1           0        7.627376   -1.158954    0.813276
     41          1           0        8.453401   -0.108147   -0.124088
 ---------------------------------------------------------------------
 Rotational constants (GHZ):           2.3558894           0.1105244           0.1072650
 Standard basis: 6-31G(2df,p) (6D, 7F)
 There are   621 symmetry adapted cartesian basis functions of A   symmetry.
 There are   573 symmetry adapted basis functions of A   symmetry.
   573 basis functions,   879 primitive gaussians,   621 cartesian basis functions
    63 alpha electrons       63 beta electrons
       nuclear repulsion energy      1063.8782254704 Hartrees.
 NAtoms=   41 NActive=   41 NUniq=   41 SFac= 1.00D+00 NAtFMM=   60 NAOKFM=F Big=F
 Integral buffers will be    131072 words long.
 Raffenetti 2 integral format.
 Two-electron integral symmetry is turned on.
 One-electron integrals computed using PRISM.
 PrsmSu:  requested number of processors reduced to:  12 ShMem   1 Linda.
 NBasis=   573 RedAO= T EigKep=  3.70D-04  NBF=   573
 NBsUse=   573 1.00D-06 EigRej= -1.00D+00 NBFU=   573
 ExpMin= 1.61D-01 ExpMax= 5.48D+03 ExpMxC= 8.25D+02 IAcc=3 IRadAn=         5 AccDes= 0.00D+00
 Harris functional with IExCor=  402 and IRadAn=       5 diagonalized for initial guess.
 HarFok:  IExCor=  402 AccDes= 0.00D+00 IRadAn=         5 IDoV= 1 UseB2=F ITyADJ=14
 ICtDFT=  3500011 ScaDFX=  1.000000  1.000000  1.000000  1.000000
 FoFCou: FMM=F IPFlag=           0 FMFlag=      100000 FMFlg1=           0
         NFxFlg=           0 DoJE=T BraDBF=F KetDBF=T FulRan=T
         wScrn=  0.000000 ICntrl=       500 IOpCl=  0 I1Cent=   200000004 NGrid=           0
         NMat0=    1 NMatS0=      1 NMatT0=    0 NMatD0=    1 NMtDS0=    0 NMtDT0=    0
 Petite list used in FoFCou.
 Requested convergence on RMS density matrix=1.00D-08 within 128 cycles.
 Requested convergence on MAX density matrix=1.00D-06.
 Requested convergence on             energy=1.00D-06.
 No special actions if energy rises.
 Integral accuracy reduced to 1.0D-05 until final iterations.
 Initial convergence to 1.0D-05 achieved.  Increase integral accuracy.
 SCF Done:  E(RB3LYP) =  -715.659765022     A.U. after   14 cycles
            NFock= 14  Conv=0.30D-08     -V/T= 2.0078

 **********************************************************************

            Population analysis using the SCF density.

 **********************************************************************

 Orbital symmetries:
       Occupied  (A) (A) (A) (A) (A) (A) (A) (A) (A) (A) (A) (A)
                 (A) (A) (A) (A) (A) (A) (A) (A) (A) (A) (A) (A)
                 (A) (A) (A) (A) (A) (A) (A) (A) (A) (A) (A) (A)
                 (A) (A) (A) (A) (A) (A) (A) (A) (A) (A) (A) (A)
                 (A) (A) (A) (A) (A) (A) (A) (A) (A) (A) (A) (A)
                 (A) (A) (A)
       Virtual   (A) (A) (A) (A) (A) (A) (A) (A) (A) (A) (A) (A)
                 (A) (A) (A) (A) (A) (A) (A) (A) (A) (A) (A) (A)
                 (A) (A) (A) (A) (A) (A) (A) (A) (A) (A) (A) (A)
                 (A) (A) (A) (A) (A) (A) (A) (A) (A) (A) (A) (A)
                 (A) (A) (A) (A) (A) (A) (A) (A) (A) (A) (A) (A)
                 (A) (A) (A) (A) (A) (A) (A) (A) (A) (A) (A) (A)
                 (A) (A) (A) (A) (A) (A) (A) (A) (A) (A) (A) (A)
                 (A) (A) (A) (A) (A) (A) (A) (A) (A) (A) (A) (A)
                 (A) (A) (A) (A) (A) (A) (A) (A) (A) (A) (A) (A)
                 (A) (A) (A) (A) (A) (A) (A) (A) (A) (A) (A) (A)
                 (A) (A) (A) (A) (A) (A) (A) (A) (A) (A) (A) (A)
                 (A) (A) (A) (A) (A) (A) (A) (A) (A) (A) (A) (A)
                 (A) (A) (A) (A) (A) (A) (A) (A) (A) (A) (A) (A)
                 (A) (A) (A) (A) (A) (A) (A) (A) (A) (A) (A) (A)
                 (A) (A) (A) (A) (A) (A) (A) (A) (A) (A) (A) (A)
                 (A) (A) (A) (A) (A) (A) (A) (A) (A) (A) (A) (A)
                 (A) (A) (A) (A) (A) (A) (A) (A) (A) (A) (A) (A)
                 (A) (A) (A) (A) (A) (A) (A) (A) (A) (A) (A) (A)
                 (A) (A) (A) (A) (A) (A) (A) (A) (A) (A) (A) (A)
                 (A) (A) (A) (A) (A) (A) (A) (A) (A) (A) (A) (A)
                 (A) (A) (A) (A) (A) (A) (A) (A) (A) (A) (A) (A)
                 (A) (A) (A) (A) (A) (A) (A) (A) (A) (A) (A) (A)
                 (A) (A) (A) (A) (A) (A) (A) (A) (A) (A) (A) (A)
                 (A) (A) (A) (A) (A) (A) (A) (A) (A) (A) (A) (A)
                 (A) (A) (A) (A) (A) (A) (A) (A) (A) (A) (A) (A)
                 (A) (A) (A) (A) (A) (A) (A) (A) (A) (A) (A) (A)
                 (A) (A) (A) (A) (A) (A) (A) (A) (A) (A) (A) (A)
                 (A) (A) (A) (A) (A) (A) (A) (A) (A) (A) (A) (A)
                 (A) (A) (A) (A) (A) (A) (A) (A) (A) (A) (A) (A)
                 (A) (A) (A) (A) (A) (A) (A) (A) (A) (A) (A) (A)
                 (A) (A) (A) (A) (A) (A) (A) (A) (A) (A) (A) (A)
                 (A) (A) (A) (A) (A) (A) (A) (A) (A) (A) (A) (A)
                 (A) (A) (A) (A) (A) (A) (A) (A) (A) (A) (A) (A)
                 (A) (A) (A) (A) (A) (A) (A) (A) (A) (A) (A) (A)
                 (A) (A) (A) (A) (A) (A) (A) (A) (A) (A) (A) (A)
                 (A) (A) (A) (A) (A) (A) (A) (A) (A) (A) (A) (A)
                 (A) (A) (A) (A) (A) (A) (A) (A) (A) (A) (A) (A)
                 (A) (A) (A) (A) (A) (A) (A) (A) (A) (A) (A) (A)
                 (A) (A) (A) (A) (A) (A) (A) (A) (A) (A) (A) (A)
                 (A) (A) (A) (A) (A) (A) (A) (A) (A) (A) (A) (A)
                 (A) (A) (A) (A) (A) (A) (A) (A) (A) (A) (A) (A)
                 (A) (A) (A) (A) (A) (A) (A) (A) (A) (A) (A) (A)
                 (A) (A) (A) (A) (A) (A)
 The electronic state is 1-A.
 Alpha  occ. eigenvalues --  -19.13436 -19.12660 -14.29722 -10.26554 -10.22718
 Alpha  occ. eigenvalues --  -10.19390 -10.19085 -10.18999 -10.18077 -10.17960
 Alpha  occ. eigenvalues --  -10.17352 -10.17047 -10.16866 -10.16792 -10.16612
 Alpha  occ. eigenvalues --  -10.16276  -1.02378  -1.01605  -0.87338  -0.81503
 Alpha  occ. eigenvalues --   -0.79537  -0.78341  -0.75624  -0.72884  -0.69028
 Alpha  occ. eigenvalues --   -0.66812  -0.63578  -0.61008  -0.58977  -0.57666
 Alpha  occ. eigenvalues --   -0.52338  -0.50814  -0.48897  -0.48191  -0.47642
 Alpha  occ. eigenvalues --   -0.47503  -0.46354  -0.45577  -0.44269  -0.43327
 Alpha  occ. eigenvalues --   -0.43158  -0.42999  -0.41428  -0.39986  -0.39548
 Alpha  occ. eigenvalues --   -0.39145  -0.37843  -0.37223  -0.36233  -0.35677
 Alpha  occ. eigenvalues --   -0.35481  -0.34819  -0.34411  -0.34057  -0.33792
 Alpha  occ. eigenvalues --   -0.33069  -0.32311  -0.31069  -0.30842  -0.26060
 Alpha  occ. eigenvalues --   -0.24345  -0.22517  -0.22318
 Alpha virt. eigenvalues --   -0.01313   0.02395   0.06782   0.08204   0.08623
 Alpha virt. eigenvalues --    0.09953   0.10852   0.12052   0.12423   0.13111
 Alpha virt. eigenvalues --    0.13757   0.14410   0.14861   0.15309   0.15668
 Alpha virt. eigenvalues --    0.16671   0.17209   0.17687   0.17991   0.18484
 Alpha virt. eigenvalues --    0.18891   0.19371   0.19615   0.20361   0.20445
 Alpha virt. eigenvalues --    0.20871   0.21361   0.22031   0.22459   0.23207
 Alpha virt. eigenvalues --    0.23859   0.24335   0.25122   0.26390   0.27193
 Alpha virt. eigenvalues --    0.28464   0.30368   0.31929   0.32212   0.33827
 Alpha virt. eigenvalues --    0.36602   0.39819   0.42645   0.44863   0.46516
 Alpha virt. eigenvalues --    0.47564   0.48174   0.48973   0.50262   0.50557
 Alpha virt. eigenvalues --    0.51337   0.52725   0.52751   0.53253   0.53401
 Alpha virt. eigenvalues --    0.54548   0.54945   0.55366   0.56567   0.56998
 Alpha virt. eigenvalues --    0.57395   0.58293   0.59317   0.60134   0.61264
 Alpha virt. eigenvalues --    0.61946   0.62644   0.63389   0.63627   0.64654
 Alpha virt. eigenvalues --    0.64960   0.65547   0.67556   0.68553   0.69182
 Alpha virt. eigenvalues --    0.69548   0.70591   0.71214   0.71723   0.71914
 Alpha virt. eigenvalues --    0.72301   0.72863   0.73788   0.74064   0.74390
 Alpha virt. eigenvalues --    0.75181   0.75765   0.76321   0.76422   0.77026
 Alpha virt. eigenvalues --    0.77344   0.78267   0.78791   0.79104   0.79596
 Alpha virt. eigenvalues --    0.79936   0.80368   0.80886   0.81124   0.81759
 Alpha virt. eigenvalues --    0.82322   0.83044   0.83986   0.84039   0.84483
 Alpha virt. eigenvalues --    0.84687   0.86427   0.86914   0.87646   0.87912
 Alpha virt. eigenvalues --    0.88272   0.88686   0.88934   0.92305   0.93028
 Alpha virt. eigenvalues --    0.93575   0.95515   0.97211   0.97910   0.98705
 Alpha virt. eigenvalues --    0.99317   1.00217   1.01783   1.03486   1.04143
 Alpha virt. eigenvalues --    1.08044   1.08791   1.10446   1.11095   1.11466
 Alpha virt. eigenvalues --    1.13632   1.15469   1.17646   1.20337   1.20802
 Alpha virt. eigenvalues --    1.20995   1.21334   1.23038   1.24365   1.24740
 Alpha virt. eigenvalues --    1.27161   1.27391   1.28157   1.28921   1.29490
 Alpha virt. eigenvalues --    1.30205   1.30984   1.33489   1.34040   1.35407
 Alpha virt. eigenvalues --    1.36757   1.38230   1.38487   1.39288   1.39534
 Alpha virt. eigenvalues --    1.41042   1.41234   1.42351   1.43670   1.45127
 Alpha virt. eigenvalues --    1.46004   1.49775   1.51775   1.53103   1.54288
 Alpha virt. eigenvalues --    1.54971   1.55701   1.56499   1.57943   1.58117
 Alpha virt. eigenvalues --    1.60054   1.60587   1.61712   1.61916   1.64014
 Alpha virt. eigenvalues --    1.65471   1.67066   1.69093   1.69180   1.70670
 Alpha virt. eigenvalues --    1.71265   1.72233   1.72976   1.74564   1.77504
 Alpha virt. eigenvalues --    1.78504   1.79110   1.80250   1.82094   1.83700
 Alpha virt. eigenvalues --    1.86152   1.86428   1.87270   1.87912   1.89491
 Alpha virt. eigenvalues --    1.90894   1.91884   1.92422   1.92633   1.93603
 Alpha virt. eigenvalues --    1.95372   1.97020   1.97491   2.00617   2.00844
 Alpha virt. eigenvalues --    2.03492   2.03861   2.06500   2.07079   2.08672
 Alpha virt. eigenvalues --    2.11172   2.13292   2.13907   2.14715   2.17926
 Alpha virt. eigenvalues --    2.18338   2.19427   2.20771   2.21489   2.22255
 Alpha virt. eigenvalues --    2.25110   2.25873   2.27637   2.30852   2.32654
 Alpha virt. eigenvalues --    2.33436   2.34653   2.35399   2.37838   2.39451
 Alpha virt. eigenvalues --    2.40068   2.44204   2.44554   2.45466   2.46112
 Alpha virt. eigenvalues --    2.47557   2.48719   2.52338   2.52898   2.55192
 Alpha virt. eigenvalues --    2.56899   2.58327   2.60067   2.61504   2.63925
 Alpha virt. eigenvalues --    2.65380   2.67647   2.69785   2.70784   2.71994
 Alpha virt. eigenvalues --    2.74577   2.74646   2.75281   2.75508   2.76747
 Alpha virt. eigenvalues --    2.77066   2.77309   2.78210   2.78342   2.79758
 Alpha virt. eigenvalues --    2.80381   2.82418   2.83085   2.83641   2.84279
 Alpha virt. eigenvalues --    2.84909   2.86011   2.86201   2.86774   2.87311
 Alpha virt. eigenvalues --    2.89424   2.90325   2.90756   2.91716   2.92567
 Alpha virt. eigenvalues --    2.92843   2.94738   2.95355   2.96459   2.96972
 Alpha virt. eigenvalues --    2.97483   2.98535   2.99140   3.00640   3.01274
 Alpha virt. eigenvalues --    3.02398   3.03222   3.04307   3.06822   3.07347
 Alpha virt. eigenvalues --    3.08414   3.09307   3.11715   3.12538   3.13632
 Alpha virt. eigenvalues --    3.13862   3.16532   3.17496   3.19053   3.20250
 Alpha virt. eigenvalues --    3.22512   3.23363   3.24895   3.26684   3.27305
 Alpha virt. eigenvalues --    3.28358   3.29695   3.31202   3.33446   3.33796
 Alpha virt. eigenvalues --    3.34513   3.36721   3.36966   3.37080   3.38773
 Alpha virt. eigenvalues --    3.40504   3.42160   3.43984   3.44346   3.45651
 Alpha virt. eigenvalues --    3.46715   3.47832   3.49910   3.51956   3.52598
 Alpha virt. eigenvalues --    3.53971   3.56139   3.56460   3.56942   3.57866
 Alpha virt. eigenvalues --    3.59548   3.60045   3.61116   3.61747   3.62857
 Alpha virt. eigenvalues --    3.64309   3.66635   3.67471   3.68813   3.71382
 Alpha virt. eigenvalues --    3.71782   3.73646   3.74543   3.75482   3.76708
 Alpha virt. eigenvalues --    3.77582   3.79489   3.80059   3.83635   3.84976
 Alpha virt. eigenvalues --    3.85859   3.86874   3.89621   3.90248   3.91289
 Alpha virt. eigenvalues --    3.94550   3.96155   3.99809   4.01375   4.02912
 Alpha virt. eigenvalues --    4.04834   4.05015   4.08610   4.10933   4.12468
 Alpha virt. eigenvalues --    4.16355   4.17709   4.19806   4.20337   4.20776
 Alpha virt. eigenvalues --    4.22724   4.25706   4.27501   4.28708   4.29762
 Alpha virt. eigenvalues --    4.30759   4.32859   4.35165   4.35981   4.37703
 Alpha virt. eigenvalues --    4.38080   4.39718   4.42759   4.44415   4.44603
 Alpha virt. eigenvalues --    4.45130   4.45614   4.46967   4.47905   4.48627
 Alpha virt. eigenvalues --    4.49631   4.50395   4.51909   4.52740   4.53136
 Alpha virt. eigenvalues --    4.54622   4.56646   4.57123   4.57410   4.57971
 Alpha virt. eigenvalues --    4.58372   4.59144   4.59723   4.60496   4.61405
 Alpha virt. eigenvalues --    4.62081   4.63246   4.64226   4.65204   4.66047
 Alpha virt. eigenvalues --    4.66405   4.67187   4.67960   4.68377   4.68947
 Alpha virt. eigenvalues --    4.69922   4.70394   4.71572   4.71858   4.73605
 Alpha virt. eigenvalues --    4.73764   4.74162   4.75030   4.75655   4.77464
 Alpha virt. eigenvalues --    4.77718   4.78572   4.78998   4.81532   4.81843
 Alpha virt. eigenvalues --    4.83422   4.83830   4.84534   4.85273   4.85929
 Alpha virt. eigenvalues --    4.86648   4.87500   4.88192   4.90461   4.91968
 Alpha virt. eigenvalues --    4.92911   4.93169   4.93638   4.94466   4.96442
 Alpha virt. eigenvalues --    4.97359   4.98088   5.00377   5.00454   5.03754
 Alpha virt. eigenvalues --    5.05465   5.06315   5.08171   5.10014   5.10071
 Alpha virt. eigenvalues --    5.15227   5.16878   5.20148   5.22775   5.25861
 Alpha virt. eigenvalues --    5.27855   5.29510   5.31373   5.36531   5.39623
 Alpha virt. eigenvalues --    5.41888   5.47013   5.48538   5.49720   5.50406
 Alpha virt. eigenvalues --    5.51304   5.52583   5.52962   5.54434   5.60252
 Alpha virt. eigenvalues --    5.62163   5.67221   5.68747   5.72299   5.75168
 Alpha virt. eigenvalues --    5.83768   5.89703   5.97907   5.99176   5.99412
 Alpha virt. eigenvalues --    6.00864   6.10439   6.30447   6.44428   6.52595
 Alpha virt. eigenvalues --    6.76593   6.84572   7.10751   9.69216  10.28101
 Alpha virt. eigenvalues --   10.83976  11.27381  11.39097  11.48460  11.54015
 Alpha virt. eigenvalues --   11.76579  11.92753  12.06963  12.24883  12.29490
 Alpha virt. eigenvalues --   12.40365  12.63712  12.79238  13.06608  13.37908
          Condensed to atoms (all electrons):
               1          2          3          4          5          6
     1  C    4.923255   0.382539  -0.013887  -0.000686   0.004810  -0.000205
     2  C    0.382539   5.136129   0.321358  -0.074218  -0.131915   0.006595
     3  C   -0.013887   0.321358   4.278891   0.765881   0.348997  -0.017330
     4  O   -0.000686  -0.074218   0.765881   7.664726  -0.073634  -0.001371
     5  C    0.004810  -0.131915   0.348997  -0.073634   5.297156   0.332027
     6  C   -0.000205   0.006595  -0.017330  -0.001371   0.332027   4.911467
     7  C    0.000000   0.000011   0.001955   0.001759   0.004334   0.634626
     8  C    0.000000  -0.000006   0.000971  -0.000012  -0.029571  -0.001708
     9  C   -0.000000  -0.000000  -0.000198  -0.000032   0.006269  -0.047927
    10  C    0.000000  -0.000000  -0.000000  -0.000000  -0.000139   0.001973
    11  O   -0.000000  -0.000000   0.000000  -0.000000   0.000004   0.000096
    12  C   -0.000000   0.000000  -0.000000  -0.000000   0.000001  -0.000104
    13  C    0.000000  -0.000000  -0.000000  -0.000000  -0.000000   0.000001
    14  C   -0.000000  -0.000000  -0.000000   0.000000   0.000000  -0.000000
    15  C    0.000000   0.000000  -0.000000   0.000000  -0.000000   0.000000
    16  N    0.000000   0.000000   0.000000   0.000000   0.000000  -0.000000
    17  H    0.366564  -0.023832   0.003371   0.000749  -0.000070   0.000000
    18  H    0.383214  -0.029574  -0.003099   0.005171   0.000507  -0.000005
    19  H    0.383286  -0.029565  -0.003088   0.005147   0.000510  -0.000005
    20  H   -0.031937   0.357244  -0.018807   0.000576   0.002039  -0.000025
    21  H   -0.031934   0.357359  -0.018808   0.000580   0.001981  -0.000026
    22  H   -0.000021   0.001521  -0.017546   0.000381   0.340298  -0.016952
    23  H   -0.000019   0.001456  -0.017476   0.000357   0.340705  -0.017685
    24  H   -0.000022   0.001381   0.002460   0.019567  -0.084982   0.372903
    25  H   -0.000000   0.000034   0.000253   0.000002   0.005653  -0.016851
    26  H   -0.000000   0.000000  -0.000019   0.000000   0.000348  -0.000835
    27  H   -0.000000   0.000000  -0.000018   0.000000   0.000591  -0.002433
    28  H    0.000000  -0.000000   0.000016  -0.000002  -0.000172  -0.005560
    29  H    0.000000  -0.000000   0.000015  -0.000002  -0.000181  -0.007703
    30  H   -0.000000  -0.000000   0.000000  -0.000000  -0.000007   0.000597
    31  H   -0.000000   0.000000  -0.000000   0.000000  -0.000002   0.000057
    32  H   -0.000000   0.000000   0.000000   0.000000  -0.000000   0.000006
    33  H    0.000000  -0.000000   0.000000  -0.000000  -0.000000   0.000002
    34  H    0.000000   0.000000   0.000000   0.000000  -0.000000   0.000000
    35  H    0.000000   0.000000   0.000000  -0.000000   0.000000   0.000000
    36  H   -0.000000   0.000000   0.000000   0.000000   0.000000   0.000000
    37  H   -0.000000   0.000000   0.000000   0.000000   0.000000   0.000000
    38  H    0.000000   0.000000   0.000000   0.000000   0.000000   0.000000
    39  H    0.000000  -0.000000   0.000000   0.000000  -0.000000  -0.000000
    40  H    0.000000   0.000000   0.000000   0.000000  -0.000000  -0.000000
    41  H    0.000000   0.000000   0.000000   0.000000  -0.000000   0.000000
               7          8          9         10         11         12
     1  C    0.000000   0.000000  -0.000000   0.000000  -0.000000  -0.000000
     2  C    0.000011  -0.000006  -0.000000  -0.000000  -0.000000   0.000000
     3  C    0.001955   0.000971  -0.000198  -0.000000   0.000000  -0.000000
     4  O    0.001759  -0.000012  -0.000032  -0.000000  -0.000000  -0.000000
     5  C    0.004334  -0.029571   0.006269  -0.000139   0.000004   0.000001
     6  C    0.634626  -0.001708  -0.047927   0.001973   0.000096  -0.000104
     7  C    4.480331   0.377950   0.402630  -0.028240  -0.001098   0.001795
     8  C    0.377950   5.138735  -0.089653  -0.000327  -0.015322   0.000377
     9  C    0.402630  -0.089653   5.133912   0.386804  -0.025335  -0.036713
    10  C   -0.028240  -0.000327   0.386804   4.631814   0.308623   0.403763
    11  O   -0.001098  -0.015322  -0.025335   0.308623   7.895409  -0.037948
    12  C    0.001795   0.000377  -0.036713   0.403763  -0.037948   4.924431
    13  C   -0.000124   0.000013   0.003012  -0.030021  -0.010407   0.430062
    14  C    0.000001   0.000000  -0.000083   0.000568   0.000625  -0.035231
    15  C   -0.000000   0.000000   0.000001  -0.000159   0.000010   0.001762
    16  N    0.000000  -0.000000  -0.000000   0.000000  -0.000000  -0.000067
    17  H   -0.000000   0.000000   0.000000  -0.000000   0.000000   0.000000
    18  H   -0.000000   0.000000   0.000000  -0.000000   0.000000   0.000000
    19  H   -0.000000   0.000000   0.000000  -0.000000   0.000000   0.000000
    20  H   -0.000003  -0.000000   0.000000   0.000000  -0.000000  -0.000000
    21  H   -0.000004   0.000000   0.000000   0.000000  -0.000000  -0.000000
    22  H   -0.009295   0.000408  -0.000102   0.000011  -0.000002  -0.000000
    23  H   -0.008949   0.000141  -0.000082   0.000004   0.000000  -0.000000
    24  H   -0.041785   0.009135  -0.017294   0.000291   0.000004  -0.000016
    25  H   -0.017582   0.354625   0.005718  -0.000495   0.000567  -0.000009
    26  H   -0.019999   0.363595  -0.002586   0.001298  -0.000376   0.000137
    27  H   -0.012032   0.353579  -0.001290   0.000627   0.019625   0.000380
    28  H   -0.017262   0.004181   0.332228  -0.021635   0.003234  -0.000691
    29  H   -0.019246   0.004075   0.330857  -0.017573  -0.005206  -0.007828
    30  H   -0.001753   0.000902  -0.054288   0.365670  -0.024639  -0.052788
    31  H   -0.000349   0.000988  -0.005134  -0.059539   0.300631  -0.002127
    32  H    0.000147   0.000008  -0.000577  -0.020782   0.003455   0.341434
    33  H    0.000172   0.000005  -0.006863  -0.016909  -0.003709   0.341749
    34  H    0.000006   0.000004   0.000521  -0.005519   0.016537  -0.029284
    35  H    0.000014  -0.000005   0.000151  -0.001273   0.000044  -0.037321
    36  H    0.000000   0.000000   0.000002   0.000232  -0.000010  -0.002047
    37  H    0.000000   0.000000   0.000010   0.000358   0.000013  -0.003585
    38  H    0.000000   0.000000   0.000000   0.000033  -0.000010   0.000127
    39  H    0.000000   0.000000   0.000000   0.000007   0.000000   0.000056
    40  H    0.000000   0.000000  -0.000000   0.000000   0.000000   0.000003
    41  H   -0.000000  -0.000000   0.000000  -0.000000   0.000000   0.000001
              13         14         15         16         17         18
     1  C    0.000000  -0.000000   0.000000   0.000000   0.366564   0.383214
     2  C   -0.000000  -0.000000   0.000000   0.000000  -0.023832  -0.029574
     3  C   -0.000000  -0.000000  -0.000000   0.000000   0.003371  -0.003099
     4  O   -0.000000   0.000000   0.000000   0.000000   0.000749   0.005171
     5  C   -0.000000   0.000000  -0.000000   0.000000  -0.000070   0.000507
     6  C    0.000001  -0.000000   0.000000  -0.000000   0.000000  -0.000005
     7  C   -0.000124   0.000001  -0.000000   0.000000  -0.000000  -0.000000
     8  C    0.000013   0.000000   0.000000  -0.000000   0.000000   0.000000
     9  C    0.003012  -0.000083   0.000001  -0.000000   0.000000   0.000000
    10  C   -0.030021   0.000568  -0.000159   0.000000  -0.000000  -0.000000
    11  O   -0.010407   0.000625   0.000010  -0.000000   0.000000   0.000000
    12  C    0.430062  -0.035231   0.001762  -0.000067   0.000000   0.000000
    13  C    4.831986   0.381919  -0.039099   0.002523  -0.000000   0.000000
    14  C    0.381919   4.839458   0.423530  -0.039434   0.000000  -0.000000
    15  C   -0.039099   0.423530   4.812932   0.385644   0.000000   0.000000
    16  N    0.002523  -0.039434   0.385644   6.553409   0.000000   0.000000
    17  H   -0.000000   0.000000   0.000000   0.000000   0.620552  -0.031915
    18  H    0.000000  -0.000000   0.000000   0.000000  -0.031915   0.574206
    19  H    0.000000  -0.000000   0.000000   0.000000  -0.031896  -0.029121
    20  H    0.000000  -0.000000   0.000000   0.000000  -0.002262  -0.003904
    21  H    0.000000  -0.000000   0.000000   0.000000  -0.002262   0.005217
    22  H    0.000000   0.000000   0.000000   0.000000  -0.000003  -0.000017
    23  H    0.000000  -0.000000   0.000000   0.000000  -0.000003  -0.000000
    24  H    0.000000   0.000000  -0.000000   0.000000  -0.000000  -0.000005
    25  H   -0.000000  -0.000000  -0.000000   0.000000   0.000000  -0.000000
    26  H    0.000003   0.000000   0.000000  -0.000000  -0.000000  -0.000000
    27  H    0.000003   0.000000  -0.000000   0.000000  -0.000000   0.000000
    28  H   -0.000060  -0.000007   0.000000   0.000000   0.000000  -0.000000
    29  H    0.000033   0.000004   0.000000   0.000000   0.000000   0.000000
    30  H   -0.004435   0.000122   0.000007   0.000000  -0.000000   0.000000
    31  H   -0.000052  -0.000078  -0.000000  -0.000000   0.000000   0.000000
    32  H   -0.030256  -0.002877   0.000111   0.000002  -0.000000  -0.000000
    33  H   -0.033809  -0.003806   0.000110   0.000004   0.000000   0.000000
    34  H    0.361754  -0.033951  -0.002828   0.000011  -0.000000   0.000000
    35  H    0.363377  -0.033407  -0.003698   0.000105   0.000000   0.000000
    36  H   -0.027347   0.358190  -0.029929   0.003593   0.000000   0.000000
    37  H   -0.032901   0.365480  -0.038257  -0.002091   0.000000  -0.000000
    38  H    0.004794  -0.046955   0.375287  -0.047909   0.000000   0.000000
    39  H   -0.006242  -0.018657   0.355741  -0.021261   0.000000   0.000000
    40  H   -0.000324  -0.003596  -0.054150   0.340863   0.000000   0.000000
    41  H   -0.000355   0.005546  -0.045005   0.335618   0.000000   0.000000
              19         20         21         22         23         24
     1  C    0.383286  -0.031937  -0.031934  -0.000021  -0.000019  -0.000022
     2  C   -0.029565   0.357244   0.357359   0.001521   0.001456   0.001381
     3  C   -0.003088  -0.018807  -0.018808  -0.017546  -0.017476   0.002460
     4  O    0.005147   0.000576   0.000580   0.000381   0.000357   0.019567
     5  C    0.000510   0.002039   0.001981   0.340298   0.340705  -0.084982
     6  C   -0.000005  -0.000025  -0.000026  -0.016952  -0.017685   0.372903
     7  C   -0.000000  -0.000003  -0.000004  -0.009295  -0.008949  -0.041785
     8  C    0.000000  -0.000000   0.000000   0.000408   0.000141   0.009135
     9  C    0.000000   0.000000   0.000000  -0.000102  -0.000082  -0.017294
    10  C   -0.000000   0.000000   0.000000   0.000011   0.000004   0.000291
    11  O    0.000000  -0.000000  -0.000000  -0.000002   0.000000   0.000004
    12  C    0.000000  -0.000000  -0.000000  -0.000000  -0.000000  -0.000016
    13  C    0.000000   0.000000   0.000000   0.000000   0.000000   0.000000
    14  C   -0.000000  -0.000000  -0.000000   0.000000  -0.000000   0.000000
    15  C    0.000000   0.000000   0.000000   0.000000   0.000000  -0.000000
    16  N    0.000000   0.000000   0.000000   0.000000   0.000000   0.000000
    17  H   -0.031896  -0.002262  -0.002262  -0.000003  -0.000003  -0.000000
    18  H   -0.029121  -0.003904   0.005217  -0.000017  -0.000000  -0.000005
    19  H    0.573852   0.005217  -0.003901  -0.000000  -0.000017  -0.000005
    20  H    0.005217   0.602561  -0.032342   0.001290  -0.000021  -0.000019
    21  H   -0.003901  -0.032342   0.602287  -0.000021   0.001314  -0.000019
    22  H   -0.000000   0.001290  -0.000021   0.596652  -0.034870   0.004061
    23  H   -0.000017  -0.000021   0.001314  -0.034870   0.594950   0.004079
    24  H   -0.000005  -0.000019  -0.000019   0.004061   0.004079   0.624904
    25  H   -0.000000  -0.000002  -0.000004   0.001353   0.002541   0.000090
    26  H   -0.000000  -0.000000  -0.000000  -0.000269   0.000848  -0.000177
    27  H   -0.000000  -0.000000  -0.000000   0.000934  -0.000293  -0.000169
    28  H    0.000000   0.000000   0.000000  -0.000021   0.000053   0.002932
    29  H   -0.000000   0.000000   0.000000   0.000058  -0.000021   0.003033
    30  H   -0.000000   0.000000   0.000000   0.000001  -0.000003   0.000015
    31  H   -0.000000  -0.000000   0.000000   0.000001  -0.000000   0.000002
    32  H   -0.000000  -0.000000  -0.000000  -0.000000   0.000000   0.000000
    33  H   -0.000000  -0.000000  -0.000000   0.000000  -0.000000   0.000001
    34  H   -0.000000   0.000000   0.000000   0.000000  -0.000000  -0.000000
    35  H    0.000000   0.000000   0.000000  -0.000000   0.000000   0.000000
    36  H   -0.000000  -0.000000  -0.000000   0.000000  -0.000000   0.000000
    37  H    0.000000   0.000000  -0.000000  -0.000000   0.000000   0.000000
    38  H    0.000000  -0.000000  -0.000000  -0.000000   0.000000   0.000000
    39  H    0.000000   0.000000  -0.000000  -0.000000  -0.000000  -0.000000
    40  H    0.000000   0.000000   0.000000   0.000000  -0.000000   0.000000
    41  H    0.000000   0.000000   0.000000   0.000000   0.000000   0.000000
              25         26         27         28         29         30
     1  C   -0.000000  -0.000000  -0.000000   0.000000   0.000000  -0.000000
     2  C    0.000034   0.000000   0.000000  -0.000000  -0.000000  -0.000000
     3  C    0.000253  -0.000019  -0.000018   0.000016   0.000015   0.000000
     4  O    0.000002   0.000000   0.000000  -0.000002  -0.000002  -0.000000
     5  C    0.005653   0.000348   0.000591  -0.000172  -0.000181  -0.000007
     6  C   -0.016851  -0.000835  -0.002433  -0.005560  -0.007703   0.000597
     7  C   -0.017582  -0.019999  -0.012032  -0.017262  -0.019246  -0.001753
     8  C    0.354625   0.363595   0.353579   0.004181   0.004075   0.000902
     9  C    0.005718  -0.002586  -0.001290   0.332228   0.330857  -0.054288
    10  C   -0.000495   0.001298   0.000627  -0.021635  -0.017573   0.365670
    11  O    0.000567  -0.000376   0.019625   0.003234  -0.005206  -0.024639
    12  C   -0.000009   0.000137   0.000380  -0.000691  -0.007828  -0.052788
    13  C   -0.000000   0.000003   0.000003  -0.000060   0.000033  -0.004435
    14  C   -0.000000   0.000000   0.000000  -0.000007   0.000004   0.000122
    15  C   -0.000000   0.000000  -0.000000   0.000000   0.000000   0.000007
    16  N    0.000000  -0.000000   0.000000   0.000000   0.000000   0.000000
    17  H    0.000000  -0.000000  -0.000000   0.000000   0.000000  -0.000000
    18  H   -0.000000  -0.000000   0.000000  -0.000000   0.000000   0.000000
    19  H   -0.000000  -0.000000  -0.000000   0.000000  -0.000000  -0.000000
    20  H   -0.000002  -0.000000  -0.000000   0.000000   0.000000   0.000000
    21  H   -0.000004  -0.000000  -0.000000   0.000000   0.000000   0.000000
    22  H    0.001353  -0.000269   0.000934  -0.000021   0.000058   0.000001
    23  H    0.002541   0.000848  -0.000293   0.000053  -0.000021  -0.000003
    24  H    0.000090  -0.000177  -0.000169   0.002932   0.003033   0.000015
    25  H    0.628187  -0.033037  -0.031045  -0.000131  -0.000148  -0.000150
    26  H   -0.033037   0.601030  -0.030775   0.000237  -0.000129   0.002513
    27  H   -0.031045  -0.030775   0.557184  -0.000139   0.000086  -0.000684
    28  H   -0.000131   0.000237  -0.000139   0.621872  -0.033481  -0.001027
    29  H   -0.000148  -0.000129   0.000086  -0.033481   0.635539   0.006307
    30  H   -0.000150   0.002513  -0.000684  -0.001027   0.006307   0.652723
    31  H   -0.000025   0.000007  -0.000499  -0.000111   0.006292   0.007023
    32  H   -0.000000   0.000007  -0.000016   0.002597  -0.000063  -0.000495
    33  H    0.000000  -0.000002  -0.000007  -0.000162   0.005457   0.006692
    34  H   -0.000000  -0.000000  -0.000009  -0.000022  -0.000004  -0.000237
    35  H   -0.000000  -0.000006  -0.000003  -0.000010   0.000011   0.006279
    36  H    0.000000  -0.000000   0.000000   0.000001   0.000001   0.000009
    37  H    0.000000  -0.000000  -0.000000  -0.000000  -0.000002   0.000013
    38  H    0.000000   0.000000   0.000000   0.000000   0.000000   0.000001
    39  H   -0.000000   0.000000  -0.000000   0.000000  -0.000000  -0.000003
    40  H   -0.000000   0.000000   0.000000   0.000000  -0.000000  -0.000000
    41  H   -0.000000   0.000000  -0.000000   0.000000  -0.000000   0.000000
              31         32         33         34         35         36
     1  C   -0.000000  -0.000000   0.000000   0.000000   0.000000  -0.000000
     2  C    0.000000   0.000000  -0.000000   0.000000   0.000000   0.000000
     3  C   -0.000000   0.000000   0.000000   0.000000   0.000000   0.000000
     4  O    0.000000   0.000000  -0.000000   0.000000  -0.000000   0.000000
     5  C   -0.000002  -0.000000  -0.000000  -0.000000   0.000000   0.000000
     6  C    0.000057   0.000006   0.000002   0.000000   0.000000   0.000000
     7  C   -0.000349   0.000147   0.000172   0.000006   0.000014   0.000000
     8  C    0.000988   0.000008   0.000005   0.000004  -0.000005   0.000000
     9  C   -0.005134  -0.000577  -0.006863   0.000521   0.000151   0.000002
    10  C   -0.059539  -0.020782  -0.016909  -0.005519  -0.001273   0.000232
    11  O    0.300631   0.003455  -0.003709   0.016537   0.000044  -0.000010
    12  C   -0.002127   0.341434   0.341749  -0.029284  -0.037321  -0.002047
    13  C   -0.000052  -0.030256  -0.033809   0.361754   0.363377  -0.027347
    14  C   -0.000078  -0.002877  -0.003806  -0.033951  -0.033407   0.358190
    15  C   -0.000000   0.000111   0.000110  -0.002828  -0.003698  -0.029929
    16  N   -0.000000   0.000002   0.000004   0.000011   0.000105   0.003593
    17  H    0.000000  -0.000000   0.000000  -0.000000   0.000000   0.000000
    18  H    0.000000  -0.000000   0.000000   0.000000   0.000000   0.000000
    19  H   -0.000000  -0.000000  -0.000000  -0.000000   0.000000  -0.000000
    20  H   -0.000000  -0.000000  -0.000000   0.000000   0.000000  -0.000000
    21  H    0.000000  -0.000000  -0.000000   0.000000   0.000000  -0.000000
    22  H    0.000001  -0.000000   0.000000   0.000000  -0.000000   0.000000
    23  H   -0.000000   0.000000  -0.000000  -0.000000   0.000000  -0.000000
    24  H    0.000002   0.000000   0.000001  -0.000000   0.000000   0.000000
    25  H   -0.000025  -0.000000   0.000000  -0.000000  -0.000000   0.000000
    26  H    0.000007   0.000007  -0.000002  -0.000000  -0.000006  -0.000000
    27  H   -0.000499  -0.000016  -0.000007  -0.000009  -0.000003   0.000000
    28  H   -0.000111   0.002597  -0.000162  -0.000022  -0.000010   0.000001
    29  H    0.006292  -0.000063   0.005457  -0.000004   0.000011   0.000001
    30  H    0.007023  -0.000495   0.006692  -0.000237   0.006279   0.000009
    31  H    0.469413  -0.000132   0.004791  -0.000103   0.000029   0.000003
    32  H   -0.000132   0.649170  -0.037620   0.006033  -0.004684   0.004639
    33  H    0.004791  -0.037620   0.657543  -0.004708   0.006338  -0.000451
    34  H   -0.000103   0.006033  -0.004708   0.617885  -0.039805   0.006002
    35  H    0.000029  -0.004684   0.006338  -0.039805   0.651302  -0.005685
    36  H    0.000003   0.004639  -0.000451   0.006002  -0.005685   0.635233
    37  H   -0.000010  -0.000388   0.005270  -0.005623   0.006458  -0.043477
    38  H    0.000000   0.000001   0.000006   0.005700  -0.000539   0.006886
    39  H   -0.000000   0.000007   0.000007  -0.000637   0.004956  -0.006335
    40  H    0.000000   0.000001  -0.000002  -0.000001   0.000018  -0.000505
    41  H    0.000000   0.000000   0.000000   0.000001   0.000005  -0.000121
              37         38         39         40         41
     1  C   -0.000000   0.000000   0.000000   0.000000   0.000000
     2  C    0.000000   0.000000  -0.000000   0.000000   0.000000
     3  C    0.000000   0.000000   0.000000   0.000000   0.000000
     4  O    0.000000   0.000000   0.000000   0.000000   0.000000
     5  C    0.000000   0.000000  -0.000000  -0.000000  -0.000000
     6  C    0.000000   0.000000  -0.000000  -0.000000   0.000000
     7  C    0.000000   0.000000   0.000000   0.000000  -0.000000
     8  C    0.000000   0.000000   0.000000   0.000000  -0.000000
     9  C    0.000010   0.000000   0.000000  -0.000000   0.000000
    10  C    0.000358   0.000033   0.000007   0.000000  -0.000000
    11  O    0.000013  -0.000010   0.000000   0.000000   0.000000
    12  C   -0.003585   0.000127   0.000056   0.000003   0.000001
    13  C   -0.032901   0.004794  -0.006242  -0.000324  -0.000355
    14  C    0.365480  -0.046955  -0.018657  -0.003596   0.005546
    15  C   -0.038257   0.375287   0.355741  -0.054150  -0.045005
    16  N   -0.002091  -0.047909  -0.021261   0.340863   0.335618
    17  H    0.000000   0.000000   0.000000   0.000000   0.000000
    18  H   -0.000000   0.000000   0.000000   0.000000   0.000000
    19  H    0.000000   0.000000   0.000000   0.000000   0.000000
    20  H    0.000000  -0.000000   0.000000   0.000000   0.000000
    21  H   -0.000000  -0.000000  -0.000000   0.000000   0.000000
    22  H   -0.000000  -0.000000  -0.000000   0.000000   0.000000
    23  H    0.000000   0.000000  -0.000000  -0.000000   0.000000
    24  H    0.000000   0.000000  -0.000000   0.000000   0.000000
    25  H    0.000000   0.000000  -0.000000  -0.000000  -0.000000
    26  H   -0.000000   0.000000   0.000000   0.000000   0.000000
    27  H   -0.000000   0.000000  -0.000000   0.000000  -0.000000
    28  H   -0.000000   0.000000   0.000000   0.000000   0.000000
    29  H   -0.000002   0.000000  -0.000000  -0.000000  -0.000000
    30  H    0.000013   0.000001  -0.000003  -0.000000   0.000000
    31  H   -0.000010   0.000000  -0.000000   0.000000   0.000000
    32  H   -0.000388   0.000001   0.000007   0.000001   0.000000
    33  H    0.005270   0.000006   0.000007  -0.000002   0.000000
[...]
 00236819,-0.00447941,0.00600413,0.00009852,-0.13044708,0.22152667,-0.0
 0000010,-0.00000023,-0.00000006,0.00000220,0.00000130,-0.00000172,-0.0
 0000984,-0.00000180,0.00001658,0.00001281,0.00000490,-0.00001586,-0.00
 000053,-0.00000096,-0.00000040,-0.00000030,-0.00000048,-0.00000566,-0.
 00000027,-0.00001054,0.00000346,-0.00000528,0.00000028,0.00000623,0.00
 002249,-0.00003251,-0.00002303,0.00010629,0.00006682,0.00005350,0.0000
 4101,-0.00004110,-0.00006963,-0.00134837,0.00072330,0.00099377,-0.0090
 7115,0.01227406,-0.00134124,-0.00307659,0.00159329,-0.04782012,0.02201
 341,-0.02664073,-0.00227473,-0.00114403,-0.00082404,0.00222202,0.00000
 104,0.00000081,-0.00000032,-0.00000019,-0.00000102,0.00000021,-0.00000
 109,-0.00000021,-0.00000019,0.00000004,0.00000097,-0.00000029,0.000000
 89,0.00000027,0.00000021,-0.00000102,-0.00000049,0.,0.00000165,-0.0000
 0015,-0.00000047,0.00000065,0.00000237,0.00000363,0.00000293,-0.000001
 00,-0.00000034,-0.00000102,-0.00000024,0.00000068,0.00000116,-0.000005
 20,0.00000027,-0.00000281,0.00000321,0.00000204,0.00002694,-0.00001169
 ,-0.00002920,0.00006444,-0.00019634,-0.00000189,-0.00001872,0.00000124
 ,0.00000869,-0.00001521,0.00004029,-0.00003032,0.00051311,-0.00028493,
 -0.00015441,0.00028047,-0.00073077,0.00048106,0.00193163,0.00242312,-0
 .00090168,-0.01047309,0.01374655,-0.00048986,-0.00097722,-0.00228558,0
 .05360467,0.00000144,0.00000299,-0.00000385,-0.00000458,-0.00000140,0.
 00000346,0.00001449,-0.00000215,-0.00005389,-0.00001444,-0.00000386,0.
 00005035,0.00000128,0.00000236,0.00001039,0.00000111,0.00000121,0.0000
 0654,-0.00000390,0.00000364,-0.00000545,0.00000143,-0.00000078,-0.0000
 0293,0.00001310,0.00001832,-0.00000344,-0.00007029,-0.00004313,-0.0001
 6367,0.00004971,0.00003117,0.00009016,0.00045921,0.00027869,0.00007812
 ,0.00042111,0.00027303,-0.00010595,0.00592394,0.00213394,0.00518084,-0
 .19655493,-0.04049099,-0.10049492,-0.01421621,-0.01492988,-0.00146287,
 -0.00000198,-0.00000091,0.00000206,-0.00000057,0.00000281,-0.00000209,
 0.00000412,-0.00000193,0.00000143,0.00000072,-0.00000187,0.00000345,-0
 .00000152,0.00000101,-0.00000038,0.00000100,-0.00000014,0.00000089,-0.
 00000009,0.00000266,-0.00000032,0.00000254,-0.00000360,-0.00000449,0.0
 0000009,0.00000041,-0.00000124,0.00000188,0.00000125,0.00000518,-0.000
 00337,-0.00000172,-0.00000251,0.00000451,0.00000155,0.00000793,-0.0000
 0242,0.00000007,-0.00000051,0.00000586,-0.00000180,0.00000312,0.000006
 52,-0.00000884,-0.00003766,-0.00013113,-0.00001616,0.00016332,-0.00002
 340,0.00000781,0.00000193,0.00038676,0.00025745,-0.00026475,-0.0000138
 6,-0.00010121,0.00000147,0.00082260,0.00006170,0.00239642,0.00084982,-
 0.00032174,-0.00051964,0.21768066,-0.00000010,0.00000143,-0.00000115,-
 0.00000272,-0.00000070,0.00000092,0.00000767,0.00000350,-0.00001742,-0
 .00000594,-0.00000660,0.00001745,0.00000085,0.00000027,0.00000151,0.00
 000003,0.00000216,0.00000185,-0.00000185,0.00000415,0.00000292,0.00000
 023,-0.00000120,-0.00000252,-0.00000405,0.00000239,-0.00000033,0.00002
 147,-0.00000724,-0.00002534,0.00003077,0.00000911,0.00002122,0.0002060
 9,0.00004220,0.00003856,0.00019766,0.00007688,0.00035282,-0.00642963,-
 0.00123805,-0.00624166,-0.04030250,-0.06482970,-0.03113209,-0.02975508
 ,-0.01652333,-0.00750056,-0.00000105,-0.00000087,0.00000048,0.00000038
 ,0.00000057,-0.00000040,0.00000125,-0.00000011,0.00000078,0.00000045,-
 0.00000095,0.00000110,-0.00000029,0.00000010,-0.00000087,0.00000067,-0
 .00000099,0.00000054,-0.00000084,0.00000088,-0.00000038,0.00000099,-0.
 00000185,-0.00000200,-0.00000078,-0.00000071,0.00000054,0.00000128,0.0
 0000030,0.00000152,-0.00000059,0.00000077,-0.00000031,0.00000244,-0.00
 000252,0.00000179,-0.00000211,-0.00000047,-0.00000126,0.00000162,0.000
 00361,0.00000150,0.00000592,0.00000143,-0.00001054,-0.00003671,-0.0000
 3178,0.00013643,-0.00001448,-0.00002017,-0.00002080,0.00012648,0.00038
 693,0.00007091,0.00010858,0.00009187,-0.00000079,-0.00014533,0.0002034
 7,-0.00124627,-0.00062611,0.00015962,0.00049684,0.05626452,0.07297131,
 0.00000278,0.00000268,-0.00000532,0.00000116,0.00000314,0.00000499,-0.
 00000450,-0.00001358,-0.00004124,0.00000886,0.00001340,0.00003100,-0.0
 0000130,0.00000031,0.00001957,0.00000636,0.00000653,-0.00000744,-0.000
 01672,-0.00002072,0.00000415,0.00000566,0.00000516,-0.00000171,0.00001
 030,0.00001905,0.00000089,-0.00007857,-0.00011053,-0.00004344,0.000147
 51,0.00008953,0.00008153,0.00040482,0.00014967,0.00000219,-0.00181400,
 -0.00112177,0.00102079,-0.02631085,-0.00722972,-0.02013177,-0.09843524
 ,-0.03020917,-0.11726787,0.01548068,0.00817483,0.00938414,0.00000051,0
 .00000170,0.00000241,-0.00000087,0.00000079,-0.00000073,0.00000144,-0.
 00000150,0.00000143,0.00000033,-0.00000056,0.00000306,-0.00000016,0.00
 000142,-0.00000004,-0.00000034,0.00000249,-0.00000035,0.00000583,0.000
 00450,-0.00000218,-0.00000053,-0.00000194,-0.00000195,0.00000311,0.000
 00647,-0.00000486,0.00000115,-0.00000130,0.00000530,0.00000006,-0.0000
 0881,-0.00000086,0.00000717,0.00000024,0.00001970,-0.00000190,-0.00000
 041,-0.00000264,0.00001671,0.00001236,-0.00000009,0.00000599,-0.000013
 19,-0.00000318,0.00009030,0.00006145,0.00035964,-0.00003703,-0.0000147
 6,-0.00000269,0.00112902,0.00072737,-0.00001934,0.00007396,0.00009674,
 -0.00004533,0.00232494,-0.00166027,-0.00596341,0.00043143,-0.00009975,
 0.00168928,0.10680764,0.03317355,0.12832314,-0.00000359,0.00000173,0.0
 0000098,-0.00000278,0.00000008,-0.00000106,0.00000223,0.00001081,0.000
 01024,0.00000140,-0.00001910,-0.00000454,0.00000049,-0.00000026,-0.000
 00749,-0.00000286,-0.00000182,0.00000132,0.00000041,0.00001917,0.00000
 102,-0.00000576,-0.00000056,0.00000428,-0.00000678,-0.00002661,0.00001
 030,-0.00002233,0.00007166,0.00003586,0.00000466,-0.00006221,0.0000105
 6,0.00013512,-0.00037277,0.00016467,-0.00000064,0.00086337,-0.00062610
 ,-0.00653249,0.00674631,0.00038354,-0.15734007,0.12682790,-0.00208496,
 0.01212373,-0.01675305,0.00018822,-0.00000028,-0.00000130,-0.00000098,
 0.00000185,-0.00000188,0.00000058,-0.00000034,0.00000108,0.00000057,-0
 .00000031,-0.00000027,-0.00000012,0.00000087,-0.00000143,-0.00000179,-
 0.00000036,-0.00000302,0.00000180,-0.00000139,-0.00000098,0.00000004,0
 .00000267,-0.00000168,0.00000101,-0.00000099,-0.00000411,0.00000256,0.
 00000052,-0.00000047,-0.00000029,0.00000214,0.00000126,-0.00000186,-0.
 00000059,0.00000106,-0.00000154,0.00000550,-0.00000344,-0.00000708,0.0
 0000713,-0.00004492,0.00002580,-0.00000494,0.00002065,0.00000934,-0.00
 000998,0.00000721,-0.00000867,0.00009603,-0.00008997,-0.00018286,0.000
 01969,0.00006093,0.00002369,0.00014904,-0.00072375,0.00051453,0.001013
 28,-0.00058303,0.00023612,0.00092643,-0.00021552,0.00219511,-0.0176063
 1,0.01944132,-0.00038373,0.16630424,0.00000195,-0.00000091,-0.00000028
 ,0.00000137,-0.00000036,0.00000064,-0.00000029,-0.00000504,-0.00000404
 ,-0.00000125,0.00000912,0.00000129,0.00000020,0.00000021,0.00000381,0.
 00000115,0.00000250,0.,0.00000114,-0.00001371,-0.00000123,0.00000321,0
 .00000005,-0.00000245,0.00001468,0.00001428,-0.00000460,0.00000204,-0.
 00001393,-0.00003558,-0.00000333,0.00002244,-0.00000547,-0.00020253,0.
 00032782,-0.00009581,-0.00043826,0.00030977,0.00037358,0.00538667,-0.0
 0586818,-0.00110916,0.11934143,-0.18984617,0.00059602,0.01400883,-0.02
 837248,0.00129268,0.00000009,0.00000039,0.00000049,-0.00000109,0.00000
 092,-0.00000017,0.00000018,-0.00000029,-0.00000049,0.00000025,0.000000
 06,-0.00000012,-0.00000045,0.00000071,0.00000074,0.00000047,0.00000178
 ,-0.00000107,0.00000010,0.00000025,0.00000003,-0.00000192,0.00000081,-
 0.00000161,-0.00000010,0.00000221,-0.00000126,0.00000026,-0.00000019,-
 0.00000181,-0.00000026,0.00000059,0.00000284,-0.00000086,-0.00000218,-
 0.00000090,-0.00000438,0.00000153,0.00000050,0.00000268,0.00002037,-0.
 00001276,0.00000218,-0.00001069,-0.00000229,0.00000983,-0.00003358,-0.
 00002079,-0.00009131,-0.00002698,0.00019539,-0.00005595,0.00007998,-0.
 00003306,0.00020298,0.00068392,-0.00021932,-0.00028235,0.00007640,0.00
 008529,-0.00001259,0.00047217,-0.00120453,-0.00372501,0.00663480,-0.00
 029322,-0.13170046,0.21837959,0.00000025,0.00000018,-0.00000089,0.0000
 0083,0.00000025,0.00000070,-0.00000145,-0.00000231,-0.00000303,0.00000
 199,0.00000346,0.00000154,-0.00000076,0.00000017,0.00000175,0.00000066
 ,0.00000067,-0.00000074,-0.00000186,-0.00000460,0.00000661,0.00000254,
 0.00000035,-0.00000210,-0.00000517,-0.00001029,0.00001314,-0.00008277,
 0.00006820,0.00002743,0.00000454,0.00001596,-0.00000103,-0.00008239,-0
 .00009080,-0.00009452,-0.00031995,-0.00134546,0.00157984,0.02203749,-0
 .02493900,-0.00168383,-0.00170174,-0.00144011,-0.04833981,-0.00706895,
 0.01540998,-0.00000328,0.00000017,0.00000034,0.00000030,0.00000001,0.0
 0000011,0.00000030,-0.00000009,-0.00000011,0.00000008,0.00000012,0.000
 00012,0.,-0.00000017,0.00000021,0.00000012,0.00000032,0.00000114,-0.00
 000060,0.00000050,0.00000029,-0.00000016,-0.00000166,0.00000023,-0.000
 00023,-0.00000049,0.00000145,-0.00000098,0.00000026,-0.00000043,-0.000
 00160,0.00000104,0.00000025,0.00000173,0.00000085,-0.00000123,-0.00000
 133,-0.00000783,-0.00000027,0.00000502,0.00001853,0.00005472,-0.000026
 80,-0.00000189,-0.00000531,-0.00000277,-0.00000721,-0.00002285,-0.0000
 1441,-0.00017051,0.00019281,0.00010335,0.00004062,0.00015993,-0.000091
 68,-0.00019287,0.00082491,-0.00013046,-0.00052041,0.00029903,0.0016130
 2,0.00216323,-0.00144371,-0.00595372,-0.01314687,0.01294384,0.00034861
 ,-0.00185127,-0.00321680,0.05359276,0.00000009,-0.00000129,-0.00000003
 ,0.00000461,0.00000249,0.00000017,-0.00001383,-0.00000616,0.00002120,0
 .00001536,0.00001184,-0.00002338,-0.00000230,-0.00000073,0.00000303,0.
 00000239,-0.00000007,-0.00000774,-0.00000437,-0.00001666,-0.00000568,0
 .00000225,0.00000291,0.00000356,0.00001480,0.00001749,-0.00001304,0.00
 000710,-0.00001926,-0.00000072,0.00000290,0.00000566,-0.00004399,-0.00
 001098,0.00009306,0.00000651,0.00004689,-0.00017387,-0.00011904,0.0012
 4478,-0.00029923,-0.00077985,0.00768709,-0.02184073,0.00180449,-0.1935
 2606,0.21186162,0.00674851,0.00000197,0.00000180,-0.00000034,-0.000000
 24,-0.00000142,0.00000097,-0.00000210,0.00000023,-0.00000054,-0.000000
 47,0.00000145,-0.00000124,0.00000070,0.00000013,0.00000072,-0.00000109
 ,0.00000180,-0.00000101,0.00000289,-0.00000021,-0.00000037,-0.00000172
 ,0.00000202,0.00000272,0.00000121,0.00000285,-0.00000160,-0.00000172,-
 0.00000097,-0.00000193,0.00000190,-0.00000250,0.00000085,-0.00000418,0
 .00000243,-0.00000168,0.00000299,-0.00000014,0.00000234,-0.00000112,0.
 00000083,-0.00000402,-0.00001167,-0.00000735,0.00001256,-0.00001528,0.
 00000679,-0.00002719,0.00000498,0.00000819,0.00002380,-0.00005263,-0.0
 0008237,-0.00000227,-0.00011244,0.00005669,0.00003123,-0.00021518,0.00
 020121,-0.00012293,-0.00012456,0.00052243,-0.00015920,0.00160713,-0.00
 049627,0.00001304,-0.00000027,-0.00287076,0.00153018,0.19419479,0.0000
 0085,-0.00000100,0.00000075,0.00000337,0.00000147,-0.00000091,-0.00000
 906,-0.00000379,0.00001594,0.00000946,0.00000961,-0.00001687,-0.000001
 58,-0.00000069,0.00000188,0.00000086,0.00000134,-0.00000616,-0.0000004
 2,-0.00001546,-0.00000512,0.00000169,0.00000194,0.00000174,0.00001347,
 0.00001732,-0.00001023,0.00001298,-0.00002890,-0.00000307,-0.00000049,
 0.00001169,-0.00003454,-0.00007462,0.00014511,0.00000586,-0.00025275,0
 .00006539,-0.00018256,0.00043448,0.00126602,-0.00047801,0.02155419,-0.
 02847660,0.00460409,0.16970610,-0.24984024,0.02173701,0.00000111,0.000
 00128,-0.00000010,-0.00000030,-0.00000068,0.00000040,-0.00000153,0.000
 00008,-0.00000068,-0.00000030,0.00000099,-0.00000078,0.00000100,-0.000
 00002,0.00000079,-0.00000065,0.00000122,-0.00000083,0.00000198,0.00000
 006,-0.00000032,-0.00000180,0.00000157,0.00000188,0.00000097,0.0000022
 8,-0.00000132,-0.00000099,-0.00000045,-0.00000153,0.00000098,-0.000001
 66,0.00000131,-0.00000319,0.00000112,-0.00000130,0.00000174,0.00000019
 ,0.00000145,-0.00000385,0.00000240,-0.00000347,-0.00000661,-0.00000802
 ,0.00000818,-0.00000549,-0.00000170,-0.00002234,-0.00000399,-0.0000055
 0,0.00004202,-0.00006772,-0.00009978,0.00000678,0.00004883,0.00023552,
 -0.00019209,-0.00015423,0.00005370,-0.00010780,-0.00036671,0.00047498,
 0.00099249,0.00049319,0.00155768,-0.00145145,-0.00432544,-0.00347656,0
 .00274294,-0.19452635,0.28566743,-0.00000281,-0.00000098,0.00000386,-0
 .00000402,-0.00000258,-0.00000218,0.00001244,0.00001708,0.00001873,-0.
 00001306,-0.00001956,-0.00000958,0.00000148,-0.00000106,-0.00001316,-0
 .00000406,-0.00000184,0.00000376,0.00001069,0.00001788,-0.00000528,-0.
 00000514,-0.00000303,0.00000287,-0.00001216,-0.00000575,0.00000660,0.0
 0005117,0.00003483,-0.00000622,-0.00005567,-0.00005072,-0.00000742,0.0
 0003250,-0.00003565,-0.00001867,0.00059629,-0.00009386,-0.00032147,-0.
 00186962,0.00167973,0.00110146,-0.01424860,0.00956560,-0.00118566,-0.0
 1208207,0.04974085,-0.04858417,-0.00000139,-0.00000234,-0.00000141,0.0
 0000134,-0.00000033,0.00000009,0.00000024,0.00000167,-0.00000054,-0.00
 000039,-0.00000044,-0.00000181,0.00000015,-0.00000155,-0.00000078,0.00
 000029,-0.00000338,0.00000141,-0.00000444,-0.00000226,0.00000157,0.000
 00285,-0.00000093,0.00000076,-0.00000213,-0.00000596,0.00000407,-0.000
 00050,0.00000103,-0.00000184,-0.00000028,0.00000506,-0.00000167,-0.000
 00405,0.00000078,-0.00000688,0.00000697,-0.00000244,-0.00000088,-0.000
 00761,-0.00001929,0.00000613,0.00001095,0.00002006,0.00000649,-0.00000
 917,0.00000824,-0.00002645,0.00005795,-0.00001844,-0.00004755,-0.00010
 908,-0.00008796,-0.00000165,-0.00002013,-0.00041010,0.00009938,-0.0000
 6794,0.00006064,-0.00016976,0.00110576,-0.00066295,-0.00033145,0.00119
 047,-0.00054205,0.00050262,0.00179641,0.00343842,-0.00118109,-0.002056
 73,-0.03001511,0.04971507,0.00000102,-0.00000205,0.00000088,0.00000648
 ,0.00000261,-0.00000116,-0.00001860,-0.00000928,0.00002846,0.00001863,
 0.00001661,-0.00003103,-0.00000216,-0.00000136,0.00000087,0.00000177,-
 0.00000025,-0.00000801,-0.00000474,-0.00001659,0.00000386,0.00000194,0
 .00000344,0.00000194,0.00000048,-0.00000506,-0.00000777,0.00000968,0.0
 0002974,0.00010577,0.00000481,0.00001309,-0.00006883,-0.00006999,-0.00
 021185,0.00007180,0.00062878,0.00024541,0.00082284,-0.00106668,-0.0028
 5230,-0.00022479,-0.00997088,0.00081767,0.01927280,-0.04516408,0.02519
 607,0.07688429,0.00000252,0.00000225,-0.00000040,-0.00000080,-0.000001
 52,0.00000123,-0.00000293,0.00000033,-0.00000116,-0.00000045,0.0000017
 9,-0.00000184,0.00000103,0.00000024,0.00000142,-0.00000111,0.00000258,
 -0.00000173,0.00000310,-0.00000047,-0.00000041,-0.00000351,0.00000342,
 0.00000320,0.00000216,0.00000395,-0.00000233,-0.00000153,-0.00000159,-
 0.00000294,0.00000212,-0.00000280,0.00000305,-0.00000274,-0.00000082,-
 0.00000308,-0.00000128,0.00000217,0.00000163,-0.00000096,0.00001255,-0
 .00000396,-0.00001381,-0.00001206,0.00001776,0.00000510,-0.00001203,-0
 .00002074,-0.00000698,0.00001106,-0.00000798,-0.00002473,0.00012369,-0
 .00006887,-0.00002928,-0.00002201,0.00002436,0.00019819,-0.00001035,0.
 00032828,0.00018132,-0.00020533,-0.00039259,0.00038799,0.00140575,0.00
 010498,0.00074559,0.00041148,-0.00063782,-0.01074462,0.00752085,0.0257
 0308,0.06492913,-0.00000285,-0.00000056,0.00000249,-0.00000215,-0.0000
 0172,-0.00000237,0.00000527,0.00000840,0.00001303,-0.00000806,-0.00001
 411,-0.00000620,0.00000121,-0.00000023,-0.00001506,-0.00000448,-0.0000
 0764,0.00000891,0.00000558,0.00003394,0.00001722,-0.00000616,-0.000003
 21,0.00000026,-0.00004648,-0.00007733,0.00002973,0.00001378,0.00014705
 ,0.00016857,-0.00003904,-0.00003078,-0.00000642,-0.00024525,-0.0005939
 3,0.00010379,-0.00048510,0.00097943,0.00167974,-0.00246694,-0.00529504
 ,0.00095000,-0.01157983,0.00654456,0.03236544,0.03908499,-0.07860064,-
 0.07973102,-0.00000063,-0.00000139,-0.00000121,0.00000110,-0.00000053,
 0.00000029,-0.00000007,0.00000100,-0.00000018,-0.00000044,-0.00000028,
 -0.00000087,-0.00000008,-0.00000126,-0.00000061,0.00000013,-0.00000235
 ,0.00000129,-0.00000334,-0.00000215,0.00000129,0.00000132,0.00000009,0
 .00000139,-0.00000100,-0.00000504,0.00000324,-0.00000005,0.00000055,0.
 00000022,-0.00000030,0.00000365,-0.00000203,0.00000225,-0.00000180,-0.
 00000530,-0.00000082,-0.00000022,-0.00000261,0.00000878,-0.00001000,0.
 00000014,0.00000694,0.00001627,0.00000402,0.00002509,-0.00000078,-0.00
 000246,-0.00001200,0.00000981,-0.00002188,-0.00000564,0.00005830,-0.00
 005302,0.00011399,0.00003017,-0.00002848,0.00022553,-0.00012135,-0.000
 12252,-0.00034950,0.00023859,-0.00009756,-0.00018262,0.00051182,-0.000
 30071,0.00086351,0.00062860,-0.00019822,0.00754239,-0.00755934,-0.0326
 0133,-0.03245902,0.08311948,0.00000396,-0.00000032,-0.00000438,0.00000
 905,0.00000607,0.00000376,-0.00002698,-0.00002314,0.00000399,0.0000327
 0,0.00003489,-0.00001804,-0.00000398,-0.00000047,0.00002396,0.00000692
 ,0.00000938,-0.00002086,-0.00001485,-0.00005766,-0.00001661,0.00001096
 ,0.00000802,0.00000175,0.00006169,0.00008981,-0.00003463,-0.00003612,-
 0.00018180,-0.00011643,0.00008137,0.00005411,-0.00005087,0.00021625,0.
 00054087,0.00004323,0.00019849,-0.00121839,-0.00085628,0.00196963,0.00
 532275,-0.00053266,-0.00246660,-0.00833517,-0.01475973,0.12906283,-0.0
 7627745,-0.37012841,0.00000354,0.00000429,0.00000137,-0.00000180,-0.00
 000149,0.00000110,-0.00000264,-0.00000086,0.00000006,0.00000010,0.0000
 0197,0.00000040,0.00000094,0.00000213,0.00000114,-0.00000146,0.0000055
 2,-0.00000280,0.00000876,0.00000314,-0.00000286,-0.00000495,0.00000256
 ,0.00000126,0.00000336,0.00001084,-0.00000670,-0.00000128,-0.00000273,
 -0.00000141,0.00000344,-0.00000918,0.00000411,-0.00000378,0.00000186,0
 .00000670,0.00000048,0.00000062,0.00000207,-0.00000549,0.00001161,0.00
 000295,-0.00002795,-0.00003194,0.00001007,-0.00002744,-0.00001174,-0.0
 0000837,0.00000942,-0.00002013,0.00000349,0.00009916,0.00009638,-0.000
 00079,-0.00007032,0.00009313,-0.00003447,-0.00005820,-0.00000810,0.000
 60374,-0.00012083,-0.00009620,0.00036029,0.00027223,-0.00052035,0.0017
 4199,-0.00045422,0.00027711,0.00023877,-0.00683134,0.00237106,0.000452
 73,-0.12189503,0.07784901,0.38308738\\0.00000039,-0.00000048,-0.000002
 71,0.00000272,-0.00000073,-0.00000057,0.00000470,0.00000148,0.00000448
 ,-0.00000413,-0.00000214,0.00000156,-0.00000440,0.00000277,-0.00000859
 ,0.00000012,-0.00000012,0.00000366,0.00000326,-0.00001764,0.00001009,-
 0.00000077,0.00000218,-0.00000666,0.00000994,0.00001333,-0.00001400,0.
 00000580,0.00000446,0.00001054,-0.00000607,0.00000013,-0.00000495,0.00
 000784,-0.00000362,-0.00000375,-0.00000040,-0.00000258,0.00000443,0.00
 000103,0.00000215,-0.00000059,0.00000162,-0.00000136,0.00000030,-0.000
 00466,0.00000376,0.00000354,-0.00000054,-0.00000093,0.00000140,0.00000
 014,0.00000230,-0.00000064,-0.00000135,-0.00000018,0.00000044,-0.00000
 206,-0.00000076,0.00000045,-0.00000031,0.00000124,-0.00000008,0.000001
 25,-0.00000211,-0.00000005,-0.00000031,-0.00000037,0.00000004,-0.00000
 345,0.00000138,-0.00000084,0.00000143,0.00000042,-0.00000068,0.0000017
 5,-0.00000048,0.00000333,-0.00000116,-0.00000155,0.00000294,-0.0000017
 3,0.00000038,0.00000028,-0.00000053,-0.00000568,0.00000318,-0.00000351
 ,0.00000088,-0.00000250,0.00000008,0.00000091,-0.00000078,-0.00000128,
 0.00000279,-0.00000016,-0.00000333,-0.00000170,0.00000125,-0.00000199,
 0.00000052,-0.00000112,0.00000106,0.00000134,0.00000034,-0.00000020,-0
 .00000051,-0.00000044,-0.00000012,-0.00000034,0.00000082,-0.00000135,0
 .00000229,0.00000088,-0.00000117,-0.00000019,-0.00000275,-0.00000059,0
 .00000001,-0.00000319,0.00000230,-0.00000125,0.00000113\\\@


 ... FOR AFTERWARDS A MAN FINDS PLEASURE IN HIS PAINS,
 WHEN HE HAS SUFFERED LONG AND WANDERED FAR.

                                    -- HOMER
 Job cpu time:       0 days 12 hours  4 minutes  7.2 seconds.
 Elapsed time:       0 days  3 hours  1 minutes  3.4 seconds.
 File lengths (MBytes):  RWF=    946 Int=      0 D2E=      0 Chk=     28 Scr=      1
 Normal termination of Gaussian 16 at Mon May 29 15:45:41 2023.
### All Done ###
