### Starting Gaussian ###
 Entering Gaussian System, Link 0=g16
 Initial command:
 /cluster/software/gaussian/gaussian-16-A.03/avx2/g16/l1.exe "/local/scratch/cz9n3/Gau-9968.inp" -scrdir="/local/scratch/cz9n3/"
 Entering Link 1 = /cluster/software/gaussian/gaussian-16-A.03/avx2/g16/l1.exe PID=      9969.
  
 Copyright (c) 1988,1990,1992,1993,1995,1998,2003,2009,2016,
            Gaussian, Inc.  All Rights Reserved.
  
 This is part of the Gaussian(R) 16 program.  It is based on
 the Gaussian(R) 09 system (copyright 2009, Gaussian, Inc.),
 the Gaussian(R) 03 system (copyright 2003, Gaussian, Inc.),
 the Gaussian(R) 98 system (copyright 1998, Gaussian, Inc.),
 the Gaussian(R) 94 system (copyright 1995, Gaussian, Inc.),
 the Gaussian 92(TM) system (copyright 1992, Gaussian, Inc.),
 the Gaussian 90(TM) system (copyright 1990, Gaussian, Inc.),
 the Gaussian 88(TM) system (copyright 1988, Gaussian, Inc.),
 the Gaussian 86(TM) system (copyright 1986, Carnegie Mellon
 University), and the Gaussian 82(TM) system (copyright 1983,
 Carnegie Mellon University). Gaussian is a federally registered
 trademark of Gaussian, Inc.
  
 This software contains proprietary and confidential information,
 including trade secrets, belonging to Gaussian, Inc.
  
 This software is provided under written license and may be
 used, copied, transmitted, or stored only in accord with that
 written license.
  
 The following legend is applicable only to US Government
 contracts under FAR:
  
                    RESTRICTED RIGHTS LEGEND
  
 Use, reproduction and disclosure by the US Government is
 subject to restrictions as set forth in subparagraphs (a)
 and (c) of the Commercial Computer Software - Restricted
 Rights clause in FAR 52.227-19.
  
 Gaussian, Inc.
 340 Quinnipiac St., Bldg. 40, Wallingford CT 06492
  
  
 ---------------------------------------------------------------
 Warning -- This program may not be used in any manner that
 competes with the business of Gaussian, Inc. or will provide
 assistance to any competitor of Gaussian, Inc.  The licensee
 of this program is prohibited from giving any competitor of
 Gaussian, Inc. access to this program.  By using this program,
 the user acknowledges that Gaussian, Inc. is engaged in the
 business of creating and licensing software in the field of
 computational chemistry and represents and warrants to the
 licensee that it is not a competitor of Gaussian, Inc. and that
 it will not use this program in any manner prohibited above.
 ---------------------------------------------------------------
  

 Cite this work as:
 Gaussian 16, Revision A.03,
 M. J. Frisch, G. W. Trucks, H. B. Schlegel, G. E. Scuseria, 
 M. A. Robb, J. R. Cheeseman, G. Scalmani, V. Barone, 
 G. A. Petersson, H. Nakatsuji, X. Li, M. Caricato, A. V. Marenich, 
 J. Bloino, B. G. Janesko, R. Gomperts, B. Mennucci, H. P. Hratchian, 
 J. V. Ortiz, A. F. Izmaylov, J. L. Sonnenberg, D. Williams-Young, 
 F. Ding, F. Lipparini, F. Egidi, J. Goings, B. Peng, A. Petrone, 
 T. Henderson, D. Ranasinghe, V. G. Zakrzewski, J. Gao, N. Rega, 
 G. Zheng, W. Liang, M. Hada, M. Ehara, K. Toyota, R. Fukuda, 
 J. Hasegawa, M. Ishida, T. Nakajima, Y. Honda, O. Kitao, H. Nakai, 
 T. Vreven, K. Throssell, J. A. Montgomery, Jr., J. E. Peralta, 
 F. Ogliaro, M. J. Bearpark, J. J. Heyd, E. N. Brothers, K. N. Kudin, 
 V. N. Staroverov, T. A. Keith, R. Kobayashi, J. Normand, 
 K. Raghavachari, A. P. Rendell, J. C. Burant, S. S. Iyengar, 
 J. Tomasi, M. Cossi, J. M. Millam, M. Klene, C. Adamo, R. Cammi, 
 J. W. Ochterski, R. L. Martin, K. Morokuma, O. Farkas, 
 J. B. Foresman, and D. J. Fox, Gaussian, Inc., Wallingford CT, 2016.
 
 ******************************************
 Gaussian 16:  ES64L-G16RevA.03 25-Dec-2016
                24-May-2023 
 ******************************************
 %chk=CCCqCOrCCCqCrCqCrOC.chk
 %NProcShared=20
 Will use up to   20 processors via shared memory.
 -----------------------------
 # opt freq b3lyp/6-31g(2df,p)
 -----------------------------
 1/18=20,19=15,26=3,38=1/1,3;
 2/9=110,12=2,17=6,18=5,40=1/2;
 3/5=1,6=6,7=104,11=2,25=1,30=1,71=1,74=-5/1,2,3;
 4//1;
 5/5=2,38=5/2;
 6/7=2,8=2,9=2,10=2,28=1/1;
 7//1,2,3,16;
 1/18=20,19=15,26=3/3(2);
 2/9=110/2;
 99//99;
 2/9=110/2;
 3/5=1,6=6,7=104,11=2,25=1,30=1,71=1,74=-5/1,2,3;
 4/5=5,16=3,69=1/1;
 5/5=2,38=5/2;
 7//1,2,3,16;
 1/18=20,19=15,26=3/3(-5);
 2/9=110/2;
 6/7=2,8=2,9=2,10=2,19=2,28=1/1;
 99/9=1/99;
 -------------------
 Title Card Required
 -------------------
 Symbolic Z-matrix:
 Charge =  0 Multiplicity = 1
 C                     1.02734  -0.1782   -0.09056 
 C                     2.53808  -0.06584   0.00251 
 C                     3.03997   1.34431   0.37254 
 C                     2.54685   1.82249   1.75433 
 O                     1.13722   1.98214   1.81452 
 C                     4.58194   1.33027   0.30396 
 C                     5.1722    2.707     0.5824 
 C                     6.7033    2.76655   0.59277 
 C                     7.26867   2.3525   -0.77076 
 C                     7.1739    4.19097   1.00338 
 C                     6.62717   4.60737   2.37778 
 O                     8.60737   4.19101   1.0294 
 C                     9.16898   5.48262   1.22426 
 H                     0.74011  -1.17089  -0.44532 
 H                     0.62585   0.56951  -0.78168 
 H                     0.55509  -0.04891   0.88522 
 H                     2.95788  -0.34943  -0.97207 
 H                     2.91504  -0.79686   0.72794 
 H                     2.66773   2.04102  -0.3912 
 H                     2.94542   2.80573   2.00835 
 H                     2.85855   1.12344   2.53586 
 H                     0.86261   2.47168   1.02633 
 H                     4.88461   0.9881   -0.69153 
 H                     4.98276   0.61033   1.02882 
 H                     4.83715   2.99923   1.57415 
 H                     4.76879   3.43839  -0.1289 
 H                     7.08417   2.04973   1.3334 
 H                     6.89731   3.0107   -1.5631 
 H                     6.98232   1.32667  -1.02523 
 H                     8.36139   2.38022  -0.77847 
 H                     6.8323    4.90424   0.24151 
 H                     6.98817   3.92422   3.15403 
 H                     5.53651   4.64347   2.41135 
 H                     6.95228   5.61269   2.65562 
 H                     10.25342   5.4071    1.12266 
 H                     8.96311   5.84769   2.23358 
 H                     8.78717   6.18861   0.48088 
 

 GradGradGradGradGradGradGradGradGradGradGradGradGradGradGradGradGradGrad
 Berny optimization.
 Initialization pass.
                           ----------------------------
                           !    Initial Parameters    !
                           ! (Angstroms and Degrees)  !
 --------------------------                            --------------------------
 ! Name  Definition              Value          Derivative Info.                !
 --------------------------------------------------------------------------------
 ! R1    R(1,2)                  1.5178         estimate D2E/DX2                !
 ! R2    R(1,14)                 1.0926         estimate D2E/DX2                !
 ! R3    R(1,15)                 1.0945         estimate D2E/DX2                !
 ! R4    R(1,16)                 1.0917         estimate D2E/DX2                !
 ! R5    R(2,3)                  1.5419         estimate D2E/DX2                !
 ! R6    R(2,17)                 1.0984         estimate D2E/DX2                !
 ! R7    R(2,18)                 1.0967         estimate D2E/DX2                !
 ! R8    R(3,4)                  1.5431         estimate D2E/DX2                !
 ! R9    R(3,6)                  1.5436         estimate D2E/DX2                !
 ! R10   R(3,19)                 1.0988         estimate D2E/DX2                !
 ! R11   R(4,5)                  1.4199         estimate D2E/DX2                !
 ! R12   R(4,20)                 1.0909         estimate D2E/DX2                !
 ! R13   R(4,21)                 1.0939         estimate D2E/DX2                !
 ! R14   R(5,22)                 0.9676         estimate D2E/DX2                !
 ! R15   R(6,7)                  1.5236         estimate D2E/DX2                !
 ! R16   R(6,23)                 1.0953         estimate D2E/DX2                !
 ! R17   R(6,24)                 1.0974         estimate D2E/DX2                !
 ! R18   R(7,8)                  1.5323         estimate D2E/DX2                !
 ! R19   R(7,25)                 1.0868         estimate D2E/DX2                !
 ! R20   R(7,26)                 1.0971         estimate D2E/DX2                !
 ! R21   R(8,9)                  1.5331         estimate D2E/DX2                !
 ! R22   R(8,10)                 1.5553         estimate D2E/DX2                !
 ! R23   R(8,27)                 1.0988         estimate D2E/DX2                !
 ! R24   R(9,28)                 1.095          estimate D2E/DX2                !
 ! R25   R(9,29)                 1.095          estimate D2E/DX2                !
 ! R26   R(9,30)                 1.0931         estimate D2E/DX2                !
 ! R27   R(10,11)                1.5366         estimate D2E/DX2                !
 ! R28   R(10,12)                1.4337         estimate D2E/DX2                !
 ! R29   R(10,31)                1.0981         estimate D2E/DX2                !
 ! R30   R(11,32)                1.0953         estimate D2E/DX2                !
 ! R31   R(11,33)                1.0918         estimate D2E/DX2                !
 ! R32   R(11,34)                1.0925         estimate D2E/DX2                !
 ! R33   R(12,13)                1.4218         estimate D2E/DX2                !
 ! R34   R(13,35)                1.0918         estimate D2E/DX2                !
 ! R35   R(13,36)                1.0929         estimate D2E/DX2                !
 ! R36   R(13,37)                1.094          estimate D2E/DX2                !
 ! A1    A(2,1,14)             110.4162         estimate D2E/DX2                !
 ! A2    A(2,1,15)             110.6878         estimate D2E/DX2                !
 ! A3    A(2,1,16)             111.5302         estimate D2E/DX2                !
 ! A4    A(14,1,15)            108.616          estimate D2E/DX2                !
 ! A5    A(14,1,16)            106.5042         estimate D2E/DX2                !
 ! A6    A(15,1,16)            108.9537         estimate D2E/DX2                !
 ! A7    A(1,2,3)              113.9804         estimate D2E/DX2                !
 ! A8    A(1,2,17)             107.8727         estimate D2E/DX2                !
 ! A9    A(1,2,18)             109.4721         estimate D2E/DX2                !
 ! A10   A(3,2,17)             108.945          estimate D2E/DX2                !
 ! A11   A(3,2,18)             109.8157         estimate D2E/DX2                !
 ! A12   A(17,2,18)            106.4656         estimate D2E/DX2                !
 ! A13   A(2,3,4)              113.2218         estimate D2E/DX2                !
 ! A14   A(2,3,6)              107.8299         estimate D2E/DX2                !
 ! A15   A(2,3,19)             107.6277         estimate D2E/DX2                !
 ! A16   A(4,3,6)              111.2132         estimate D2E/DX2                !
 ! A17   A(4,3,19)             108.5224         estimate D2E/DX2                !
 ! A18   A(6,3,19)             108.2594         estimate D2E/DX2                !
 ! A19   A(3,4,5)              112.9575         estimate D2E/DX2                !
 ! A20   A(3,4,20)             111.78           estimate D2E/DX2                !
 ! A21   A(3,4,21)             110.5284         estimate D2E/DX2                !
 ! A22   A(5,4,20)             104.5658         estimate D2E/DX2                !
 ! A23   A(5,4,21)             108.932          estimate D2E/DX2                !
 ! A24   A(20,4,21)            107.7882         estimate D2E/DX2                !
 ! A25   A(4,5,22)             107.7037         estimate D2E/DX2                !
 ! A26   A(3,6,7)              111.7574         estimate D2E/DX2                !
 ! A27   A(3,6,23)             108.6189         estimate D2E/DX2                !
 ! A28   A(3,6,24)             109.9667         estimate D2E/DX2                !
 ! A29   A(7,6,23)             109.9578         estimate D2E/DX2                !
 ! A30   A(7,6,24)             109.3038         estimate D2E/DX2                !
 ! A31   A(23,6,24)            107.1242         estimate D2E/DX2                !
 ! A32   A(6,7,8)              115.0537         estimate D2E/DX2                !
 ! A33   A(6,7,25)             106.8756         estimate D2E/DX2                !
 ! A34   A(6,7,26)             109.9658         estimate D2E/DX2                !
 ! A35   A(8,7,25)             106.9426         estimate D2E/DX2                !
 ! A36   A(8,7,26)             110.2368         estimate D2E/DX2                !
 ! A37   A(25,7,26)            107.3984         estimate D2E/DX2                !
 ! A38   A(7,8,9)              110.6085         estimate D2E/DX2                !
 ! A39   A(7,8,10)             109.8596         estimate D2E/DX2                !
 ! A40   A(7,8,27)             108.9991         estimate D2E/DX2                !
 ! A41   A(9,8,10)             111.7509         estimate D2E/DX2                !
 ! A42   A(9,8,27)             107.1856         estimate D2E/DX2                !
 ! A43   A(10,8,27)            108.3382         estimate D2E/DX2                !
 ! A44   A(8,9,28)             110.8656         estimate D2E/DX2                !
 ! A45   A(8,9,29)             111.3008         estimate D2E/DX2                !
 ! A46   A(8,9,30)             111.5973         estimate D2E/DX2                !
 ! A47   A(28,9,29)            107.8354         estimate D2E/DX2                !
 ! A48   A(28,9,30)            108.5836         estimate D2E/DX2                !
 ! A49   A(29,9,30)            106.4709         estimate D2E/DX2                !
 ! A50   A(8,10,11)            112.1261         estimate D2E/DX2                !
 ! A51   A(8,10,12)            107.899          estimate D2E/DX2                !
 ! A52   A(8,10,31)            108.5165         estimate D2E/DX2                !
 ! A53   A(11,10,12)           109.8462         estimate D2E/DX2                !
 ! A54   A(11,10,31)           109.5024         estimate D2E/DX2                !
 ! A55   A(12,10,31)           108.8805         estimate D2E/DX2                !
 ! A56   A(10,11,32)           110.3416         estimate D2E/DX2                !
 ! A57   A(10,11,33)           113.0724         estimate D2E/DX2                !
 ! A58   A(10,11,34)           111.7737         estimate D2E/DX2                !
 ! A59   A(32,11,33)           109.1535         estimate D2E/DX2                !
 ! A60   A(32,11,34)           107.1956         estimate D2E/DX2                !
 ! A61   A(33,11,34)           105.0127         estimate D2E/DX2                !
 ! A62   A(10,12,13)           113.4179         estimate D2E/DX2                !
 ! A63   A(12,13,35)           108.4657         estimate D2E/DX2                !
 ! A64   A(12,13,36)           110.8309         estimate D2E/DX2                !
 ! A65   A(12,13,37)           110.8086         estimate D2E/DX2                !
 ! A66   A(35,13,36)           107.2266         estimate D2E/DX2                !
 ! A67   A(35,13,37)           109.1509         estimate D2E/DX2                !
 ! A68   A(36,13,37)           110.2578         estimate D2E/DX2                !
 ! D1    D(14,1,2,3)           174.7209         estimate D2E/DX2                !
 ! D2    D(14,1,2,17)           53.6039         estimate D2E/DX2                !
 ! D3    D(14,1,2,18)          -61.857          estimate D2E/DX2                !
 ! D4    D(15,1,2,3)            54.4123         estimate D2E/DX2                !
 ! D5    D(15,1,2,17)          -66.7047         estimate D2E/DX2                !
 ! D6    D(15,1,2,18)          177.8344         estimate D2E/DX2                !
 ! D7    D(16,1,2,3)           -67.0686         estimate D2E/DX2                !
 ! D8    D(16,1,2,17)          171.8144         estimate D2E/DX2                !
 ! D9    D(16,1,2,18)           56.3535         estimate D2E/DX2                !
 ! D10   D(1,2,3,4)             61.5132         estimate D2E/DX2                !
 ! D11   D(1,2,3,6)           -175.0097         estimate D2E/DX2                !
 ! D12   D(1,2,3,19)           -58.4235         estimate D2E/DX2                !
 ! D13   D(17,2,3,4)          -177.968          estimate D2E/DX2                !
 ! D14   D(17,2,3,6)           -54.491          estimate D2E/DX2                !
 ! D15   D(17,2,3,19)           62.0953         estimate D2E/DX2                !
 ! D16   D(18,2,3,4)           -61.7224         estimate D2E/DX2                !
 ! D17   D(18,2,3,6)            61.7546         estimate D2E/DX2                !
 ! D18   D(18,2,3,19)          178.3409         estimate D2E/DX2                !
 ! D19   D(2,3,4,5)            -64.5269         estimate D2E/DX2                !
 ! D20   D(2,3,4,20)           177.8678         estimate D2E/DX2                !
 ! D21   D(2,3,4,21)            57.8078         estimate D2E/DX2                !
 ! D22   D(6,3,4,5)            173.8766         estimate D2E/DX2                !
 ! D23   D(6,3,4,20)            56.2714         estimate D2E/DX2                !
 ! D24   D(6,3,4,21)           -63.7887         estimate D2E/DX2                !
 ! D25   D(19,3,4,5)            54.8975         estimate D2E/DX2                !
 ! D26   D(19,3,4,20)          -62.7078         estimate D2E/DX2                !
 ! D27   D(19,3,4,21)          177.2321         estimate D2E/DX2                !
 ! D28   D(2,3,6,7)            176.9337         estimate D2E/DX2                !
 ! D29   D(2,3,6,23)            55.4492         estimate D2E/DX2                !
 ! D30   D(2,3,6,24)           -61.4857         estimate D2E/DX2                !
 ! D31   D(4,3,6,7)            -58.3767         estimate D2E/DX2                !
 ! D32   D(4,3,6,23)          -179.8612         estimate D2E/DX2                !
 ! D33   D(4,3,6,24)            63.2039         estimate D2E/DX2                !
 ! D34   D(19,3,6,7)            60.7599         estimate D2E/DX2                !
 ! D35   D(19,3,6,23)          -60.7246         estimate D2E/DX2                !
 ! D36   D(19,3,6,24)         -177.6595         estimate D2E/DX2                !
 ! D37   D(3,4,5,22)           -46.7931         estimate D2E/DX2                !
 ! D38   D(20,4,5,22)           74.9702         estimate D2E/DX2                !
 ! D39   D(21,4,5,22)         -170.0169         estimate D2E/DX2                !
 ! D40   D(3,6,7,8)            177.4916         estimate D2E/DX2                !
 ! D41   D(3,6,7,25)            58.9394         estimate D2E/DX2                !
 ! D42   D(3,6,7,26)           -57.3343         estimate D2E/DX2                !
 ! D43   D(23,6,7,8)           -61.8008         estimate D2E/DX2                !
 ! D44   D(23,6,7,25)          179.6469         estimate D2E/DX2                !
 ! D45   D(23,6,7,26)           63.3733         estimate D2E/DX2                !
 ! D46   D(24,6,7,8)            55.5291         estimate D2E/DX2                !
 ! D47   D(24,6,7,25)          -63.0232         estimate D2E/DX2                !
 ! D48   D(24,6,7,26)         -179.2968         estimate D2E/DX2                !
 ! D49   D(6,7,8,9)             60.8701         estimate D2E/DX2                !
 ! D50   D(6,7,8,10)          -175.2973         estimate D2E/DX2                !
 ! D51   D(6,7,8,27)           -56.7322         estimate D2E/DX2                !
 ! D52   D(25,7,8,9)           179.3849         estimate D2E/DX2                !
 ! D53   D(25,7,8,10)          -56.7826         estimate D2E/DX2                !
 ! D54   D(25,7,8,27)           61.7825         estimate D2E/DX2                !
 ! D55   D(26,7,8,9)           -64.1629         estimate D2E/DX2                !
 ! D56   D(26,7,8,10)           59.6696         estimate D2E/DX2                !
 ! D57   D(26,7,8,27)          178.2347         estimate D2E/DX2                !
 ! D58   D(7,8,9,28)            59.3563         estimate D2E/DX2                !
 ! D59   D(7,8,9,29)           -60.6724         estimate D2E/DX2                !
 ! D60   D(7,8,9,30)          -179.4653         estimate D2E/DX2                !
 ! D61   D(10,8,9,28)          -63.3816         estimate D2E/DX2                !
 ! D62   D(10,8,9,29)          176.5897         estimate D2E/DX2                !
 ! D63   D(10,8,9,30)           57.7968         estimate D2E/DX2                !
 ! D64   D(27,8,9,28)          178.0657         estimate D2E/DX2                !
 ! D65   D(27,8,9,29)           58.0371         estimate D2E/DX2                !
 ! D66   D(27,8,9,30)          -60.7559         estimate D2E/DX2                !
 ! D67   D(7,8,10,11)           57.5969         estimate D2E/DX2                !
 ! D68   D(7,8,10,12)          178.6908         estimate D2E/DX2                !
 ! D69   D(7,8,10,31)          -63.4832         estimate D2E/DX2                !
 ! D70   D(9,8,10,11)         -179.2393         estimate D2E/DX2                !
 ! D71   D(9,8,10,12)          -58.1454         estimate D2E/DX2                !
 ! D72   D(9,8,10,31)           59.6806         estimate D2E/DX2                !
 ! D73   D(27,8,10,11)         -61.375          estimate D2E/DX2                !
 ! D74   D(27,8,10,12)          59.719          estimate D2E/DX2                !
 ! D75   D(27,8,10,31)         177.545          estimate D2E/DX2                !
 ! D76   D(8,10,11,32)          61.4342         estimate D2E/DX2                !
 ! D77   D(8,10,11,33)         -61.1316         estimate D2E/DX2                !
 ! D78   D(8,10,11,34)        -179.3824         estimate D2E/DX2                !
 ! D79   D(12,10,11,32)        -58.531          estimate D2E/DX2                !
 ! D80   D(12,10,11,33)        178.9032         estimate D2E/DX2                !
 ! D81   D(12,10,11,34)         60.6524         estimate D2E/DX2                !
 ! D82   D(31,10,11,32)       -178.0557         estimate D2E/DX2                !
 ! D83   D(31,10,11,33)         59.3786         estimate D2E/DX2                !
 ! D84   D(31,10,11,34)        -58.8722         estimate D2E/DX2                !
 ! D85   D(8,10,12,13)         172.3751         estimate D2E/DX2                !
 ! D86   D(11,10,12,13)        -65.1203         estimate D2E/DX2                !
 ! D87   D(31,10,12,13)         54.7836         estimate D2E/DX2                !
 ! D88   D(10,12,13,35)       -173.9386         estimate D2E/DX2                !
 ! D89   D(10,12,13,36)         68.6022         estimate D2E/DX2                !
 ! D90   D(10,12,13,37)        -54.1432         estimate D2E/DX2                !
 --------------------------------------------------------------------------------
 Trust Radius=3.00D-01 FncErr=1.00D-07 GrdErr=1.00D-06 EigMax=2.50D+02 EigMin=1.00D-04
 Number of steps in this run=    204 maximum allowed number of steps=    222.
 GradGradGradGradGradGradGradGradGradGradGradGradGradGradGradGradGradGrad

                          Input orientation:                          
 ---------------------------------------------------------------------
 Center     Atomic      Atomic             Coordinates (Angstroms)
 Number     Number       Type             X           Y           Z
 ---------------------------------------------------------------------
      1          6           0        1.027340   -0.178200   -0.090560
      2          6           0        2.538080   -0.065840    0.002510
      3          6           0        3.039970    1.344310    0.372540
      4          6           0        2.546850    1.822490    1.754330
      5          8           0        1.137220    1.982140    1.814520
      6          6           0        4.581940    1.330270    0.303960
      7          6           0        5.172200    2.707000    0.582400
      8          6           0        6.703300    2.766550    0.592770
      9          6           0        7.268670    2.352500   -0.770760
     10          6           0        7.173900    4.190970    1.003380
     11          6           0        6.627170    4.607370    2.377780
     12          8           0        8.607370    4.191010    1.029400
     13          6           0        9.168980    5.482620    1.224260
     14          1           0        0.740110   -1.170890   -0.445320
     15          1           0        0.625850    0.569510   -0.781680
     16          1           0        0.555090   -0.048910    0.885220
     17          1           0        2.957880   -0.349430   -0.972070
     18          1           0        2.915040   -0.796860    0.727940
     19          1           0        2.667730    2.041020   -0.391200
     20          1           0        2.945420    2.805730    2.008350
     21          1           0        2.858550    1.123440    2.535860
     22          1           0        0.862610    2.471680    1.026330
     23          1           0        4.884610    0.988100   -0.691530
     24          1           0        4.982760    0.610330    1.028820
     25          1           0        4.837150    2.999230    1.574150
     26          1           0        4.768790    3.438390   -0.128900
     27          1           0        7.084170    2.049730    1.333400
     28          1           0        6.897310    3.010700   -1.563100
     29          1           0        6.982320    1.326670   -1.025230
     30          1           0        8.361390    2.380220   -0.778470
     31          1           0        6.832300    4.904240    0.241510
     32          1           0        6.988170    3.924220    3.154030
     33          1           0        5.536510    4.643470    2.411350
     34          1           0        6.952280    5.612690    2.655620
     35          1           0       10.253420    5.407100    1.122660
     36          1           0        8.963110    5.847690    2.233580
     37          1           0        8.787170    6.188610    0.480880
 ---------------------------------------------------------------------
                    Distance matrix (angstroms):
                    1          2          3          4          5
     1  C    0.000000
     2  C    1.517769   0.000000
     3  C    2.565770   1.541862   0.000000
     4  C    3.116936   2.575799   1.543103   0.000000
     5  O    2.882442   3.072460   2.471152   1.419918   0.000000
     6  C    3.881534   2.493463   1.543558   2.547046   3.817437
     7  C    5.094813   3.868269   2.539167   3.008029   4.280725
     8  C    6.430786   5.071479   3.935893   4.417754   5.752323
     9  C    6.769144   5.368873   4.495051   5.380760   6.664497
    10  C    7.620141   6.372833   5.058736   5.251972   6.479073
    11  C    7.768686   6.648418   5.247528   4.979283   6.111354
    12  O    8.820497   7.484087   6.287377   6.547161   7.829346
    13  C   10.002996   8.731948   7.444179   7.584862   8.781283
    14  H    1.092607   2.157402   3.504923   4.130750   3.899509
    15  H    1.094491   2.162232   2.785770   3.419290   2.999546
    16  H    1.091734   2.170648   2.894569   2.867856   2.308168
    17  H    2.129170   1.098390   2.164133   3.509906   4.064001
    18  H    2.148510   1.096694   2.174057   2.837258   3.473347
    19  H    2.776005   2.147248   1.098757   2.160015   2.685354
    20  H    4.121686   3.526363   2.195578   1.090938   1.996361
    21  H    3.456252   2.816904   2.182121   1.093900   2.054428
    22  H    2.880355   3.208491   2.537578   1.946303   0.967628
    23  H    4.074304   2.664336   2.159127   3.484761   4.616420
    24  H    4.185706   2.736234   2.178041   2.815911   4.157808
    25  H    5.232779   4.141308   2.722588   2.581212   3.844702
    26  H    5.203810   4.156076   2.761418   3.330872   4.368735
    27  H    6.608822   5.187855   4.216210   4.562466   5.966763
    28  H    6.840614   5.560496   4.626298   5.598543   6.756100
    29  H    6.212892   4.769340   4.182845   5.257869   6.531387
    30  H    7.797886   6.364281   5.542152   6.366711   7.685746
    31  H    7.722631   6.572605   5.203080   5.490983   6.591431
    32  H    7.930240   6.756919   5.475482   5.108987   6.308691
    33  H    7.059792   6.080353   4.612365   4.162652   5.176160
    34  H    8.728163   7.666150   6.223961   5.880965   6.906755
    35  H   10.853019   9.525454   8.312810   8.522890   9.762895
    36  H   10.231785   9.012687   7.669908   7.589487   8.738572
    37  H   10.053744   8.854271   7.517266   7.721805   8.831462
                    6          7          8          9         10
     6  C    0.000000
     7  C    1.523588   0.000000
     8  C    2.578077   1.532293   0.000000
     9  C    3.068957   2.520297   1.533067   0.000000
    10  C    3.923143   2.527092   1.555325   2.556663   0.000000
    11  C    4.384413   2.991945   2.565283   3.925464   1.536645
    12  O    4.991411   3.768619   2.417688   2.900485   1.433706
    13  C    6.255390   4.908187   3.722283   4.170004   2.386942
    14  H    4.645092   5.978098   7.220852   7.425785   8.499525
    15  H    4.172292   5.205658   6.606928   6.877952   7.692748
    16  H    4.295989   5.385577   6.768517   7.319918   7.861246
    17  H    2.662182   4.081832   5.117248   5.091548   6.503265
    18  H    2.735507   4.170490   5.202603   5.578411   6.564465
    19  H    2.156992   2.768356   4.216683   4.627065   5.183889
    20  H    2.785700   2.646059   4.015852   5.159395   4.561677
    21  H    2.827407   3.417111   4.610587   5.647432   5.511849
    22  H    3.957026   4.338780   5.864178   6.654423   6.541320
    23  H    1.095304   2.158755   2.849552   2.748019   4.286251
    24  H    1.097448   2.152023   2.792791   3.391022   4.197943
    25  H    2.112804   1.086842   2.121264   3.439353   2.684478
    26  H    2.160197   1.097096   2.171291   2.800097   2.762786
    27  H    2.799736   2.156765   1.098829   2.133823   2.168380
    28  H    3.416240   2.769731   2.178308   1.094960   2.838373
    29  H    2.743826   2.786812   2.183811   1.095024   3.515135
    30  H    4.069188   3.482770   2.186050   1.093099   2.804271
    31  H    4.223894   2.774888   2.170194   2.779656   1.098130
    32  H    4.543283   3.375300   2.825138   4.237093   2.175074
    33  H    4.040989   2.688437   2.862073   4.286577   2.206396
    34  H    5.430280   3.988729   3.523898   4.740150   2.190959
    35  H    7.032531   5.779379   4.456079   4.671654   3.313102
    36  H    6.582186   5.192430   4.158416   4.910554   2.731188
    37  H    6.427964   5.019952   4.008183   4.311402   2.620346
                   11         12         13         14         15
    11  C    0.000000
    12  O    2.431600   0.000000
    13  C    2.925315   1.421841   0.000000
    14  H    8.718696   9.634238  10.867499   0.000000
    15  H    7.893183   8.949857  10.057212   1.776284   0.000000
    16  H    7.796078   9.101479  10.242650   1.750259   1.779327
    17  H    7.018194   7.519190   8.798547   2.422966   2.513775
    18  H    6.760738   7.574454   8.876371   2.499352   3.063709
    19  H    5.470884   6.474557   7.531306   3.746333   2.546977
    20  H    4.115540   5.910586   6.820061   5.166952   4.262083
    21  H    5.134711   6.687925   7.781020   4.317311   4.037061
    22  H    6.294263   7.933310   8.837461   3.930531   2.634996
    23  H    5.055323   5.203765   6.498214   4.679609   4.280231
    24  H    4.527704   5.095004   6.426651   4.831761   4.718288
    25  H    2.536948   3.991447   5.005437   6.184973   5.402640
    26  H    3.332197   4.079558   5.037022   6.129914   5.081392
    27  H    2.800197   2.645304   4.017845   7.333712   6.955179
    28  H    4.260618   3.322423   4.363513   7.526370   6.775045
    29  H    4.740211   3.881589   5.207073   6.748280   6.406038
    30  H    4.234339   2.570576   3.779949   8.414587   7.944637
    31  H    2.166532   2.068899   2.600076   8.630974   7.639164
    32  H    1.095253   2.684593   3.302810   8.829140   8.198964
    33  H    1.091774   3.397747   3.912569   8.060571   7.134926
    34  H    1.092502   2.721229   2.641868   9.706897   8.790473
    35  H    3.919768   2.048671   1.091804  11.671829  10.941613
    36  H    2.648736   2.078747   1.092879  11.137985  10.317988
    37  H    3.280876   2.079329   1.093990  10.944188   9.988768
                   16         17         18         19         20
    16  H    0.000000
    17  H    3.051760   0.000000
    18  H    2.480631   1.758426   0.000000
    19  H    3.234239   2.477064   3.060588   0.000000
    20  H    3.888967   4.340287   3.823484   2.533719   0.000000
    21  H    3.066748   3.805888   2.638052   3.073442   1.765195
    22  H    2.543198   4.042576   3.871028   2.335234   2.326811
    23  H    4.722952   2.362198   3.013334   2.472528   3.788613
    24  H    4.478781   3.004137   2.519162   3.069641   3.151193
    25  H    5.301115   4.607431   4.338304   3.080122   1.950542
    26  H    5.562820   4.282279   4.701905   2.536907   2.879718
    27  H    6.872703   5.300701   5.084418   4.741230   4.261026
    28  H    7.455148   5.211420   5.966980   4.494772   5.330544
    29  H    6.844803   4.359846   4.911797   4.419047   5.261824
    30  H    8.343072   6.056929   6.482734   5.716887   6.105748
    31  H    8.021934   6.639650   6.934269   5.093328   4.757447
    32  H    7.894161   7.178581   6.690657   5.897567   4.348267
    33  H    7.011565   6.559414   6.269224   4.780892   3.202100
    34  H    8.724223   8.041284   7.816495   6.355888   4.934867
    35  H   11.130230   9.526302   9.617523   8.435933   7.807588
    36  H   10.357739   9.205611   9.110222   7.811019   6.746617
    37  H   10.336212   8.879057   9.129060   7.443828   6.921205
                   21         22         23         24         25
    21  H    0.000000
    22  H    2.842571   0.000000
    23  H    3.813041   4.618283   0.000000
    24  H    2.654566   4.521091   1.764071   0.000000
    25  H    2.891078   4.046651   3.029885   2.454675   0.000000
    26  H    4.013596   4.186565   2.516722   3.063335   1.760089
    27  H    4.489965   6.243408   3.172612   2.565261   2.451247
    28  H    6.055973   6.588877   2.983539   4.018125   3.753229
    29  H    5.452352   6.555211   2.150900   2.954743   3.762444
    30  H    6.545650   7.713454   3.746139   4.220657   4.282320
    31  H    5.945518   6.493881   4.472160   4.741130   3.063595
    32  H    5.027948   6.645259   5.275803   4.418150   2.824626
    33  H    4.424656   5.336693   4.838860   4.299331   1.973204
    34  H    6.076704   7.043054   6.071697   5.616858   3.531788
    35  H    8.662042   9.839374   7.186304   7.127248   5.944549
    36  H    7.724996   8.858499   6.986132   6.687643   5.056888
    37  H    8.063958   8.769934   6.606801   6.774288   5.193269
                   26         27         28         29         30
    26  H    0.000000
    27  H    3.070453   0.000000
    28  H    2.602008   3.057465   0.000000
    29  H    3.187865   2.469074   1.769884   0.000000
    30  H    3.801110   2.490082   1.776705   1.752910   0.000000
    31  H    2.558123   3.066576   2.616551   3.798176   3.122363
    32  H    3.992406   2.614885   4.805631   4.920723   4.442322
    33  H    2.914529   3.206979   4.507102   4.990151   4.824645
    34  H    4.153163   3.802676   4.956912   5.649737   4.922136
    35  H    5.960150   4.621741   4.921333   5.653621   4.044264
    36  H    5.383155   4.331886   5.170186   5.914642   4.632263
    37  H    4.907435   4.556021   4.224753   5.400399   4.033743
                   31         32         33         34         35
    31  H    0.000000
    32  H    3.076931   0.000000
    33  H    2.540724   1.782193   0.000000
    34  H    2.518774   1.760861   1.733049   0.000000
    35  H    3.568383   4.121560   4.949050   3.645512   0.000000
    36  H    3.065745   2.906433   3.636390   2.068038   1.758739
    37  H    2.351259   3.938222   4.084233   2.903102   1.781159
                   36         37
    36  H    0.000000
    37  H    1.794196   0.000000
 Stoichiometry    C11H24O2
 Framework group  C1[X(C11H24O2)]
 Deg. of freedom   105
 Full point group                 C1      NOp   1
 Largest Abelian subgroup         C1      NOp   1
 Largest concise Abelian subgroup C1      NOp   1
                         Standard orientation:                         
 ---------------------------------------------------------------------
 Center     Atomic      Atomic             Coordinates (Angstroms)
 Number     Number       Type             X           Y           Z
 ---------------------------------------------------------------------
      1          6           0        4.868072   -0.607967    0.184213
      2          6           0        3.507576   -1.067872   -0.306867
      3          6           0        2.336052   -0.193175    0.182802
      4          6           0        2.427835    1.270673   -0.296667
      5          8           0        3.553406    1.956781    0.231077
      6          6           0        1.023355   -0.854138   -0.288924
      7          6           0       -0.201197   -0.099243    0.213000
      8          6           0       -1.547030   -0.656967   -0.261974
      9          6           0       -1.734628   -2.099343    0.222435
     10          6           0       -2.701538    0.267427    0.219318
     11          6           0       -2.531840    1.711702   -0.277221
     12          8           0       -3.934283   -0.274704   -0.272565
     13          6           0       -5.085603    0.382500    0.241418
     14          1           0        5.642077   -1.317689   -0.117447
     15          1           0        4.877157   -0.523999    1.275441
     16          1           0        5.145317    0.355518   -0.247894
     17          1           0        3.353727   -2.097913    0.042145
     18          1           0        3.508873   -1.107940   -1.402828
     19          1           0        2.350599   -0.202189    1.281426
     20          1           0        1.569478    1.858656    0.031426
     21          1           0        2.465328    1.314897   -1.389030
     22          1           0        3.590980    1.773814    1.180506
     23          1           0        1.001213   -1.886839    0.075395
     24          1           0        0.998566   -0.897639   -1.385230
     25          1           0       -0.125624    0.914962   -0.170278
     26          1           0       -0.180874   -0.038406    1.308218
     27          1           0       -1.557283   -0.679489   -1.360525
     28          1           0       -1.699428   -2.151314    1.315595
     29          1           0       -0.950968   -2.755841   -0.169950
     30          1           0       -2.686644   -2.516722   -0.115685
     31          1           0       -2.721842    0.257213    1.317213
     32          1           0       -2.544429    1.741882   -1.371985
     33          1           0       -1.615691    2.183335    0.083617
     34          1           0       -3.339861    2.358226    0.073020
     35          1           0       -5.972008   -0.158318   -0.095979
     36          1           0       -5.159119    1.400365   -0.149646
     37          1           0       -5.068860    0.397230    1.335181
 ---------------------------------------------------------------------
 Rotational constants (GHZ):           1.7253492           0.2705037           0.2409129
 Standard basis: 6-31G(2df,p) (6D, 7F)
 There are   523 symmetry adapted cartesian basis functions of A   symmetry.
 There are   484 symmetry adapted basis functions of A   symmetry.
   484 basis functions,   740 primitive gaussians,   523 cartesian basis functions
    53 alpha electrons       53 beta electrons
       nuclear repulsion energy       865.4445662077 Hartrees.
 NAtoms=   37 NActive=   37 NUniq=   37 SFac= 1.00D+00 NAtFMM=   60 NAOKFM=F Big=F
 Integral buffers will be    131072 words long.
 Raffenetti 2 integral format.
 Two-electron integral symmetry is turned on.
 One-electron integrals computed using PRISM.
 PrsmSu:  requested number of processors reduced to:  12 ShMem   1 Linda.
 NBasis=   484 RedAO= T EigKep=  4.82D-04  NBF=   484
 NBsUse=   484 1.00D-06 EigRej= -1.00D+00 NBFU=   484
 ExpMin= 1.61D-01 ExpMax= 5.48D+03 ExpMxC= 8.25D+02 IAcc=3 IRadAn=         5 AccDes= 0.00D+00
 Harris functional with IExCor=  402 and IRadAn=       5 diagonalized for initial guess.
 HarFok:  IExCor=  402 AccDes= 0.00D+00 IRadAn=         5 IDoV= 1 UseB2=F ITyADJ=14
 ICtDFT=  3500011 ScaDFX=  1.000000  1.000000  1.000000  1.000000
 FoFCou: FMM=F IPFlag=           0 FMFlag=      100000 FMFlg1=           0
         NFxFlg=           0 DoJE=T BraDBF=F KetDBF=T FulRan=T
         wScrn=  0.000000 ICntrl=       500 IOpCl=  0 I1Cent=   200000004 NGrid=           0
         NMat0=    1 NMatS0=      1 NMatT0=    0 NMatD0=    1 NMtDS0=    0 NMtDT0=    0
 Petite list used in FoFCou.
 Requested convergence on RMS density matrix=1.00D-08 within 128 cycles.
 Requested convergence on MAX density matrix=1.00D-06.
 Requested convergence on             energy=1.00D-06.
 No special actions if energy rises.
 Integral accuracy reduced to 1.0D-05 until final iterations.
 Initial convergence to 1.0D-05 achieved.  Increase integral accuracy.
 SCF Done:  E(RB3LYP) =  -584.097946788     A.U. after   12 cycles
            NFock= 12  Conv=0.50D-08     -V/T= 2.0079

 **********************************************************************

            Population analysis using the SCF density.

 **********************************************************************

 Orbital symmetries:
       Occupied  (A) (A) (A) (A) (A) (A) (A) (A) (A) (A) (A) (A)
                 (A) (A) (A) (A) (A) (A) (A) (A) (A) (A) (A) (A)
                 (A) (A) (A) (A) (A) (A) (A) (A) (A) (A) (A) (A)
                 (A) (A) (A) (A) (A) (A) (A) (A) (A) (A) (A) (A)
                 (A) (A) (A) (A) (A)
       Virtual   (A) (A) (A) (A) (A) (A) (A) (A) (A) (A) (A) (A)
                 (A) (A) (A) (A) (A) (A) (A) (A) (A) (A) (A) (A)
                 (A) (A) (A) (A) (A) (A) (A) (A) (A) (A) (A) (A)
                 (A) (A) (A) (A) (A) (A) (A) (A) (A) (A) (A) (A)
                 (A) (A) (A) (A) (A) (A) (A) (A) (A) (A) (A) (A)
                 (A) (A) (A) (A) (A) (A) (A) (A) (A) (A) (A) (A)
                 (A) (A) (A) (A) (A) (A) (A) (A) (A) (A) (A) (A)
                 (A) (A) (A) (A) (A) (A) (A) (A) (A) (A) (A) (A)
                 (A) (A) (A) (A) (A) (A) (A) (A) (A) (A) (A) (A)
                 (A) (A) (A) (A) (A) (A) (A) (A) (A) (A) (A) (A)
                 (A) (A) (A) (A) (A) (A) (A) (A) (A) (A) (A) (A)
                 (A) (A) (A) (A) (A) (A) (A) (A) (A) (A) (A) (A)
                 (A) (A) (A) (A) (A) (A) (A) (A) (A) (A) (A) (A)
                 (A) (A) (A) (A) (A) (A) (A) (A) (A) (A) (A) (A)
                 (A) (A) (A) (A) (A) (A) (A) (A) (A) (A) (A) (A)
                 (A) (A) (A) (A) (A) (A) (A) (A) (A) (A) (A) (A)
                 (A) (A) (A) (A) (A) (A) (A) (A) (A) (A) (A) (A)
                 (A) (A) (A) (A) (A) (A) (A) (A) (A) (A) (A) (A)
                 (A) (A) (A) (A) (A) (A) (A) (A) (A) (A) (A) (A)
                 (A) (A) (A) (A) (A) (A) (A) (A) (A) (A) (A) (A)
                 (A) (A) (A) (A) (A) (A) (A) (A) (A) (A) (A) (A)
                 (A) (A) (A) (A) (A) (A) (A) (A) (A) (A) (A) (A)
                 (A) (A) (A) (A) (A) (A) (A) (A) (A) (A) (A) (A)
                 (A) (A) (A) (A) (A) (A) (A) (A) (A) (A) (A) (A)
                 (A) (A) (A) (A) (A) (A) (A) (A) (A) (A) (A) (A)
                 (A) (A) (A) (A) (A) (A) (A) (A) (A) (A) (A) (A)
                 (A) (A) (A) (A) (A) (A) (A) (A) (A) (A) (A) (A)
                 (A) (A) (A) (A) (A) (A) (A) (A) (A) (A) (A) (A)
                 (A) (A) (A) (A) (A) (A) (A) (A) (A) (A) (A) (A)
                 (A) (A) (A) (A) (A) (A) (A) (A) (A) (A) (A) (A)
                 (A) (A) (A) (A) (A) (A) (A) (A) (A) (A) (A) (A)
                 (A) (A) (A) (A) (A) (A) (A) (A) (A) (A) (A) (A)
                 (A) (A) (A) (A) (A) (A) (A) (A) (A) (A) (A) (A)
                 (A) (A) (A) (A) (A) (A) (A) (A) (A) (A) (A) (A)
                 (A) (A) (A) (A) (A) (A) (A) (A) (A) (A) (A) (A)
                 (A) (A) (A) (A) (A) (A) (A) (A) (A) (A) (A)
 The electronic state is 1-A.
 Alpha  occ. eigenvalues --  -19.13252 -19.12880 -10.22858 -10.22087 -10.21919
 Alpha  occ. eigenvalues --  -10.18525 -10.18175 -10.17693 -10.17396 -10.17292
 Alpha  occ. eigenvalues --  -10.17172 -10.16296 -10.15914  -1.01919  -1.01140
 Alpha  occ. eigenvalues --   -0.82271  -0.79473  -0.74532  -0.72302  -0.69342
 Alpha  occ. eigenvalues --   -0.67835  -0.65134  -0.61883  -0.58669  -0.57122
 Alpha  occ. eigenvalues --   -0.55536  -0.49431  -0.48449  -0.47512  -0.46526
 Alpha  occ. eigenvalues --   -0.45050  -0.44818  -0.42915  -0.42369  -0.41779
 Alpha  occ. eigenvalues --   -0.40904  -0.39923  -0.39000  -0.38502  -0.37964
 Alpha  occ. eigenvalues --   -0.36442  -0.36180  -0.34967  -0.33858  -0.33577
 Alpha  occ. eigenvalues --   -0.33123  -0.32455  -0.31714  -0.31331  -0.30162
 Alpha  occ. eigenvalues --   -0.29111  -0.25071  -0.24927
 Alpha virt. eigenvalues --    0.07012   0.08145   0.09354   0.10168   0.11464
 Alpha virt. eigenvalues --    0.11812   0.12145   0.13134   0.13792   0.14763
 Alpha virt. eigenvalues --    0.15410   0.16040   0.16268   0.16696   0.17442
 Alpha virt. eigenvalues --    0.17612   0.17789   0.18527   0.18916   0.19488
 Alpha virt. eigenvalues --    0.19852   0.20272   0.21164   0.21767   0.22239
 Alpha virt. eigenvalues --    0.23115   0.23704   0.24490   0.24987   0.25951
 Alpha virt. eigenvalues --    0.26117   0.27351   0.28030   0.29565   0.32567
 Alpha virt. eigenvalues --    0.33929   0.41754   0.44393   0.45173   0.46842
 Alpha virt. eigenvalues --    0.47353   0.48051   0.48741   0.49205   0.51275
 Alpha virt. eigenvalues --    0.51497   0.52637   0.53207   0.54394   0.55232
 Alpha virt. eigenvalues --    0.55872   0.56479   0.58371   0.59009   0.59323
 Alpha virt. eigenvalues --    0.60454   0.61265   0.63505   0.64732   0.65798
 Alpha virt. eigenvalues --    0.66198   0.66619   0.68189   0.68873   0.70608
 Alpha virt. eigenvalues --    0.71139   0.72067   0.72659   0.72825   0.72977
 Alpha virt. eigenvalues --    0.73709   0.74270   0.74515   0.74999   0.75554
 Alpha virt. eigenvalues --    0.76265   0.76543   0.77168   0.77444   0.78433
 Alpha virt. eigenvalues --    0.78950   0.79225   0.80507   0.80948   0.81487
 Alpha virt. eigenvalues --    0.82078   0.82634   0.84468   0.85065   0.85165
 Alpha virt. eigenvalues --    0.86703   0.87291   0.88761   0.90495   0.90656
 Alpha virt. eigenvalues --    0.91338   0.92293   0.93316   0.94618   0.97160
 Alpha virt. eigenvalues --    0.97725   0.99711   1.02317   1.02896   1.04646
 Alpha virt. eigenvalues --    1.07042   1.07483   1.08875   1.10862   1.11512
 Alpha virt. eigenvalues --    1.13087   1.14338   1.15318   1.18060   1.20317
 Alpha virt. eigenvalues --    1.21640   1.23832   1.25289   1.26115   1.27867
 Alpha virt. eigenvalues --    1.28631   1.29179   1.32669   1.32867   1.34229
 Alpha virt. eigenvalues --    1.36679   1.37192   1.38851   1.39184   1.40892
 Alpha virt. eigenvalues --    1.42027   1.43032   1.44690   1.44994   1.46868
 Alpha virt. eigenvalues --    1.48518   1.49016   1.51279   1.53128   1.53716
 Alpha virt. eigenvalues --    1.53997   1.56635   1.57868   1.58353   1.59146
 Alpha virt. eigenvalues --    1.60445   1.61793   1.64315   1.66741   1.67144
 Alpha virt. eigenvalues --    1.68552   1.70509   1.72412   1.73036   1.73497
 Alpha virt. eigenvalues --    1.75044   1.76743   1.77193   1.79008   1.80739
 Alpha virt. eigenvalues --    1.82504   1.84058   1.85820   1.86802   1.87855
 Alpha virt. eigenvalues --    1.90074   1.91924   1.93354   1.93996   1.95036
 Alpha virt. eigenvalues --    1.96000   1.96982   1.97236   1.98504   1.99698
 Alpha virt. eigenvalues --    2.00105   2.03138   2.04508   2.07693   2.15063
 Alpha virt. eigenvalues --    2.17011   2.18054   2.19105   2.21521   2.25294
 Alpha virt. eigenvalues --    2.25671   2.27222   2.27914   2.29839   2.31152
 Alpha virt. eigenvalues --    2.32674   2.33448   2.34542   2.37457   2.38284
 Alpha virt. eigenvalues --    2.38702   2.41024   2.42029   2.44905   2.46400
 Alpha virt. eigenvalues --    2.47089   2.48657   2.49381   2.53806   2.55309
 Alpha virt. eigenvalues --    2.58766   2.59405   2.61883   2.65792   2.66277
 Alpha virt. eigenvalues --    2.68460   2.71983   2.73504   2.73949   2.75540
 Alpha virt. eigenvalues --    2.76158   2.76714   2.77850   2.78892   2.79550
 Alpha virt. eigenvalues --    2.80208   2.81484   2.82109   2.82578   2.83293
 Alpha virt. eigenvalues --    2.84104   2.84778   2.85745   2.87213   2.88822
 Alpha virt. eigenvalues --    2.89189   2.89796   2.90597   2.91652   2.92016
 Alpha virt. eigenvalues --    2.93230   2.94093   2.95552   2.96183   2.96275
 Alpha virt. eigenvalues --    2.97355   2.97667   2.98317   2.99263   3.00017
 Alpha virt. eigenvalues --    3.00669   3.02800   3.04952   3.09284   3.11160
 Alpha virt. eigenvalues --    3.12751   3.13224   3.15432   3.16118   3.18277
 Alpha virt. eigenvalues --    3.18899   3.19848   3.20758   3.23476   3.25569
 Alpha virt. eigenvalues --    3.27356   3.28555   3.29742   3.30611   3.33234
 Alpha virt. eigenvalues --    3.35556   3.37408   3.38400   3.39464   3.41156
 Alpha virt. eigenvalues --    3.42372   3.43668   3.45765   3.46592   3.48929
 Alpha virt. eigenvalues --    3.49906   3.51432   3.52701   3.54208   3.56111
 Alpha virt. eigenvalues --    3.57751   3.59350   3.60884   3.61304   3.62736
 Alpha virt. eigenvalues --    3.63208   3.65779   3.67530   3.67645   3.68172
 Alpha virt. eigenvalues --    3.71270   3.72254   3.73578   3.74726   3.77156
 Alpha virt. eigenvalues --    3.78450   3.79560   3.79994   3.83717   3.85274
 Alpha virt. eigenvalues --    3.87606   3.90549   3.91899   3.93011   3.93399
 Alpha virt. eigenvalues --    3.94260   3.97308   3.99063   4.00631   4.01348
 Alpha virt. eigenvalues --    4.03527   4.09673   4.11059   4.13774   4.19996
 Alpha virt. eigenvalues --    4.21806   4.27640   4.30293   4.32087   4.34032
 Alpha virt. eigenvalues --    4.34874   4.37044   4.37778   4.39387   4.39811
 Alpha virt. eigenvalues --    4.41536   4.42197   4.43731   4.46378   4.46715
 Alpha virt. eigenvalues --    4.46936   4.48199   4.50566   4.51355   4.51830
 Alpha virt. eigenvalues --    4.52870   4.53904   4.56069   4.56382   4.57331
 Alpha virt. eigenvalues --    4.57886   4.58835   4.60924   4.61390   4.62079
 Alpha virt. eigenvalues --    4.63206   4.64764   4.65900   4.66399   4.66976
 Alpha virt. eigenvalues --    4.68001   4.70268   4.70778   4.71338   4.72362
 Alpha virt. eigenvalues --    4.73480   4.74829   4.76026   4.77107   4.77476
 Alpha virt. eigenvalues --    4.78712   4.79166   4.79956   4.80425   4.81441
 Alpha virt. eigenvalues --    4.83451   4.84319   4.84809   4.85557   4.86222
 Alpha virt. eigenvalues --    4.87944   4.88548   4.90091   4.91128   4.92379
 Alpha virt. eigenvalues --    4.93504   4.94239   4.95468   4.97741   4.98556
 Alpha virt. eigenvalues --    5.05160   5.07812   5.10338   5.11669   5.18106
 Alpha virt. eigenvalues --    5.25227   5.26657   5.29100   5.30250   5.33662
 Alpha virt. eigenvalues --    5.34285   5.37886   5.39346   5.43326   5.44443
 Alpha virt. eigenvalues --    5.45391   5.47338   5.50402   5.51503   5.53913
 Alpha virt. eigenvalues --    5.55769   5.57569   5.62957   5.69774   5.70938
 Alpha virt. eigenvalues --    5.78691   5.83376   5.87987   5.99707   6.01385
 Alpha virt. eigenvalues --    6.04272   6.07045   6.12975   6.19442   6.27928
 Alpha virt. eigenvalues --    6.43342   7.07517   7.11172  11.17266  11.24876
 Alpha virt. eigenvalues --   11.42172  11.61124  11.67175  11.92237  12.25837
 Alpha virt. eigenvalues --   12.32740  12.47109  12.60192  12.74128  13.26166
 Alpha virt. eigenvalues --   13.51013
          Condensed to atoms (all electrons):
               1          2          3          4          5          6
     1  C    4.996305   0.405120  -0.029954  -0.000813  -0.008220   0.002934
     2  C    0.405120   4.800703   0.423579  -0.026957  -0.005135  -0.036022
     3  C   -0.029954   0.423579   4.725235   0.406465  -0.038759   0.385332
     4  C   -0.000813  -0.026957   0.406465   4.770494   0.351875  -0.026301
     5  O   -0.008220  -0.005135  -0.038759   0.351875   7.840858   0.002295
     6  C    0.002934  -0.036022   0.385332  -0.026301   0.002295   4.896646
     7  C   -0.000146   0.002069  -0.027371  -0.004835   0.000048   0.422881
     8  C    0.000001  -0.000122   0.001275   0.000393  -0.000002  -0.028485
     9  C    0.000000   0.000007   0.000421  -0.000006   0.000000  -0.004005
    10  C   -0.000000   0.000001  -0.000095   0.000013  -0.000000   0.001265
    11  C    0.000000  -0.000000   0.000032  -0.000062   0.000000   0.000527
    12  O    0.000000  -0.000000   0.000000  -0.000000  -0.000000  -0.000014
    13  C   -0.000000   0.000000  -0.000000  -0.000000  -0.000000   0.000000
    14  H    0.358597  -0.023369   0.003347  -0.000089   0.000735  -0.000113
    15  H    0.374106  -0.031439  -0.005215  -0.001238   0.000296   0.000260
    16  H    0.373689  -0.021381  -0.003641  -0.000017   0.017399  -0.000004
    17  H   -0.040786   0.368088  -0.028120   0.004140  -0.000118  -0.006145
    18  H   -0.037918   0.364998  -0.029592  -0.008188  -0.000191  -0.003166
    19  H   -0.004929  -0.044440   0.344408  -0.053004  -0.002429  -0.028689
    20  H    0.000098   0.004181  -0.036293   0.366165  -0.027940  -0.005142
    21  H    0.000330  -0.007125  -0.025172   0.349401  -0.015988  -0.001423
    22  H    0.002030  -0.000105  -0.002607  -0.069653   0.309931   0.000154
    23  H    0.000061  -0.004469  -0.016837   0.003459  -0.000058   0.350896
    24  H    0.000061  -0.004020  -0.028715  -0.008908   0.000040   0.358978
    25  H    0.000007   0.000160  -0.005637  -0.002068  -0.000143  -0.031098
    26  H    0.000005   0.000170  -0.002276  -0.001229  -0.000007  -0.035812
    27  H    0.000000   0.000003   0.000173  -0.000036  -0.000000  -0.004740
    28  H   -0.000000   0.000001  -0.000032  -0.000000  -0.000000  -0.000375
    29  H   -0.000000   0.000004   0.000047  -0.000003   0.000000  -0.000032
    30  H    0.000000  -0.000000  -0.000004   0.000000  -0.000000   0.000133
    31  H    0.000000   0.000000   0.000010  -0.000001   0.000000  -0.000005
    32  H    0.000000   0.000000   0.000002   0.000000  -0.000000  -0.000052
    33  H    0.000000   0.000000   0.000015  -0.000083  -0.000001   0.000134
    34  H   -0.000000  -0.000000  -0.000000   0.000000   0.000000  -0.000010
    35  H    0.000000  -0.000000   0.000000  -0.000000  -0.000000  -0.000000
    36  H    0.000000   0.000000   0.000000   0.000000  -0.000000   0.000000
    37  H    0.000000   0.000000   0.000000   0.000000   0.000000   0.000000
               7          8          9         10         11         12
     1  C   -0.000146   0.000001   0.000000  -0.000000   0.000000   0.000000
     2  C    0.002069  -0.000122   0.000007   0.000001  -0.000000  -0.000000
     3  C   -0.027371   0.001275   0.000421  -0.000095   0.000032   0.000000
     4  C   -0.004835   0.000393  -0.000006   0.000013  -0.000062  -0.000000
     5  O    0.000048  -0.000002   0.000000  -0.000000   0.000000  -0.000000
     6  C    0.422881  -0.028485  -0.004005   0.001265   0.000527  -0.000014
     7  C    4.896182   0.379542  -0.033415  -0.033256  -0.003747   0.001384
     8  C    0.379542   4.714340   0.383766   0.429191  -0.031377  -0.025793
     9  C   -0.033415   0.383766   5.025966  -0.022064   0.004746  -0.003463
    10  C   -0.033256   0.429191  -0.022064   4.599583   0.366500   0.356807
    11  C   -0.003747  -0.031377   0.004746   0.366500   5.103412  -0.036203
    12  O    0.001384  -0.025793  -0.003463   0.356807  -0.036203   7.713877
    13  C   -0.000223   0.004451   0.000672  -0.081005  -0.005078   0.367516
    14  H    0.000001  -0.000000  -0.000000   0.000000  -0.000000  -0.000000
    15  H    0.000005   0.000000   0.000000   0.000000   0.000000   0.000000
    16  H    0.000007   0.000000  -0.000000   0.000000  -0.000000   0.000000
    17  H    0.000282   0.000008  -0.000009   0.000000   0.000000   0.000000
    18  H    0.000207   0.000004   0.000000   0.000000   0.000000   0.000000
    19  H   -0.004123   0.000157  -0.000015   0.000007   0.000000   0.000000
    20  H   -0.002588   0.000024  -0.000002   0.000049  -0.000170  -0.000000
    21  H   -0.000371  -0.000077   0.000001  -0.000001   0.000004  -0.000000
    22  H   -0.000077  -0.000001   0.000000   0.000000   0.000000  -0.000000
    23  H   -0.030413  -0.004361   0.000844  -0.000010  -0.000006   0.000000
    24  H   -0.033017  -0.002123  -0.000852   0.000220  -0.000019   0.000001
    25  H    0.356481  -0.026147   0.005746  -0.006807   0.000472   0.000026
    26  H    0.356772  -0.029158  -0.008003  -0.004459  -0.000734   0.000005
    27  H   -0.039593   0.348166  -0.048442  -0.029361  -0.008236   0.000109
    28  H   -0.005839  -0.027171   0.368662  -0.005041   0.000056  -0.000244
    29  H   -0.005281  -0.020978   0.371341   0.002661  -0.000123   0.000220
    30  H    0.004313  -0.020851   0.369181  -0.004386   0.000328   0.010179
    31  H   -0.002712  -0.036565  -0.008381   0.339968  -0.068799  -0.035655
    32  H   -0.000420  -0.006637   0.000048  -0.017929   0.364826   0.001001
    33  H   -0.002755  -0.003525  -0.000094  -0.015499   0.359832   0.002421
    34  H    0.000372   0.003038  -0.000148  -0.020401   0.367919  -0.003170
    35  H    0.000000  -0.000219   0.000025   0.004412   0.000286  -0.019098
    36  H    0.000013  -0.000270   0.000022  -0.003210   0.002762  -0.034784
    37  H    0.000036   0.000495  -0.000189  -0.007740  -0.002307  -0.032038
              13         14         15         16         17         18
     1  C   -0.000000   0.358597   0.374106   0.373689  -0.040786  -0.037918
     2  C    0.000000  -0.023369  -0.031439  -0.021381   0.368088   0.364998
     3  C   -0.000000   0.003347  -0.005215  -0.003641  -0.028120  -0.029592
     4  C   -0.000000  -0.000089  -0.001238  -0.000017   0.004140  -0.008188
     5  O   -0.000000   0.000735   0.000296   0.017399  -0.000118  -0.000191
     6  C    0.000000  -0.000113   0.000260  -0.000004  -0.006145  -0.003166
     7  C   -0.000223   0.000001   0.000005   0.000007   0.000282   0.000207
     8  C    0.004451  -0.000000   0.000000   0.000000   0.000008   0.000004
     9  C    0.000672  -0.000000   0.000000  -0.000000  -0.000009   0.000000
    10  C   -0.081005   0.000000   0.000000   0.000000   0.000000   0.000000
    11  C   -0.005078  -0.000000   0.000000  -0.000000   0.000000   0.000000
    12  O    0.367516  -0.000000   0.000000   0.000000   0.000000   0.000000
    13  C    4.831072   0.000000   0.000000   0.000000   0.000000   0.000000
    14  H    0.000000   0.633044  -0.032180  -0.029281  -0.005827  -0.001642
    15  H    0.000000  -0.032180   0.624906  -0.032158  -0.003385   0.005952
    16  H    0.000000  -0.029281  -0.032158   0.553552   0.005251  -0.004747
    17  H    0.000000  -0.005827  -0.003385   0.005251   0.654167  -0.039408
    18  H    0.000000  -0.001642   0.005952  -0.004747  -0.039408   0.645264
    19  H    0.000000  -0.000090   0.005904  -0.000370  -0.003931   0.006802
    20  H    0.000000   0.000013  -0.000025   0.000192  -0.000213  -0.000082
    21  H    0.000000  -0.000041   0.000077  -0.000640  -0.000007   0.004640
    22  H    0.000000  -0.000098   0.001728  -0.002019  -0.000002   0.000164
    23  H    0.000000  -0.000012  -0.000003   0.000005   0.006428  -0.000318
    24  H    0.000000   0.000002   0.000011   0.000005  -0.000245   0.004905
    25  H    0.000004   0.000000   0.000000   0.000000   0.000000   0.000005
    26  H    0.000000   0.000000  -0.000002   0.000000  -0.000006   0.000009
    27  H   -0.000052   0.000000  -0.000000   0.000000   0.000000  -0.000002
    28  H   -0.000071   0.000000  -0.000000   0.000000   0.000000  -0.000000
    29  H    0.000000   0.000000   0.000000  -0.000000  -0.000008   0.000002
    30  H   -0.000330  -0.000000   0.000000   0.000000   0.000000   0.000000
    31  H   -0.007740  -0.000000  -0.000000  -0.000000   0.000000  -0.000000
    32  H    0.000235  -0.000000   0.000000  -0.000000   0.000000  -0.000000
    33  H    0.000008   0.000000   0.000000  -0.000000  -0.000000   0.000000
    34  H    0.000730  -0.000000   0.000000  -0.000000   0.000000   0.000000
    35  H    0.383790  -0.000000   0.000000  -0.000000   0.000000   0.000000
    36  H    0.372286  -0.000000  -0.000000   0.000000  -0.000000  -0.000000
    37  H    0.366920   0.000000   0.000000  -0.000000   0.000000   0.000000
              19         20         21         22         23         24
     1  C   -0.004929   0.000098   0.000330   0.002030   0.000061   0.000061
     2  C   -0.044440   0.004181  -0.007125  -0.000105  -0.004469  -0.004020
     3  C    0.344408  -0.036293  -0.025172  -0.002607  -0.016837  -0.028715
     4  C   -0.053004   0.366165   0.349401  -0.069653   0.003459  -0.008908
     5  O   -0.002429  -0.027940  -0.015988   0.309931  -0.000058   0.000040
     6  C   -0.028689  -0.005142  -0.001423   0.000154   0.350896   0.358978
     7  C   -0.004123  -0.002588  -0.000371  -0.000077  -0.030413  -0.033017
     8  C    0.000157   0.000024  -0.000077  -0.000001  -0.004361  -0.002123
     9  C   -0.000015  -0.000002   0.000001   0.000000   0.000844  -0.000852
    10  C    0.000007   0.000049  -0.000001   0.000000  -0.000010   0.000220
    11  C    0.000000  -0.000170   0.000004   0.000000  -0.000006  -0.000019
    12  O    0.000000  -0.000000  -0.000000  -0.000000   0.000000   0.000001
    13  C    0.000000   0.000000   0.000000   0.000000   0.000000   0.000000
    14  H   -0.000090   0.000013  -0.000041  -0.000098  -0.000012   0.000002
    15  H    0.005904  -0.000025   0.000077   0.001728  -0.000003   0.000011
    16  H   -0.000370   0.000192  -0.000640  -0.002019   0.000005   0.000005
    17  H   -0.003931  -0.000213  -0.000007  -0.000002   0.006428  -0.000245
    18  H    0.006802  -0.000082   0.004640   0.000164  -0.000318   0.004905
    19  H    0.708814  -0.004689   0.006463   0.007747  -0.004694   0.006608
    20  H   -0.004689   0.656863  -0.047189  -0.002194  -0.000155   0.000050
    21  H    0.006463  -0.047189   0.615594   0.006875  -0.000128   0.004397
    22  H    0.007747  -0.002194   0.006875   0.468884  -0.000003   0.000032
    23  H   -0.004694  -0.000155  -0.000128  -0.000003   0.638381  -0.041958
    24  H    0.006608   0.000050   0.004397   0.000032  -0.041958   0.643952
    25  H   -0.000098   0.005451   0.000302  -0.000026   0.006299  -0.005944
    26  H    0.005556   0.001375   0.000096   0.000022  -0.005100   0.006492
    27  H    0.000012   0.000033   0.000004  -0.000000  -0.000074   0.005471
    28  H    0.000005   0.000000   0.000000  -0.000000   0.000907   0.000102
    29  H    0.000020  -0.000001   0.000000   0.000000   0.003371   0.000878
    30  H   -0.000000  -0.000000  -0.000000  -0.000000  -0.000200  -0.000033
    31  H   -0.000001   0.000004  -0.000000  -0.000000  -0.000002   0.000010
    32  H   -0.000000  -0.000013   0.000000  -0.000000   0.000001   0.000005
    33  H   -0.000000   0.000802  -0.000010  -0.000000  -0.000000   0.000028
    34  H   -0.000000  -0.000001   0.000000   0.000000   0.000000  -0.000000
    35  H    0.000000  -0.000000   0.000000  -0.000000   0.000000   0.000000
    36  H    0.000000  -0.000000  -0.000000  -0.000000  -0.000000   0.000000
    37  H   -0.000000   0.000000  -0.000000   0.000000  -0.000000  -0.000000
              25         26         27         28         29         30
     1  C    0.000007   0.000005   0.000000  -0.000000  -0.000000   0.000000
     2  C    0.000160   0.000170   0.000003   0.000001   0.000004  -0.000000
     3  C   -0.005637  -0.002276   0.000173  -0.000032   0.000047  -0.000004
     4  C   -0.002068  -0.001229  -0.000036  -0.000000  -0.000003   0.000000
     5  O   -0.000143  -0.000007  -0.000000  -0.000000   0.000000  -0.000000
     6  C   -0.031098  -0.035812  -0.004740  -0.000375  -0.000032   0.000133
     7  C    0.356481   0.356772  -0.039593  -0.005839  -0.005281   0.004313
     8  C   -0.026147  -0.029158   0.348166  -0.027171  -0.020978  -0.020851
     9  C    0.005746  -0.008003  -0.048442   0.368662   0.371341   0.369181
    10  C   -0.006807  -0.004459  -0.029361  -0.005041   0.002661  -0.004386
    11  C    0.000472  -0.000734  -0.008236   0.000056  -0.000123   0.000328
    12  O    0.000026   0.000005   0.000109  -0.000244   0.000220   0.010179
    13  C    0.000004   0.000000  -0.000052  -0.000071   0.000000  -0.000330
    14  H    0.000000   0.000000   0.000000   0.000000   0.000000  -0.000000
    15  H    0.000000  -0.000002  -0.000000  -0.000000   0.000000   0.000000
    16  H    0.000000   0.000000   0.000000   0.000000  -0.000000   0.000000
    17  H    0.000000  -0.000006   0.000000   0.000000  -0.000008   0.000000
    18  H    0.000005   0.000009  -0.000002  -0.000000   0.000002   0.000000
    19  H   -0.000098   0.005556   0.000012   0.000005   0.000020  -0.000000
    20  H    0.005451   0.001375   0.000033   0.000000  -0.000001  -0.000000
    21  H    0.000302   0.000096   0.000004   0.000000   0.000000  -0.000000
    22  H   -0.000026   0.000022  -0.000000  -0.000000   0.000000  -0.000000
    23  H    0.006299  -0.005100  -0.000074   0.000907   0.003371  -0.000200
    24  H   -0.005944   0.006492   0.005471   0.000102   0.000878  -0.000033
    25  H    0.646565  -0.045949  -0.004424   0.000002  -0.000051  -0.000194
    26  H   -0.045949   0.659101   0.006865   0.005419   0.000066  -0.000051
    27  H   -0.004424   0.006865   0.685125   0.006309  -0.003275  -0.001995
    28  H    0.000002   0.005419   0.006309   0.614663  -0.034536  -0.030289
    29  H   -0.000051   0.000066  -0.003275  -0.034536   0.605052  -0.031480
    30  H   -0.000194  -0.000051  -0.001995  -0.030289  -0.031480   0.577608
    31  H    0.000138   0.006001   0.007581   0.005357  -0.000153   0.000288
    32  H    0.001816   0.000112   0.005434   0.000012  -0.000000   0.000003
    33  H    0.002235   0.001467   0.000413   0.000001  -0.000004  -0.000014
    34  H   -0.000331  -0.000047  -0.000087   0.000002   0.000002  -0.000003
    35  H    0.000000   0.000000   0.000006   0.000001  -0.000001  -0.000025
    36  H    0.000001  -0.000000  -0.000025   0.000000   0.000000   0.000035
    37  H   -0.000001   0.000001   0.000042   0.000021  -0.000001   0.000026
              31         32         33         34         35         36
     1  C    0.000000   0.000000   0.000000  -0.000000   0.000000   0.000000
     2  C    0.000000   0.000000   0.000000  -0.000000  -0.000000   0.000000
     3  C    0.000010   0.000002   0.000015  -0.000000   0.000000   0.000000
     4  C   -0.000001   0.000000  -0.000083   0.000000  -0.000000   0.000000
     5  O    0.000000  -0.000000  -0.000001   0.000000  -0.000000  -0.000000
     6  C   -0.000005  -0.000052   0.000134  -0.000010  -0.000000   0.000000
     7  C   -0.002712  -0.000420  -0.002755   0.000372   0.000000   0.000013
     8  C   -0.036565  -0.006637  -0.003525   0.003038  -0.000219  -0.000270
     9  C   -0.008381   0.000048  -0.000094  -0.000148   0.000025   0.000022
    10  C    0.339968  -0.017929  -0.015499  -0.020401   0.004412  -0.003210
    11  C   -0.068799   0.364826   0.359832   0.367919   0.000286   0.002762
    12  O   -0.035655   0.001001   0.002421  -0.003170  -0.019098  -0.034784
    13  C   -0.007740   0.000235   0.000008   0.000730   0.383790   0.372286
    14  H   -0.000000  -0.000000   0.000000  -0.000000  -0.000000  -0.000000
    15  H   -0.000000   0.000000   0.000000   0.000000   0.000000  -0.000000
    16  H   -0.000000  -0.000000  -0.000000  -0.000000  -0.000000   0.000000
    17  H    0.000000   0.000000  -0.000000   0.000000   0.000000  -0.000000
    18  H   -0.000000  -0.000000   0.000000   0.000000   0.000000  -0.000000
    19  H   -0.000001  -0.000000  -0.000000  -0.000000   0.000000   0.000000
    20  H    0.000004  -0.000013   0.000802  -0.000001  -0.000000  -0.000000
    21  H   -0.000000   0.000000  -0.000010   0.000000   0.000000  -0.000000
    22  H   -0.000000  -0.000000  -0.000000   0.000000  -0.000000  -0.000000
    23  H   -0.000002   0.000001  -0.000000   0.000000   0.000000  -0.000000
    24  H    0.000010   0.000005   0.000028  -0.000000   0.000000   0.000000
    25  H    0.000138   0.001816   0.002235  -0.000331   0.000000   0.000001
    26  H    0.006001   0.000112   0.001467  -0.000047   0.000000  -0.000000
    27  H    0.007581   0.005434   0.000413  -0.000087   0.000006  -0.000025
    28  H    0.005357   0.000012   0.000001   0.000002   0.000001   0.000000
    29  H   -0.000153  -0.000000  -0.000004   0.000002  -0.000001   0.000000
    30  H    0.000288   0.000003  -0.000014  -0.000003  -0.000025   0.000035
    31  H    0.722472   0.006452   0.001556  -0.003641  -0.000028  -0.001707
    32  H    0.006452   0.589563  -0.030647  -0.035279  -0.000046   0.000454
    33  H    0.001556  -0.030647   0.592563  -0.029419   0.000000  -0.000605
    34  H   -0.003641  -0.035279  -0.029419   0.603935  -0.000102   0.002914
    35  H   -0.000028  -0.000046   0.000000  -0.000102   0.578994  -0.038362
    36  H   -0.001707   0.000454  -0.000605   0.002914  -0.038362   0.639897
    37  H    0.015450   0.000249   0.000069   0.000643  -0.034262  -0.050149
              37
     1  C    0.000000
     2  C    0.000000
     3  C    0.000000
     4  C    0.000000
     5  O    0.000000
     6  C    0.000000
     7  C    0.000036
     8  C    0.000495
     9  C   -0.000189
    10  C   -0.007740
    11  C   -0.002307
    12  O   -0.032038
    13  C    0.366920
    14  H    0.000000
    15  H    0.000000
    16  H   -0.000000
    17  H    0.000000
    18  H    0.000000
    19  H   -0.000000
    20  H    0.000000
    21  H   -0.000000
    22  H    0.000000
    23  H   -0.000000
    24  H   -0.000000
    25  H   -0.000001
    26  H    0.000001
    27  H    0.000042
    28  H    0.000021
    29  H   -0.000001
    30  H    0.000026
    31  H    0.015450
    32  H    0.000249
    33  H    0.000069
    34  H    0.000643
    35  H   -0.034262
    36  H   -0.050149
    37  H    0.639884
 Mulliken charges:
               1
     1  C   -0.390577
     2  C   -0.164497
     3  C   -0.010019
     4  C   -0.048913
     5  O   -0.424486
     6  C   -0.210802
     7  C   -0.190410
     8  C   -0.000988
     9  C   -0.402359
    10  C    0.150591
    11  C   -0.414839
    12  O   -0.263084
    13  C   -0.233186
    14  H    0.097003
    15  H    0.092402
    16  H    0.144157
    17  H    0.089844
    18  H    0.092304
    19  H    0.058999
    20  H    0.091396
    21  H    0.109985
    22  H    0.279219
    23  H    0.098148
    24  H    0.093587
    25  H    0.103208
    26  H    0.083300
    27  H    0.074594
    28  H    0.102080
    29  H    0.112259
    30  H    0.127763
    31  H    0.060105
    32  H    0.120808
    33  H    0.121114
    34  H    0.113083
    35  H    0.124631
    36  H    0.110729
    37  H    0.102851
 Sum of Mulliken charges =  -0.00000
 Mulliken charges with hydrogens summed into heavy atoms:
               1
     1  C   -0.057015
     2  C    0.017652
     3  C    0.048980
     4  C    0.152468
     5  O   -0.145267
     6  C   -0.019066
     7  C   -0.003902
     8  C    0.073606
     9  C   -0.060257
    10  C    0.210696
    11  C   -0.059834
    12  O   -0.263084
    13  C    0.105024
 Electronic spatial extent (au):  <R**2>=           4598.8563
 Charge=             -0.0000 electrons
 Dipole moment (field-independent basis, Debye):
    X=             -0.9864    Y=              0.0927    Z=              1.2980  Tot=              1.6329
 Quadrupole moment (field-independent basis, Debye-Ang):
   XX=            -89.2818   YY=            -88.0298   ZZ=            -81.0724
   XY=             -7.8222   XZ=              0.2028   YZ=              1.4524
 Traceless Quadrupole moment (field-independent basis, Debye-Ang):
   XX=             -3.1538   YY=             -1.9018   ZZ=              5.0556
   XY=             -7.8222   XZ=              0.2028   YZ=              1.4524
 Octapole moment (field-independent basis, Debye-Ang**2):
  XXX=            -70.4836  YYY=             -0.6971  ZZZ=              2.4779  XYY=            -13.6372
  XXY=              0.0707  XXZ=             19.8699  XZZ=              9.5438  YZZ=              7.3981
  YYZ=              2.2511  XYZ=              6.4062
 Hexadecapole moment (field-independent basis, Debye-Ang**3):
 XXXX=          -4968.5625 YYYY=           -862.2307 ZZZZ=           -193.6009 XXXY=            -83.8871
 XXXZ=              2.2464 YYYX=             -5.9208 YYYZ=             10.9006 ZZZX=             17.0070
 ZZZY=              6.5088 XXYY=          -1025.6362 XXZZ=           -837.6036 YYZZ=           -166.4224
 XXYZ=             25.3346 YYXZ=             16.4441 ZZXY=             28.2897
 N-N= 8.654445662077D+02 E-N=-3.088620782906D+03  KE= 5.794914544080D+02
 PrsmSu:  requested number of processors reduced to:  13 ShMem   1 Linda.
 Calling FoFJK, ICntrl=      2127 FMM=F ISym2X=0 I1Cent= 0 IOpClX= 0 NMat=1 NMatS=1 NMatT=0.
 ***** Axes restored to original set *****
 -------------------------------------------------------------------
 Center     Atomic                   Forces (Hartrees/Bohr)
 Number     Number              X              Y              Z
 -------------------------------------------------------------------
      1        6          -0.007556766   -0.008871697    0.003565453
      2        6          -0.003175273    0.003444885   -0.000596121
      3        6           0.009794544   -0.013097304    0.004850633
      4        6          -0.006367994    0.009427859   -0.011406141
      5        8          -0.009526819   -0.003567100    0.002353187
      6        6          -0.003648855    0.007773389   -0.003142702
      7        6           0.005536086   -0.002565690    0.007493024
      8        6           0.004822600    0.005511962   -0.007429735
      9        6           0.006114704   -0.001709846   -0.000646304
     10        6           0.003849721   -0.009428139    0.008971470
     11        6          -0.000458873    0.004390363    0.001899825
     12        8          -0.001616503    0.003878371   -0.002212501
     13        6          -0.001103370   -0.011538570    0.000812404
     14        1          -0.000836235   -0.001068112   -0.004308068
     15        1          -0.002533418   -0.000459372   -0.000460825
     16        1          -0.000436657    0.002880926   -0.002421681
     17        1           0.003132329    0.001371846    0.001461045
     18        1           0.001637576    0.000333442    0.000835829
     19        1          -0.000551014    0.002864661    0.000163254
     20        1           0.010875129    0.000306512   -0.000008549
     21        1          -0.003800353   -0.002169266    0.001080652
     22        1           0.002562196   -0.002515986    0.005177977
     23        1          -0.001142193   -0.001963716    0.000869165
     24        1          -0.000609041   -0.001238805   -0.000066712
     25        1          -0.002205860    0.003167125    0.000157164
     26        1           0.000095803    0.001115489   -0.000939045
     27        1          -0.000666919    0.002571040    0.002751566
     28        1           0.000255833    0.000663422   -0.001343362
     29        1          -0.000826818    0.001294452    0.000240562
     30        1          -0.000486432    0.002984288    0.000455582
     31        1          -0.001212893    0.002390461   -0.002753682
     32        1          -0.001052472   -0.001232840   -0.000779382
     33        1           0.000349953   -0.001723155   -0.001069766
     34        1           0.001436078    0.000418535   -0.000921099
     35        1           0.000450843   -0.002942497   -0.002526127
     36        1          -0.000222836    0.004922940    0.000919734
     37        1          -0.000875803    0.004380126   -0.001026724
 -------------------------------------------------------------------
 Cartesian Forces:  Max     0.013097304 RMS     0.004145920

 GradGradGradGradGradGradGradGradGradGradGradGradGradGradGradGradGradGrad
 Berny optimization.
 FormGI is forming the generalized inverse of G from B-inverse, IUseBI=4.
 Internal  Forces:  Max     0.018907222 RMS     0.003883401
 Search for a local minimum.
 Step number   1 out of a maximum of  204
 All quantities printed in internal units (Hartrees-Bohrs-Radians)
 Mixed Optimization -- RFO/linear search
 Second derivative matrix not updated -- first step.
 ITU=  0
     Eigenvalues ---    0.00230   0.00230   0.00230   0.00230   0.00281
     Eigenvalues ---    0.00329   0.00339   0.00454   0.00531   0.01246
     Eigenvalues ---    0.01403   0.01428   0.03338   0.03416   0.03479
     Eigenvalues ---    0.03563   0.03613   0.04258   0.04437   0.04672
     Eigenvalues ---    0.04700   0.04799   0.04813   0.04818   0.04851
     Eigenvalues ---    0.04876   0.04996   0.05213   0.05417   0.05445
     Eigenvalues ---    0.05474   0.05485   0.05580   0.05729   0.07276
     Eigenvalues ---    0.08160   0.08567   0.08707   0.10088   0.10461
     Eigenvalues ---    0.11898   0.12077   0.12372   0.12496   0.14011
     Eigenvalues ---    0.16000   0.16000   0.16000   0.16000   0.16000
     Eigenvalues ---    0.16000   0.16000   0.16000   0.16000   0.16000
     Eigenvalues ---    0.16000   0.16000   0.16000   0.16176   0.16505
     Eigenvalues ---    0.16601   0.16819   0.17107   0.19683   0.21907
     Eigenvalues ---    0.21935   0.22002   0.22026   0.25000   0.27203
     Eigenvalues ---    0.28206   0.28246   0.28355   0.28818   0.29142
     Eigenvalues ---    0.29213   0.30024   0.30582   0.33812   0.33820
     Eigenvalues ---    0.33861   0.33890   0.33966   0.34005   0.34050
     Eigenvalues ---    0.34207   0.34213   0.34238   0.34246   0.34299
     Eigenvalues ---    0.34356   0.34366   0.34457   0.34482   0.34513
     Eigenvalues ---    0.34525   0.34605   0.34608   0.34613   0.34704
     Eigenvalues ---    0.35180   0.40461   0.42184   0.42473   0.53865
 RFO step:  Lambda=-1.71753143D-02 EMin= 2.30000000D-03
 Linear search not attempted -- first point.
 Iteration  1 RMS(Cart)=  0.20688400 RMS(Int)=  0.00847505
 Iteration  2 RMS(Cart)=  0.02501098 RMS(Int)=  0.00049199
 Iteration  3 RMS(Cart)=  0.00031781 RMS(Int)=  0.00047926
 Iteration  4 RMS(Cart)=  0.00000017 RMS(Int)=  0.00047926
 Variable       Old X    -DE/DX   Delta X   Delta X   Delta X     New X
                                 (Linear)    (Quad)   (Total)
    R1        2.86817   0.01209   0.00000   0.03743   0.03743   2.90560
    R2        2.06473   0.00259   0.00000   0.00715   0.00715   2.07187
    R3        2.06829   0.00091   0.00000   0.00252   0.00252   2.07081
    R4        2.06308  -0.00163   0.00000  -0.00450  -0.00450   2.05858
    R5        2.91370   0.00581   0.00000   0.01931   0.01931   2.93301
    R6        2.07566  -0.00045   0.00000  -0.00127  -0.00127   2.07438
    R7        2.07245   0.00089   0.00000   0.00250   0.00250   2.07495
    R8        2.91604  -0.00005   0.00000  -0.00017  -0.00017   2.91587
    R9        2.91690   0.00669   0.00000   0.02235   0.02235   2.93925
   R10        2.07635   0.00189   0.00000   0.00532   0.00532   2.08167
   R11        2.68326   0.00655   0.00000   0.01482   0.01482   2.69808
   R12        2.06157   0.00425   0.00000   0.01166   0.01166   2.07324
   R13        2.06717   0.00108   0.00000   0.00298   0.00298   2.07015
   R14        1.82855  -0.00622   0.00000  -0.01119  -0.01119   1.81737
[...]
 -0.00051128,0.00010115,0.00037306,0.00015148,0.00018600,-0.00001939,-0
 .01138504,0.00033144,-0.00599653,-0.29261557,0.05461446,-0.04258405,-0
 .00264877,0.00098152,0.00390948,0.00088773,0.00168768,-0.00035187,-0.0
 0000809,-0.00000741,-0.00000594,-0.00000042,0.00000159,0.00000192,-0.0
 0000107,0.00000458,0.00000247,0.00000058,-0.00000006,0.00000231,0.0000
 0067,-0.00000641,0.00000086,0.00000608,0.00000348,0.00000984,-0.000006
 30,-0.00001036,-0.00002663,-0.00000707,-0.00001590,-0.00000026,0.00001
 549,0.00000353,0.00000269,-0.00007202,-0.00023613,-0.00007665,-0.00001
 394,-0.00007109,0.00002745,0.00047871,-0.00122199,-0.00130115,0.000051
 44,0.00011432,0.00017052,0.00004278,-0.00008028,0.00003407,0.00000420,
 -0.00001457,0.00003771,-0.00001172,0.00006809,0.00007529,0.00005719,-0
 .00015228,-0.00015290,0.00062025,-0.00037311,0.00054610,-0.00072556,-0
 .00048095,0.00007796,0.32044316,-0.00001064,0.00002215,0.00000084,0.00
 000985,-0.00003530,-0.00001050,-0.00006096,0.00000456,-0.00003582,-0.0
 0019056,-0.00009438,-0.00004523,0.00017641,0.00001638,-0.00001197,-0.0
 0037524,-0.00007719,0.00021990,0.00013874,-0.00087428,-0.00101704,0.00
 015058,0.00003133,0.00050333,-0.00022139,0.00004183,-0.00022810,0.0116
 4105,-0.00299173,0.00626671,0.05287810,-0.05616568,0.00906493,0.003058
 95,-0.00038210,-0.00290331,-0.00045875,-0.00117178,-0.00026471,0.00001
 703,0.00001262,0.00001220,0.00000294,-0.00000699,0.00000004,-0.0000000
 8,-0.00000945,-0.00000601,-0.00000037,0.00000518,0.00000354,0.00000292
 ,0.00000915,0.00000076,-0.00001379,-0.00000574,-0.00001151,0.00001319,
 0.00002407,0.00009430,0.00002211,0.00003811,0.00001083,-0.00005403,0.0
 0000226,-0.00000530,0.00006746,0.00018984,0.00005028,0.00003026,0.0000
 9563,-0.00002435,-0.00099260,-0.00187413,-0.00017606,-0.00006908,0.000
 02527,-0.00004387,-0.00003786,0.00010627,-0.00023236,0.00003789,-0.000
 00972,-0.00004752,-0.00000118,-0.00000951,0.00001414,-0.00006982,0.000
 10499,0.00012687,-0.00043423,0.00057311,0.00000805,0.01869141,-0.00425
 482,0.00219687,-0.05675209,0.05940812,-0.00000226,0.00000039,0.0000056
 6,0.00001133,0.00000503,-0.00002018,-0.00001516,-0.00002941,0.00001450
 ,0.00002490,0.00006654,0.00006867,0.00000993,-0.00003425,-0.00005439,-
 0.00009070,-0.00004312,-0.00022985,-0.00050257,-0.00092829,0.00042236,
 -0.00041403,0.00028903,0.00028278,0.00008637,0.00010370,-0.00005079,0.
 02305610,-0.00204632,0.00807277,-0.04443281,0.00989194,-0.05599658,0.0
 0649542,-0.00325627,-0.00436309,-0.00062332,-0.00176502,0.00013866,0.0
 0000383,0.00000135,-0.00000039,-0.00000092,-0.00000016,0.00000016,0.00
 000449,0.00000447,-0.00000021,-0.00000049,-0.00000741,-0.00000894,0.00
 000008,0.00000450,0.00000209,-0.00001271,0.00000450,-0.00000644,-0.000
 02181,-0.00000438,-0.00000361,-0.00000216,-0.00001130,-0.00001057,0.00
 000459,0.00001698,0.00003824,-0.00000003,-0.00002608,0.00000695,0.0000
 1770,0.00006808,0.00000489,-0.00014328,-0.00072929,-0.00021169,-0.0000
 5747,0.00006259,-0.00026548,-0.00000935,-0.00003064,0.00004544,-0.0000
 1517,-0.00000374,-0.00001885,-0.00005315,0.00002890,0.00002751,-0.0000
 2697,0.00011106,0.00009585,-0.00063472,0.00092474,0.00083551,-0.025313
 87,0.00364161,-0.00364618,0.04799115,-0.00887327,0.05670241,0.00000578
 ,-0.00001319,-0.00000051,-0.00000807,0.00002038,0.00000831,0.00004433,
 0.00001880,0.00001733,0.00011219,0.00004395,0.00001540,-0.00010494,-0.
 00000407,0.00001326,0.00029792,0.00001679,-0.00030597,-0.00073163,-0.0
 0045474,0.00056750,-0.00186553,0.00092608,0.00257241,0.00051177,0.0008
 5493,0.00011198,0.00633474,0.01405056,0.00287527,-0.10286159,-0.107828
 81,-0.02442265,0.00112566,-0.00105093,-0.00108332,-0.00104810,0.000676
 74,0.00116900,-0.00001024,-0.00000794,-0.00000739,-0.00000173,0.000004
 29,-0.00000006,-0.00000078,0.00000547,0.00000363,0.,-0.00000235,0.0000
 0048,-0.00000133,-0.00000573,-0.00000151,0.00000714,0.00000435,0.00001
 096,-0.00001076,-0.00001216,-0.00005283,-0.00001299,-0.00002078,-0.000
 00460,0.00003392,-0.00000222,-0.00000030,-0.00006065,-0.00017647,-0.00
 004433,-0.00001485,-0.00005506,0.00001839,0.00043133,-0.00008214,-0.00
 072246,0.00005301,0.00004984,0.00003481,-0.00001175,-0.00019849,-0.000
 02087,-0.00001275,-0.00001104,0.00004384,-0.00015007,0.00014324,0.0002
 8120,0.00002354,0.00000754,-0.00003996,0.00016962,-0.00047662,-0.00070
 766,0.00084780,0.00346363,0.00072920,-0.01426829,-0.02762123,-0.005405
 17,0.11243499,0.00000815,-0.00002014,-0.00000380,-0.00002367,0.0000272
 0,0.00001264,0.00003135,-0.00005957,0.00001120,0.00010364,0.00001738,-
 0.00002454,-0.00012390,0.00001258,0.00003168,-0.00007177,0.00009302,0.
 00001615,0.00043461,0.00032456,0.00018190,0.00171398,0.00066265,-0.002
 87813,-0.00071083,-0.00080683,0.00010399,-0.00652870,-0.01390923,-0.00
 239597,-0.10680396,-0.24293282,-0.04268626,-0.00039393,0.00078826,0.00
 110574,-0.00048914,-0.00069064,-0.00034310,-0.00001451,-0.00000922,-0.
 00000902,-0.00000241,0.00000524,-0.00000108,-0.00000279,0.00000460,0.0
 0000442,0.00000122,0.00000025,0.00000406,-0.00000067,-0.00000322,-0.00
 000054,-0.00000575,0.00000777,-0.00000266,-0.00000264,-0.00002163,-0.0
 0002639,-0.00000423,-0.00000362,0.00000032,0.00002382,-0.00001300,-0.0
 0000880,0.00001261,0.00000426,-0.00000067,0.00000314,0.00002044,0.0000
 0283,0.00010522,-0.00006197,0.00007230,-0.00005684,-0.00005257,-0.0001
 5182,-0.00001955,0.00041587,0.00010473,0.00001491,-0.00001932,-0.00011
 953,0.00016415,-0.00014468,-0.00032891,0.00005536,-0.00001950,0.000002
 26,0.00036040,0.00067044,-0.00023441,-0.00904666,-0.01573853,-0.004014
 20,0.00319966,0.00628618,0.00171042,0.11810324,0.26367121,0.00000529,-
 0.00001371,-0.00000490,-0.00002844,0.00001274,0.00001813,0.00002970,-0
 .00004134,0.00000173,-0.00001238,-0.00004047,-0.00006864,-0.00002610,0
 .00001542,0.00004813,-0.00005825,0.00009353,0.00005077,0.00070801,-0.0
 0004927,-0.00001727,0.00308770,-0.00005316,-0.00376632,-0.00062401,-0.
 00164395,0.00037686,-0.01477304,-0.02487909,-0.00540058,-0.02290771,-0
 .04270182,-0.05631752,-0.00105892,0.00211399,0.00177974,0.00016631,-0.
 00064084,-0.00037202,-0.00000916,-0.00000365,-0.00000333,-0.00000153,0
 .00000285,-0.00000083,-0.00000495,-0.00000048,0.00000121,0.00000343,0.
 00000449,0.00001043,0.00000063,-0.00000334,-0.00000244,-0.00000198,0.0
 0000415,0.00000525,0.00000357,0.00001437,-0.00000400,-0.00000369,-0.00
 000519,0.00000260,0.00000839,-0.00000927,-0.00001553,0.00003417,0.0000
 1205,0.00001813,0.00001027,-0.00002571,-0.00000799,-0.00016794,0.00013
 202,0.00002322,-0.00005083,0.00006304,0.00007361,0.00011357,-0.0003933
 0,0.00010574,-0.00005223,0.00007335,-0.00000607,0.00026794,-0.00025660
 ,-0.00053754,0.00004444,0.00000575,-0.00000074,-0.00034099,0.00068497,
 0.00083789,0.01332971,0.02232239,0.00544505,-0.00258506,-0.00474908,-0
 .00194558,0.02394667,0.04918573,0.05944577,0.00000658,-0.00002077,-0.0
 0000774,-0.00003912,0.00002819,0.00002031,0.00002844,-0.00007729,-0.00
 001372,0.00006853,0.00001330,-0.00003066,-0.00008525,0.00000024,0.0000
 2677,-0.00015036,0.00012209,0.00000595,0.00008902,-0.00049040,-0.00006
 481,-0.00091704,0.00062655,0.00017982,-0.00007362,-0.00003911,0.000047
 96,0.00223031,-0.00302337,0.00130651,-0.00012091,-0.00015429,-0.000320
 95,-0.02382082,-0.00499633,-0.00095892,-0.28965734,0.06199738,-0.03228
 509,-0.00001486,-0.00000944,-0.00000854,-0.00000098,0.00000365,0.00000
 072,-0.00000166,0.00000466,0.00000391,0.00000193,0.00000157,0.00000122
 ,-0.00000006,-0.00000734,0.00000104,0.00000383,0.00000273,0.00000391,-
 0.00000563,-0.00001044,-0.00002346,-0.00000511,-0.00001024,0.00000160,
 0.00002225,-0.00000225,-0.00000472,-0.00000208,-0.00002012,-0.00001563
 ,0.00000259,-0.00000964,0.00000959,0.00003879,0.00002470,0.00000623,0.
 00000167,0.00001443,-0.00000626,-0.00000474,-0.00008271,0.00004155,0.0
 0001331,0.00000917,-0.00001722,0.00001039,-0.00006328,-0.00006274,-0.0
 0002324,0.00005034,0.00003509,0.00018416,-0.00000761,0.00002389,-0.000
 03859,-0.00004966,0.00005758,-0.00008586,0.00009698,0.00011189,0.00009
 100,0.00003596,-0.00005250,0.32199900,0.00000269,-0.00001267,-0.000005
 25,-0.00002985,0.00001339,0.00001260,0.00001253,-0.00007417,-0.0000142
 2,0.00001868,-0.00000191,-0.00002074,-0.00002680,0.00000458,0.00001430
 ,-0.00018661,0.00008978,0.00002736,0.00006223,-0.00056520,-0.00009534,
 -0.00143860,0.00055493,-0.00015299,-0.00008956,0.00003202,0.00010775,-
 0.00085089,-0.00441950,0.00161699,-0.00056904,-0.00030513,-0.00040711,
 -0.03964296,0.00124100,-0.00316004,0.07366363,-0.06483273,0.00934937,-
 0.00000704,-0.00000254,-0.00000279,-0.00000064,0.00000173,-0.00000030,
 -0.00000064,0.00000103,0.00000091,0.00000137,0.00000105,-0.00000032,0.
 00000013,-0.00000243,0.00000041,0.00000194,0.00000376,-0.00000004,0.00
 000007,-0.00000172,-0.00000514,-0.00000206,-0.00000255,0.00000082,0.00
 000569,-0.00000431,-0.00000363,0.00000303,-0.00000411,-0.00001174,0.00
 000345,-0.00000455,0.00000744,0.00000621,0.00001657,0.00002617,0.00001
 001,0.00000976,-0.00001422,0.00006323,0.00002568,0.00008604,0.00001077
 ,-0.00000372,-0.00001387,0.00002924,-0.00002283,-0.00003412,0.00004662
 ,0.00001031,-0.00003174,-0.00004387,0.00009457,-0.00040006,0.00007707,
 0.00010582,0.00001331,-0.00006005,0.00023878,0.00022713,-0.00002782,0.
 00036311,0.00029941,-0.05994965,0.07278745,-0.00000083,0.00000297,0.00
 000076,0.00000604,-0.00000317,-0.00000155,-0.00000496,0.00001656,0.,-0
 .00000574,-0.00000287,0.00000366,0.00000774,-0.00000020,-0.00000359,0.
 00002928,-0.00002489,0.00001316,0.00001751,0.00016205,-0.00001021,0.00
 033350,-0.00021011,0.00036674,-0.00005313,0.00001821,-0.00005726,0.000
 08165,0.00090289,-0.00037773,-0.00000994,-0.00017995,0.00017845,0.0093
 1634,0.00008588,0.00164618,-0.03542845,0.00834252,-0.05450031,0.000001
 33,0.00000032,0.00000063,0.00000044,-0.00000049,0.00000015,0.00000042,
 -0.00000035,-0.00000024,-0.00000028,0.00000032,-0.00000064,-0.00000017
 ,0.00000032,0.00000030,0.00000007,-0.00000138,-0.00000060,0.00000042,0
 .00000020,0.00000232,0.00000091,0.00000191,0.00000051,-0.00000212,0.00
 000062,0.00000022,0.00000005,0.00000694,0.00000046,-0.00000138,0.00000
 330,-0.00000284,-0.00001643,-0.00000721,0.00001280,0.00000107,-0.00000
 258,0.00000565,-0.00005110,-0.00008692,-0.00003406,0.00002807,0.000009
 08,0.00002266,0.00000419,-0.00000314,0.00002745,-0.00002998,-0.0000196
 9,0.00000111,0.00044914,-0.00029098,0.00047717,0.00006611,0.00015793,0
 .00007482,0.00003002,0.00001345,-0.00001118,-0.00019861,0.00013329,0.0
 0018900,0.03415353,-0.01076502,0.05153620,0.00000031,-0.00000158,-0.00
 000117,-0.00000492,0.00000099,0.00000275,-0.00000141,-0.00001390,0.000
 00294,-0.00000651,-0.00000694,-0.00000848,0.00000292,0.00000241,0.0000
 0434,-0.00004549,0.00001042,0.00002086,0.00000682,-0.00007385,-0.00004
 100,-0.00035587,0.00004299,-0.00014324,-0.00002448,0.00000160,-0.00005
 130,0.00290031,-0.00097459,-0.00181684,-0.00001119,-0.00047316,0.00069
 518,0.00386273,-0.02104402,-0.01008318,-0.06979139,0.04928871,0.040922
 04,-0.00000060,0.00000047,0.00000041,-0.00000017,0.00000012,-0.0000001
 9,-0.00000022,-0.00000056,-0.00000035,0.00000077,0.00000056,-0.0000000
 5,0.00000002,0.00000013,0.00000019,0.00000012,0.00000087,-0.00000126,0
 .00000181,0.00000148,0.00000303,0.00000042,0.00000173,0.00000075,-0.00
 000241,-0.00000150,-0.00000215,0.00000078,0.00001097,0.00000701,0.0000
 0147,0.00000083,0.00000011,-0.00003953,-0.00000665,0.00002243,-0.00000
 532,-0.00000401,-0.00001105,0.00003867,0.00009889,-0.00002244,-0.00003
 088,-0.00001622,-0.00001391,-0.00003867,-0.00000142,0.00000448,-0.0000
 7689,0.00010605,0.00015638,-0.00026519,-0.00006885,-0.00013720,0.00003
 744,0.00003688,-0.00012008,0.00036442,0.00021564,-0.00014668,-0.001431
 67,-0.00006176,0.00101749,-0.00656177,0.02188542,0.02047399,0.06875236
 ,0.00000775,-0.00002049,-0.00000588,-0.00003304,0.00002385,0.00001909,
 0.00003031,-0.00006758,0.00001021,0.00006000,-0.00001229,-0.00005816,-
 0.00009467,0.00001819,0.00004966,-0.00016210,0.00008550,0.00003926,0.0
 0010717,-0.00029119,-0.00010740,-0.00058353,0.00018642,-0.00012796,0.0
 0011641,-0.00003813,0.00000637,0.00668469,-0.00018122,0.00036736,-0.00
 075603,-0.00026440,-0.00038317,-0.00743348,-0.03749213,-0.01241831,0.0
 4589792,-0.17318720,-0.10871096,-0.00001417,-0.00000804,-0.00000771,-0
 .00000219,0.00000507,-0.00000146,-0.00000453,0.00000234,0.00000380,0.0
 0000174,0.00000284,0.00000840,-0.00000001,-0.00000406,-0.00000172,-0.0
 0000316,0.00000691,0.00000099,0.00000060,-0.00000409,-0.00001615,-0.00
 000414,-0.00000491,0.00000181,0.00002039,-0.00001336,-0.00001589,0.000
 01766,0.00002432,0.00001798,0.00000742,-0.00000266,-0.00000285,-0.0000
 9482,0.00002272,0.00007899,-0.00003098,0.00000303,-0.00001841,0.000100
 31,0.00009975,-0.00003496,-0.00011905,-0.00001401,-0.00007826,-0.00012
 976,-0.00006345,-0.00005850,-0.00020561,0.00028464,0.00037237,-0.00080
 592,0.00026511,-0.00028123,0.00016810,0.00016854,0.00008458,-0.0001437
 1,0.00045540,0.00042948,-0.00029750,0.00094720,0.00043583,0.00346571,-
 0.00432703,-0.00613408,-0.04525404,0.20555874,0.00000123,-0.00000212,0
 .00000073,-0.00000124,0.00000124,-0.00000188,0.00000594,-0.00000490,0.
 00000493,0.00000697,-0.00000933,-0.00001571,-0.00001612,0.00000912,0.0
 0001448,-0.00001543,0.00000586,0.00000315,0.00001038,-0.00002655,-0.00
 001482,-0.00004479,0.00001196,0.00003963,0.00006197,0.00007337,-0.0000
 2905,0.00114390,-0.00028122,0.00051573,-0.00019769,0.00007771,-0.00050
 640,-0.00516123,0.00594035,0.01165234,0.04077351,-0.11097873,-0.149389
 96,-0.00000112,-0.00000014,-0.00000068,-0.00000035,0.00000088,-0.00000
 133,-0.00000204,-0.00000087,0.00000071,-0.00000086,0.00000123,0.000005
 20,0.00000005,0.00000069,-0.00000063,-0.00000292,0.00000228,-0.0000011
 7,0.00000186,0.00000147,0.00000170,-0.00000039,0.00000125,0.00000033,0
 .00000243,-0.00000641,-0.00000642,0.00001021,0.00001608,0.00001033,0.0
 0000154,0.00000185,-0.00000197,-0.00004100,0.00000276,0.00003481,0.000
 00225,-0.00000602,-0.00000142,0.00001190,0.00001155,0.00003591,0.00005
 091,-0.00000453,0.00004737,-0.00003690,-0.00002876,0.00003548,-0.00002
 287,0.00003370,-0.00003960,0.00013106,0.00006661,-0.00042064,0.0001756
 1,0.00018251,-0.00001156,-0.00027135,0.00009229,0.00014702,0.00074783,
 0.00040521,0.00010927,-0.00163696,0.00396213,0.00306996,-0.04513895,0.
 12234754,0.15435465,-0.00000019,0.00000047,0.00000086,0.00000267,-0.00
 000089,-0.00000200,-0.00000082,0.00000672,0.00000226,-0.00000219,0.000
 00028,-0.00000094,0.00000160,0.00000009,0.00000198,0.00001743,0.000006
 93,-0.00001968,0.00001550,0.00007617,-0.00002424,0.00015429,-0.0003833
 8,0.00014490,0.00003469,0.00001195,0.00001765,0.00507851,-0.00200878,0
 .00467451,-0.00054266,0.00045424,-0.00036824,-0.00187370,-0.01320857,0
 .01855386,-0.05986660,0.01333606,-0.04241113,0.00000076,0.00000068,0.0
 0000033,-0.00000002,-0.00000004,-0.00000033,-0.00000040,-0.00000035,-0
 .00000012,-0.00000026,-0.00000014,0.00000100,0.00000014,0.00000009,-0.
 00000016,-0.00000106,-0.00000050,0.00000045,0.00000038,0.00000078,0.00
 000084,0.00000001,-0.00000032,-0.00000014,-0.00000052,-0.00000031,-0.0
 0000093,0.00000213,0.00000059,0.00000423,0.00000581,0.00000698,0.00000
 046,-0.00000401,0.00000413,-0.00000203,-0.00005176,0.00000271,-0.00002
 304,-0.00011949,0.00007136,-0.00012991,0.00000029,-0.00002149,-0.00002
 925,-0.00001980,0.00000187,-0.00000542,-0.00000989,0.00005779,0.000025
 03,0.00039549,0.00103951,-0.00120833,-0.00001111,-0.00006427,-0.000167
 74,-0.00009628,0.00011237,0.00010706,0.00008295,-0.00000774,-0.0000175
 8,-0.00318276,0.00702207,-0.02919869,0.00272321,-0.00051372,0.00945268
 ,0.05726766,0.00000381,-0.00001038,-0.00000372,-0.00001649,0.00001310,
 0.00001397,0.00001431,-0.00002893,-0.00000510,0.00004302,0.00000670,-0
 .00000844,-0.00004952,0.00000002,0.00000865,-0.00003428,0.00004991,0.0
 0002490,0.00003583,-0.00007990,-0.00013849,0.00003067,0.00010826,0.000
 00164,-0.00006605,0.00004042,0.00005730,0.00653989,0.00009198,0.001223
 72,-0.00052778,-0.00020389,-0.00043950,-0.00824154,-0.02311466,0.03359
 384,0.01050496,-0.06374888,0.05320998,-0.00000784,-0.00000566,-0.00000
 465,-0.00000117,0.00000282,0.00000043,0.00000003,0.00000311,0.00000200
 ,0.00000150,-0.00000008,-0.00000187,-0.00000047,-0.00000281,-0.0000005
 7,0.00000130,0.00000177,0.00000203,-0.00000420,-0.00000837,-0.00001500
 ,-0.00000218,-0.00000345,0.00000051,0.00001283,-0.00000067,-0.00000075
 ,-0.00000263,-0.00001374,-0.00001505,0.00000252,-0.00000446,0.00000184
 ,0.00002359,0.00001424,0.00000502,-0.00005163,-0.00000359,0.00000094,0
 .00005374,0.00018421,-0.00014251,-0.00011300,-0.00001984,-0.00009868,0
 .00004237,-0.00000827,-0.00009191,0.00004792,0.00002435,0.00021431,-0.
 00097390,0.00088508,-0.00109763,0.00012432,-0.00002986,-0.00012548,-0.
 00016822,0.00027156,0.00019651,-0.00004053,0.00018426,0.00003417,0.002
 52630,-0.00100822,0.00787427,-0.00370409,0.00783566,-0.02190007,-0.006
 00338,0.07857820,-0.00000501,0.00001174,0.00000293,0.00001644,-0.00001
 327,-0.00001240,-0.00001450,0.00004282,-0.00000335,-0.00004642,-0.0000
 0990,0.00000150,0.00005213,0.00000095,-0.00000063,0.00006372,-0.000047
 35,-0.00000771,0.00000905,0.00019690,0.00002430,0.00035854,-0.00044711
 ,0.00057275,-0.00006237,0.00014850,-0.00012810,-0.00331879,-0.00035635
 ,0.00058263,0.00032986,-0.00020323,-0.00006518,0.00703975,0.01361334,-
 0.00307096,-0.04067339,0.05623103,-0.26589426,0.00000773,0.00000508,0.
 00000426,0.00000253,-0.00000391,0.00000003,-0.00000045,-0.00000363,-0.
 00000174,-0.00000250,0.00000181,0.00000271,0.00000097,-0.00000003,0.00
 000152,0.00000280,-0.00000649,0.00000099,0.00000624,0.00001110,0.00001
 376,0.00000171,0.00000060,0.00000067,-0.00001291,0.00000076,-0.0000043
 0,-0.00000016,0.00001335,0.00000753,-0.00000215,-0.00000132,-0.0000006
 7,-0.00003253,-0.00001284,0.00001447,0.00003526,0.00000066,0.00002252,
 -0.00017423,-0.00028514,0.00000995,0.00010301,-0.00001996,0.00011120,0
 .00003118,0.00000433,0.00008398,0.00006248,-0.00007139,-0.00015779,0.0
 0180840,-0.00016075,0.00044869,-0.00011855,0.00001279,0.00012672,0.000
 18358,0.00000668,-0.00006746,-0.00014927,0.00014099,-0.00007122,-0.000
 52911,-0.00061347,-0.00263013,-0.00559484,0.00418933,-0.01964050,0.040
 62182,-0.07237661,0.28972328\\0.00000454,-0.00000253,0.00000151,-0.000
 00757,0.00000316,0.00000372,0.00000891,-0.00000159,-0.00000477,-0.0000
 0689,0.00000103,-0.00000354,-0.00000117,-0.00000346,-0.00000415,-0.000
 00116,0.00000771,0.00000151,-0.00000062,-0.00000647,0.00000043,-0.0000
 0285,-0.00000077,0.00000428,0.00000510,-0.00000747,0.00000050,0.000017
 89,0.00000961,0.00000634,0.00000515,-0.00000647,-0.00000128,-0.0000061
 0,0.00000984,-0.00001464,-0.00001297,-0.00001772,0.00001108,-0.0000011
 2,0.00000058,-0.00000048,-0.00000121,0.00000108,0.00000124,-0.00000089
 ,0.00000019,0.00000002,-0.00000021,-0.00000207,-0.00000005,0.00000145,
 -0.00000123,0.00000043,-0.00000058,0.00000195,0.00000222,0.00000378,-0
 .00000074,0.00000343,0.00000007,0.00000082,0.00000309,0.00000246,0.000
 00005,0.00000378,-0.00000130,-0.00000063,-0.00000042,0.00000132,-0.000
 00159,-0.00000036,-0.00000067,0.00000070,-0.00000184,0.00000049,0.0000
 0076,-0.00000060,0.00000030,-0.00000167,0.00000032,-0.00000090,0.00000
 243,-0.00000172,-0.00000221,0.00000228,-0.00000006,-0.00000191,0.00000
 147,-0.00000200,-0.00000024,0.00000096,-0.00000257,-0.00000156,0.00000
 159,0.00000078,0.00000023,0.00000071,-0.00000251,-0.00000108,0.0000012
 4,0.00000238,-0.00000027,-0.00000040,-0.00000030,0.00000104,0.00000361
 ,-0.00000156,0.00000078,0.00000304,-0.00000423\\\@


 I FIND THAT THE THREE TRULY GREAT TIMES FOR THINKING THOUGHTS
 ARE WHEN I AM STANDING IN THE SHOWER, SITTING ON THE JOHN, OR WALKING.

                                    -- COLIN FLETCHER
 Job cpu time:       0 days  9 hours 23 minutes 37.5 seconds.
 Elapsed time:       0 days  2 hours 21 minutes  2.4 seconds.
 File lengths (MBytes):  RWF=    622 Int=      0 D2E=      0 Chk=     20 Scr=      1
 Normal termination of Gaussian 16 at Wed May 24 15:08:35 2023.
### All Done ###
