### Starting Gaussian ###
 Entering Gaussian System, Link 0=g16
 Initial command:
 /cluster/software/gaussian/gaussian-16-A.03/avx2/g16/l1.exe "/local/scratch/linjian/Gau-17218.inp" -scrdir="/local/scratch/linjian/"
 Entering Link 1 = /cluster/software/gaussian/gaussian-16-A.03/avx2/g16/l1.exe PID=     17219.
  
 Copyright (c) 1988,1990,1992,1993,1995,1998,2003,2009,2016,
            Gaussian, Inc.  All Rights Reserved.
  
 This is part of the Gaussian(R) 16 program.  It is based on
 the Gaussian(R) 09 system (copyright 2009, Gaussian, Inc.),
 the Gaussian(R) 03 system (copyright 2003, Gaussian, Inc.),
 the Gaussian(R) 98 system (copyright 1998, Gaussian, Inc.),
 the Gaussian(R) 94 system (copyright 1995, Gaussian, Inc.),
 the Gaussian 92(TM) system (copyright 1992, Gaussian, Inc.),
 the Gaussian 90(TM) system (copyright 1990, Gaussian, Inc.),
 the Gaussian 88(TM) system (copyright 1988, Gaussian, Inc.),
 the Gaussian 86(TM) system (copyright 1986, Carnegie Mellon
 University), and the Gaussian 82(TM) system (copyright 1983,
 Carnegie Mellon University). Gaussian is a federally registered
 trademark of Gaussian, Inc.
  
 This software contains proprietary and confidential information,
 including trade secrets, belonging to Gaussian, Inc.
  
 This software is provided under written license and may be
 used, copied, transmitted, or stored only in accord with that
 written license.
  
 The following legend is applicable only to US Government
 contracts under FAR:
  
                    RESTRICTED RIGHTS LEGEND
  
 Use, reproduction and disclosure by the US Government is
 subject to restrictions as set forth in subparagraphs (a)
 and (c) of the Commercial Computer Software - Restricted
 Rights clause in FAR 52.227-19.
  
 Gaussian, Inc.
 340 Quinnipiac St., Bldg. 40, Wallingford CT 06492
  
  
 ---------------------------------------------------------------
 Warning -- This program may not be used in any manner that
 competes with the business of Gaussian, Inc. or will provide
 assistance to any competitor of Gaussian, Inc.  The licensee
 of this program is prohibited from giving any competitor of
 Gaussian, Inc. access to this program.  By using this program,
 the user acknowledges that Gaussian, Inc. is engaged in the
 business of creating and licensing software in the field of
 computational chemistry and represents and warrants to the
 licensee that it is not a competitor of Gaussian, Inc. and that
 it will not use this program in any manner prohibited above.
 ---------------------------------------------------------------
  

 Cite this work as:
 Gaussian 16, Revision A.03,
 M. J. Frisch, G. W. Trucks, H. B. Schlegel, G. E. Scuseria, 
 M. A. Robb, J. R. Cheeseman, G. Scalmani, V. Barone, 
 G. A. Petersson, H. Nakatsuji, X. Li, M. Caricato, A. V. Marenich, 
 J. Bloino, B. G. Janesko, R. Gomperts, B. Mennucci, H. P. Hratchian, 
 J. V. Ortiz, A. F. Izmaylov, J. L. Sonnenberg, D. Williams-Young, 
 F. Ding, F. Lipparini, F. Egidi, J. Goings, B. Peng, A. Petrone, 
 T. Henderson, D. Ranasinghe, V. G. Zakrzewski, J. Gao, N. Rega, 
 G. Zheng, W. Liang, M. Hada, M. Ehara, K. Toyota, R. Fukuda, 
 J. Hasegawa, M. Ishida, T. Nakajima, Y. Honda, O. Kitao, H. Nakai, 
 T. Vreven, K. Throssell, J. A. Montgomery, Jr., J. E. Peralta, 
 F. Ogliaro, M. J. Bearpark, J. J. Heyd, E. N. Brothers, K. N. Kudin, 
 V. N. Staroverov, T. A. Keith, R. Kobayashi, J. Normand, 
 K. Raghavachari, A. P. Rendell, J. C. Burant, S. S. Iyengar, 
 J. Tomasi, M. Cossi, J. M. Millam, M. Klene, C. Adamo, R. Cammi, 
 J. W. Ochterski, R. L. Martin, K. Morokuma, O. Farkas, 
 J. B. Foresman, and D. J. Fox, Gaussian, Inc., Wallingford CT, 2016.
 
 ******************************************
 Gaussian 16:  ES64L-G16RevA.03 25-Dec-2016
                27-May-2023 
 ******************************************
 %chk=CCCqCrCqFrqFrF.chk
 %NProcShared=20
 Will use up to   20 processors via shared memory.
 -----------------------------
 # opt freq b3lyp/6-31g(2df,p)
 -----------------------------
 1/18=20,19=15,26=3,38=1/1,3;
 2/9=110,12=2,17=6,18=5,40=1/2;
 3/5=1,6=6,7=104,11=2,25=1,30=1,71=1,74=-5/1,2,3;
 4//1;
 5/5=2,38=5/2;
 6/7=2,8=2,9=2,10=2,28=1/1;
 7//1,2,3,16;
 1/18=20,19=15,26=3/3(2);
 2/9=110/2;
 99//99;
 2/9=110/2;
 3/5=1,6=6,7=104,11=2,25=1,30=1,71=1,74=-5/1,2,3;
 4/5=5,16=3,69=1/1;
 5/5=2,38=5/2;
 7//1,2,3,16;
 1/18=20,19=15,26=3/3(-5);
 2/9=110/2;
 6/7=2,8=2,9=2,10=2,19=2,28=1/1;
 99/9=1/99;
 -------------------
 Title Card Required
 -------------------
 Symbolic Z-matrix:
 Charge =  0 Multiplicity = 1
 C                     0.92216   0.06949  -0.04492 
 C                     2.44316   0.08087   0.03234 
 C                     2.98711   0.89198   1.22267 
 C                     2.50458   0.33093   2.56231 
 C                     4.51174   0.91555   1.19483 
 F                     5.03127  -0.32445   1.30422 
 F                     4.97124   1.45604   0.04392 
 F                     5.00346   1.65949   2.2118 
 H                     0.59235  -0.4828   -0.93021 
 H                     0.52697   1.08792  -0.10995 
 H                     0.47693  -0.41992   0.82593 
 H                     2.83057   0.50514  -0.90261 
 H                     2.80635  -0.95244   0.08333 
 H                     2.63052   1.92525   1.1334 
 H                     2.8131   -0.71219   2.6871 
 H                     1.4149    0.37641   2.64833 
 H                     2.91312   0.90936   3.39721 
 

 GradGradGradGradGradGradGradGradGradGradGradGradGradGradGradGradGradGrad
 Berny optimization.
 Initialization pass.
                           ----------------------------
                           !    Initial Parameters    !
                           ! (Angstroms and Degrees)  !
 --------------------------                            --------------------------
 ! Name  Definition              Value          Derivative Info.                !
 --------------------------------------------------------------------------------
 ! R1    R(1,2)                  1.523          estimate D2E/DX2                !
 ! R2    R(1,9)                  1.0943         estimate D2E/DX2                !
 ! R3    R(1,10)                 1.0944         estimate D2E/DX2                !
 ! R4    R(1,11)                 1.0937         estimate D2E/DX2                !
 ! R5    R(2,3)                  1.5397         estimate D2E/DX2                !
 ! R6    R(2,12)                 1.0974         estimate D2E/DX2                !
 ! R7    R(2,13)                 1.0965         estimate D2E/DX2                !
 ! R8    R(3,4)                  1.5304         estimate D2E/DX2                !
 ! R9    R(3,5)                  1.5251         estimate D2E/DX2                !
 ! R10   R(3,14)                 1.0967         estimate D2E/DX2                !
 ! R11   R(4,15)                 1.0949         estimate D2E/DX2                !
 ! R12   R(4,16)                 1.094          estimate D2E/DX2                !
 ! R13   R(4,17)                 1.0948         estimate D2E/DX2                !
 ! R14   R(5,6)                  1.3489         estimate D2E/DX2                !
 ! R15   R(5,7)                  1.352          estimate D2E/DX2                !
 ! R16   R(5,8)                  1.3526         estimate D2E/DX2                !
 ! A1    A(2,1,9)              110.2304         estimate D2E/DX2                !
 ! A2    A(2,1,10)             110.8979         estimate D2E/DX2                !
 ! A3    A(2,1,11)             111.6854         estimate D2E/DX2                !
 ! A4    A(9,1,10)             108.2261         estimate D2E/DX2                !
 ! A5    A(9,1,11)             107.1952         estimate D2E/DX2                !
 ! A6    A(10,1,11)            108.4666         estimate D2E/DX2                !
 ! A7    A(1,2,3)              113.3267         estimate D2E/DX2                !
 ! A8    A(1,2,12)             108.1942         estimate D2E/DX2                !
 ! A9    A(1,2,13)             109.0334         estimate D2E/DX2                !
 ! A10   A(3,2,12)             109.2854         estimate D2E/DX2                !
 ! A11   A(3,2,13)             110.0892         estimate D2E/DX2                !
 ! A12   A(12,2,13)            106.6807         estimate D2E/DX2                !
 ! A13   A(2,3,4)              111.8516         estimate D2E/DX2                !
 ! A14   A(2,3,5)              110.3169         estimate D2E/DX2                !
 ! A15   A(2,3,14)             108.574          estimate D2E/DX2                !
 ! A16   A(4,3,5)              109.6846         estimate D2E/DX2                !
 ! A17   A(4,3,14)             108.3079         estimate D2E/DX2                !
 ! A18   A(5,3,14)             107.9993         estimate D2E/DX2                !
 ! A19   A(3,4,15)             111.1108         estimate D2E/DX2                !
 ! A20   A(3,4,16)             111.5692         estimate D2E/DX2                !
 ! A21   A(3,4,17)             110.8667         estimate D2E/DX2                !
 ! A22   A(15,4,16)            108.1376         estimate D2E/DX2                !
 ! A23   A(15,4,17)            108.1369         estimate D2E/DX2                !
 ! A24   A(16,4,17)            106.8438         estimate D2E/DX2                !
 ! A25   A(3,5,6)              111.6761         estimate D2E/DX2                !
 ! A26   A(3,5,7)              111.1918         estimate D2E/DX2                !
 ! A27   A(3,5,8)              110.9906         estimate D2E/DX2                !
 ! A28   A(6,5,7)              107.7966         estimate D2E/DX2                !
 ! A29   A(6,5,8)              107.7356         estimate D2E/DX2                !
 ! A30   A(7,5,8)              107.2542         estimate D2E/DX2                !
 ! D1    D(9,1,2,3)            177.5687         estimate D2E/DX2                !
 ! D2    D(9,1,2,12)            56.2142         estimate D2E/DX2                !
 ! D3    D(9,1,2,13)           -59.444          estimate D2E/DX2                !
 ! D4    D(10,1,2,3)            57.733          estimate D2E/DX2                !
 ! D5    D(10,1,2,12)          -63.6215         estimate D2E/DX2                !
 ! D6    D(10,1,2,13)         -179.2798         estimate D2E/DX2                !
 ! D7    D(11,1,2,3)           -63.379          estimate D2E/DX2                !
 ! D8    D(11,1,2,12)          175.2665         estimate D2E/DX2                !
 ! D9    D(11,1,2,13)           59.6083         estimate D2E/DX2                !
 ! D10   D(1,2,3,4)             60.43           estimate D2E/DX2                !
 ! D11   D(1,2,3,5)           -177.1942         estimate D2E/DX2                !
 ! D12   D(1,2,3,14)           -59.0284         estimate D2E/DX2                !
 ! D13   D(12,2,3,4)          -178.8305         estimate D2E/DX2                !
 ! D14   D(12,2,3,5)           -56.4547         estimate D2E/DX2                !
 ! D15   D(12,2,3,14)           61.7111         estimate D2E/DX2                !
 ! D16   D(13,2,3,4)           -61.9728         estimate D2E/DX2                !
 ! D17   D(13,2,3,5)            60.403          estimate D2E/DX2                !
 ! D18   D(13,2,3,14)          178.5688         estimate D2E/DX2                !
 ! D19   D(2,3,4,15)            58.8203         estimate D2E/DX2                !
 ! D20   D(2,3,4,16)           -61.9397         estimate D2E/DX2                !
 ! D21   D(2,3,4,17)           179.1039         estimate D2E/DX2                !
 ! D22   D(5,3,4,15)           -63.9159         estimate D2E/DX2                !
 ! D23   D(5,3,4,16)           175.3241         estimate D2E/DX2                !
 ! D24   D(5,3,4,17)            56.3677         estimate D2E/DX2                !
 ! D25   D(14,3,4,15)          178.4353         estimate D2E/DX2                !
 ! D26   D(14,3,4,16)           57.6752         estimate D2E/DX2                !
 ! D27   D(14,3,4,17)          -61.2811         estimate D2E/DX2                !
 ! D28   D(2,3,5,6)            -61.6551         estimate D2E/DX2                !
 ! D29   D(2,3,5,7)             58.7992         estimate D2E/DX2                !
 ! D30   D(2,3,5,8)            178.1064         estimate D2E/DX2                !
 ! D31   D(4,3,5,6)             61.9858         estimate D2E/DX2                !
 ! D32   D(4,3,5,7)           -177.5599         estimate D2E/DX2                !
 ! D33   D(4,3,5,8)            -58.2527         estimate D2E/DX2                !
 ! D34   D(14,3,5,6)           179.827          estimate D2E/DX2                !
 ! D35   D(14,3,5,7)           -59.7187         estimate D2E/DX2                !
 ! D36   D(14,3,5,8)            59.5885         estimate D2E/DX2                !
 --------------------------------------------------------------------------------
 Trust Radius=3.00D-01 FncErr=1.00D-07 GrdErr=1.00D-06 EigMax=2.50D+02 EigMin=1.00D-04
 Number of steps in this run=     92 maximum allowed number of steps=    102.
 GradGradGradGradGradGradGradGradGradGradGradGradGradGradGradGradGradGrad

                          Input orientation:                          
 ---------------------------------------------------------------------
 Center     Atomic      Atomic             Coordinates (Angstroms)
 Number     Number       Type             X           Y           Z
 ---------------------------------------------------------------------
      1          6           0        0.922160    0.069490   -0.044920
      2          6           0        2.443160    0.080870    0.032340
      3          6           0        2.987110    0.891980    1.222670
      4          6           0        2.504580    0.330930    2.562310
      5          6           0        4.511740    0.915550    1.194830
      6          9           0        5.031270   -0.324450    1.304220
      7          9           0        4.971240    1.456040    0.043920
      8          9           0        5.003460    1.659490    2.211800
      9          1           0        0.592350   -0.482800   -0.930210
     10          1           0        0.526970    1.087920   -0.109950
     11          1           0        0.476930   -0.419920    0.825930
     12          1           0        2.830570    0.505140   -0.902610
     13          1           0        2.806350   -0.952440    0.083330
     14          1           0        2.630520    1.925250    1.133400
     15          1           0        2.813100   -0.712190    2.687100
     16          1           0        1.414900    0.376410    2.648330
     17          1           0        2.913120    0.909360    3.397210
 ---------------------------------------------------------------------
                    Distance matrix (angstroms):
                    1          2          3          4          5
     1  C    0.000000
     2  C    1.523003   0.000000
     3  C    2.558768   1.539697   0.000000
     4  C    3.061054   2.543040   1.530440   0.000000
     5  C    3.890743   2.515372   1.525066   2.498094   0.000000
     6  F    4.342828   2.912091   2.380114   2.897667   1.348880
     7  F    4.280825   2.877919   2.375792   3.700348   1.351985
     8  F    4.927260   3.714461   2.373419   2.851724   1.352577
     9  H    1.094320   2.160954   3.501398   4.064047   4.672558
    10  H    1.094351   2.169373   2.804738   3.409538   4.196493
    11  H    1.093678   2.178678   2.859980   2.773113   4.266059
    12  H    2.137160   1.097371   2.165864   3.484579   2.719195
    13  H    2.147315   1.096465   2.175467   2.807747   2.762820
    14  H    2.784022   2.156194   1.096710   2.144645   2.135944
    15  H    3.413299   2.795273   2.179036   1.094923   2.785998
    16  H    2.755102   2.826317   2.184070   1.094016   3.463200
    17  H    4.064180   3.497086   2.175868   1.094780   2.721415
                    6          7          8          9         10
     6  F    0.000000
     7  F    2.182225   0.000000
     8  F    2.181855   2.177644   0.000000
     9  H    4.972098   4.886994   5.824047   0.000000
    10  H    4.927817   4.462143   5.075054   1.773207   0.000000
    11  H    4.580381   4.932503   5.170499   1.761052   1.775375
    12  H    3.225120   2.526380   3.969071   2.446715   2.504898
    13  H    2.614424   3.238685   4.022419   2.479843   3.065289
    14  H    3.294530   2.624137   2.620004   3.769792   2.583014
    15  H    2.642532   4.042919   3.263197   4.250798   4.036121
    16  H    3.921220   4.538293   3.835963   3.771045   2.983752
    17  H    3.223268   3.972313   2.517422   5.103983   4.245676
                   11         12         13         14         15
    11  H    0.000000
    12  H    3.063202   0.000000
    13  H    2.502245   1.759887   0.000000
    14  H    3.198798   2.490395   3.068332   0.000000
    15  H    3.001177   3.790543   2.614839   3.066498   0.000000
    16  H    2.198879   3.824901   3.206431   2.484281   1.772432
    17  H    3.783317   4.319567   3.802565   2.497345   1.773044
                   16         17
    16  H    0.000000
    17  H    1.757703   0.000000
 Stoichiometry    C5H9F3
 Framework group  C1[X(C5H9F3)]
 Deg. of freedom    45
 Full point group                 C1      NOp   1
 Largest Abelian subgroup         C1      NOp   1
 Largest concise Abelian subgroup C1      NOp   1
                         Standard orientation:                         
 ---------------------------------------------------------------------
 Center     Atomic      Atomic             Coordinates (Angstroms)
 Number     Number       Type             X           Y           Z
 ---------------------------------------------------------------------
      1          6           0       -2.852985   -0.370226   -0.138342
      2          6           0       -1.411855   -0.694681    0.232350
      3          6           0       -0.389381    0.273541   -0.390354
      4          6           0       -0.622717    1.716821    0.062134
      5          6           0        1.030299   -0.153736   -0.032903
      6          9           0        1.237686   -0.128125    1.299693
      7          9           0        1.287090   -1.408111   -0.467026
      8          9           0        1.941592    0.664092   -0.607504
      9          1           0       -3.531188   -1.112217    0.294126
     10          1           0       -2.987371   -0.375593   -1.224397
     11          1           0       -3.158062    0.608112    0.243644
     12          1           0       -1.193726   -1.716712   -0.102455
     13          1           0       -1.314689   -0.693791    1.324501
     14          1           0       -0.490545    0.234022   -1.481673
     15          1           0       -0.559383    1.803620    1.151772
     16          1           0       -1.604496    2.083118   -0.252199
     17          1           0        0.121977    2.388426   -0.377095
 ---------------------------------------------------------------------
 Rotational constants (GHZ):           3.1182903           1.3987879           1.2120262
 Standard basis: 6-31G(2df,p) (6D, 7F)
 There are   293 symmetry adapted cartesian basis functions of A   symmetry.
 There are   269 symmetry adapted basis functions of A   symmetry.
   269 basis functions,   415 primitive gaussians,   293 cartesian basis functions
    33 alpha electrons       33 beta electrons
       nuclear repulsion energy       434.1149599475 Hartrees.
 NAtoms=   17 NActive=   17 NUniq=   17 SFac= 1.00D+00 NAtFMM=   60 NAOKFM=F Big=F
 Integral buffers will be    131072 words long.
 Raffenetti 2 integral format.
 Two-electron integral symmetry is turned on.
 One-electron integrals computed using PRISM.
 PrsmSu:  requested number of processors reduced to:  13 ShMem   1 Linda.
 NBasis=   269 RedAO= T EigKep=  6.68D-04  NBF=   269
 NBsUse=   269 1.00D-06 EigRej= -1.00D+00 NBFU=   269
 ExpMin= 1.61D-01 ExpMax= 7.00D+03 ExpMxC= 1.05D+03 IAcc=3 IRadAn=         5 AccDes= 0.00D+00
 Harris functional with IExCor=  402 and IRadAn=       5 diagonalized for initial guess.
 HarFok:  IExCor=  402 AccDes= 0.00D+00 IRadAn=         5 IDoV= 1 UseB2=F ITyADJ=14
 ICtDFT=  3500011 ScaDFX=  1.000000  1.000000  1.000000  1.000000
 FoFCou: FMM=F IPFlag=           0 FMFlag=      100000 FMFlg1=           0
         NFxFlg=           0 DoJE=T BraDBF=F KetDBF=T FulRan=T
         wScrn=  0.000000 ICntrl=       500 IOpCl=  0 I1Cent=   200000004 NGrid=           0
         NMat0=    1 NMatS0=      1 NMatT0=    0 NMatD0=    1 NMtDS0=    0 NMtDT0=    0
 Petite list used in FoFCou.
 Requested convergence on RMS density matrix=1.00D-08 within 128 cycles.
 Requested convergence on MAX density matrix=1.00D-06.
 Requested convergence on             energy=1.00D-06.
 No special actions if energy rises.
 Integral accuracy reduced to 1.0D-05 until final iterations.
 Initial convergence to 1.0D-05 achieved.  Increase integral accuracy.
 SCF Done:  E(RB3LYP) =  -495.528592979     A.U. after   12 cycles
            NFock= 12  Conv=0.26D-08     -V/T= 2.0069

 **********************************************************************

            Population analysis using the SCF density.

 **********************************************************************

 Orbital symmetries:
       Occupied  (A) (A) (A) (A) (A) (A) (A) (A) (A) (A) (A) (A)
                 (A) (A) (A) (A) (A) (A) (A) (A) (A) (A) (A) (A)
                 (A) (A) (A) (A) (A) (A) (A) (A) (A)
       Virtual   (A) (A) (A) (A) (A) (A) (A) (A) (A) (A) (A) (A)
                 (A) (A) (A) (A) (A) (A) (A) (A) (A) (A) (A) (A)
                 (A) (A) (A) (A) (A) (A) (A) (A) (A) (A) (A) (A)
                 (A) (A) (A) (A) (A) (A) (A) (A) (A) (A) (A) (A)
                 (A) (A) (A) (A) (A) (A) (A) (A) (A) (A) (A) (A)
                 (A) (A) (A) (A) (A) (A) (A) (A) (A) (A) (A) (A)
                 (A) (A) (A) (A) (A) (A) (A) (A) (A) (A) (A) (A)
                 (A) (A) (A) (A) (A) (A) (A) (A) (A) (A) (A) (A)
                 (A) (A) (A) (A) (A) (A) (A) (A) (A) (A) (A) (A)
                 (A) (A) (A) (A) (A) (A) (A) (A) (A) (A) (A) (A)
                 (A) (A) (A) (A) (A) (A) (A) (A) (A) (A) (A) (A)
                 (A) (A) (A) (A) (A) (A) (A) (A) (A) (A) (A) (A)
                 (A) (A) (A) (A) (A) (A) (A) (A) (A) (A) (A) (A)
                 (A) (A) (A) (A) (A) (A) (A) (A) (A) (A) (A) (A)
                 (A) (A) (A) (A) (A) (A) (A) (A) (A) (A) (A) (A)
                 (A) (A) (A) (A) (A) (A) (A) (A) (A) (A) (A) (A)
                 (A) (A) (A) (A) (A) (A) (A) (A) (A) (A) (A) (A)
                 (A) (A) (A) (A) (A) (A) (A) (A) (A) (A) (A) (A)
                 (A) (A) (A) (A) (A) (A) (A) (A) (A) (A) (A) (A)
                 (A) (A) (A) (A) (A) (A) (A) (A)
 The electronic state is 1-A.
 Alpha  occ. eigenvalues --  -24.71525 -24.71205 -24.71168 -10.41066 -10.20949
 Alpha  occ. eigenvalues --  -10.19097 -10.18526 -10.18175  -1.29436  -1.20988
 Alpha  occ. eigenvalues --   -1.20705  -0.82905  -0.74482  -0.69546  -0.64844
 Alpha  occ. eigenvalues --   -0.59790  -0.57534  -0.56977  -0.53199  -0.47723
 Alpha  occ. eigenvalues --   -0.45513  -0.44723  -0.43683  -0.42854  -0.41637
 Alpha  occ. eigenvalues --   -0.40753  -0.39540  -0.38489  -0.38363  -0.37156
 Alpha  occ. eigenvalues --   -0.34320  -0.33616  -0.33578
 Alpha virt. eigenvalues --    0.08165   0.11840   0.12374   0.13416   0.14201
 Alpha virt. eigenvalues --    0.15160   0.16497   0.16918   0.17725   0.18684
 Alpha virt. eigenvalues --    0.20572   0.22219   0.23899   0.25211   0.26312
 Alpha virt. eigenvalues --    0.27855   0.38129   0.42343   0.43628   0.45647
 Alpha virt. eigenvalues --    0.47091   0.49505   0.51083   0.53050   0.56145
 Alpha virt. eigenvalues --    0.56442   0.59314   0.63325   0.65149   0.66560
 Alpha virt. eigenvalues --    0.68132   0.71056   0.71322   0.72406   0.73424
 Alpha virt. eigenvalues --    0.74377   0.75084   0.75774   0.76576   0.79358
 Alpha virt. eigenvalues --    0.81059   0.84383   0.84812   0.86139   0.87228
 Alpha virt. eigenvalues --    0.89533   0.91243   0.94162   0.94546   0.96365
 Alpha virt. eigenvalues --    0.97498   1.00761   1.01285   1.03827   1.05631
 Alpha virt. eigenvalues --    1.07673   1.10370   1.12588   1.15938   1.16631
 Alpha virt. eigenvalues --    1.21031   1.22182   1.23519   1.24566   1.26961
 Alpha virt. eigenvalues --    1.32356   1.33064   1.38981   1.42332   1.44432
 Alpha virt. eigenvalues --    1.46166   1.50889   1.52089   1.52942   1.53825
 Alpha virt. eigenvalues --    1.56472   1.58414   1.59199   1.61561   1.65046
 Alpha virt. eigenvalues --    1.67846   1.70701   1.73544   1.73847   1.76938
 Alpha virt. eigenvalues --    1.78512   1.83737   1.84958   1.89524   1.91696
 Alpha virt. eigenvalues --    1.94787   1.95715   1.96738   1.99330   2.07417
 Alpha virt. eigenvalues --    2.09315   2.16461   2.18615   2.23622   2.23876
 Alpha virt. eigenvalues --    2.26518   2.26959   2.29167   2.35744   2.39822
 Alpha virt. eigenvalues --    2.41258   2.46893   2.58099   2.60385   2.68193
 Alpha virt. eigenvalues --    2.71707   2.74062   2.76230   2.78298   2.80156
 Alpha virt. eigenvalues --    2.81881   2.85790   2.86998   2.90421   2.91870
 Alpha virt. eigenvalues --    2.93159   2.94764   2.96892   3.03374   3.04278
 Alpha virt. eigenvalues --    3.06900   3.11202   3.12721   3.14684   3.16380
 Alpha virt. eigenvalues --    3.22765   3.26593   3.28404   3.32232   3.36483
 Alpha virt. eigenvalues --    3.37122   3.39580   3.47885   3.52116   3.54828
 Alpha virt. eigenvalues --    3.55686   3.59147   3.63287   3.65277   3.70332
 Alpha virt. eigenvalues --    3.71223   3.76633   3.78200   3.82084   3.87485
 Alpha virt. eigenvalues --    3.88996   3.90883   3.93561   3.96534   4.02501
 Alpha virt. eigenvalues --    4.05530   4.06384   4.13301   4.17356   4.18873
 Alpha virt. eigenvalues --    4.19745   4.21531   4.23383   4.24176   4.25304
 Alpha virt. eigenvalues --    4.26006   4.31342   4.35308   4.42233   4.44304
 Alpha virt. eigenvalues --    4.46368   4.48804   4.51059   4.53016   4.54308
 Alpha virt. eigenvalues --    4.56884   4.57312   4.58319   4.60846   4.63044
 Alpha virt. eigenvalues --    4.63803   4.67298   4.69599   4.70436   4.74124
 Alpha virt. eigenvalues --    4.74456   4.76185   4.77757   4.81600   4.81736
 Alpha virt. eigenvalues --    4.82642   4.83399   4.85963   4.89243   4.89977
 Alpha virt. eigenvalues --    4.91464   4.95473   5.01965   5.08350   5.24557
 Alpha virt. eigenvalues --    5.35566   5.39839   5.45981   5.50195   5.54233
 Alpha virt. eigenvalues --    5.73795   6.40635   6.61760   6.62317   6.62456
 Alpha virt. eigenvalues --    6.62602   6.62801   6.63293   6.66151   6.69825
 Alpha virt. eigenvalues --    6.70496   6.79333   6.79513   6.95060   7.17550
 Alpha virt. eigenvalues --    7.18341   7.20256   7.38994   7.39082   7.42951
 Alpha virt. eigenvalues --    7.43060   7.50907   7.75501   9.62373   9.69050
 Alpha virt. eigenvalues --    9.70406  11.25945  11.62278  12.14413  12.19256
 Alpha virt. eigenvalues --   12.61583
          Condensed to atoms (all electrons):
               1          2          3          4          5          6
     1  C    4.977473   0.392652  -0.027405  -0.005424   0.000073   0.000139
     2  C    0.392652   4.857506   0.354655  -0.035998  -0.003643  -0.000931
     3  C   -0.027405   0.354655   5.107012   0.340537   0.266348  -0.042877
     4  C   -0.005424  -0.035998   0.340537   5.039981  -0.001460  -0.001697
     5  C    0.000073  -0.003643   0.266348  -0.001460   4.161679   0.402851
     6  F    0.000139  -0.000931  -0.042877  -0.001697   0.402851   8.801032
     7  F    0.000147  -0.002831  -0.040284   0.001806   0.437208  -0.040291
     8  F   -0.000013   0.001954  -0.039595  -0.004418   0.440100  -0.040060
     9  H    0.376975  -0.021274   0.002711   0.000215  -0.000047  -0.000000
    10  H    0.376990  -0.028676  -0.003830  -0.000808   0.000207  -0.000002
    11  H    0.379536  -0.027239  -0.005308   0.001258   0.000062   0.000000
    12  H   -0.035050   0.365096  -0.033208   0.005494   0.001142  -0.000191
    13  H   -0.036350   0.367989  -0.033435  -0.007181  -0.000147   0.006008
    14  H   -0.004280  -0.036431   0.339021  -0.042801  -0.005504   0.001588
    15  H   -0.000306  -0.004404  -0.029597   0.375166  -0.002042   0.005250
    16  H    0.001393  -0.005907  -0.017884   0.374592   0.001117   0.000100
    17  H    0.000084   0.004890  -0.026095   0.369627  -0.001167  -0.000125
               7          8          9         10         11         12
     1  C    0.000147  -0.000013   0.376975   0.376990   0.379536  -0.035050
     2  C   -0.002831   0.001954  -0.021274  -0.028676  -0.027239   0.365096
     3  C   -0.040284  -0.039595   0.002711  -0.003830  -0.005308  -0.033208
     4  C    0.001806  -0.004418   0.000215  -0.000808   0.001258   0.005494
     5  C    0.437208   0.440100  -0.000047   0.000207   0.000062   0.001142
     6  F   -0.040291  -0.040060  -0.000000  -0.000002   0.000000  -0.000191
     7  F    8.769443  -0.038465   0.000000  -0.000002  -0.000002   0.007807
     8  F   -0.038465   8.767090   0.000000  -0.000000  -0.000000   0.000065
     9  H    0.000000   0.000000   0.590096  -0.030706  -0.031270  -0.003245
    10  H   -0.000002  -0.000000  -0.030706   0.597020  -0.033822  -0.003761
    11  H   -0.000002  -0.000000  -0.031270  -0.033822   0.589889   0.005315
    12  H    0.007807   0.000065  -0.003245  -0.003761   0.005315   0.618883
    13  H   -0.000276   0.000045  -0.002081   0.005427  -0.004141  -0.035887
    14  H   -0.001069  -0.001215  -0.000094   0.005013  -0.000130  -0.003475
    15  H    0.000041  -0.000189  -0.000035   0.000088   0.000625  -0.000009
    16  H   -0.000008   0.000135  -0.000082   0.000811   0.003172  -0.000022
    17  H    0.000069   0.007937  -0.000001  -0.000029  -0.000147  -0.000174
              13         14         15         16         17
     1  C   -0.036350  -0.004280  -0.000306   0.001393   0.000084
     2  C    0.367989  -0.036431  -0.004404  -0.005907   0.004890
     3  C   -0.033435   0.339021  -0.029597  -0.017884  -0.026095
     4  C   -0.007181  -0.042801   0.375166   0.374592   0.369627
     5  C   -0.000147  -0.005504  -0.002042   0.001117  -0.001167
     6  F    0.006008   0.001588   0.005250   0.000100  -0.000125
     7  F   -0.000276  -0.001069   0.000041  -0.000008   0.000069
     8  F    0.000045  -0.001215  -0.000189   0.000135   0.007937
     9  H   -0.002081  -0.000094  -0.000035  -0.000082  -0.000001
    10  H    0.005427   0.005013   0.000088   0.000811  -0.000029
    11  H   -0.004141  -0.000130   0.000625   0.003172  -0.000147
    12  H   -0.035887  -0.003475  -0.000009  -0.000022  -0.000174
    13  H    0.617792   0.006157   0.004915   0.000031  -0.000039
    14  H    0.006157   0.640478   0.005557  -0.003126  -0.002204
    15  H    0.004915   0.005557   0.574478  -0.031003  -0.029023
    16  H    0.000031  -0.003126  -0.031003   0.580964  -0.029239
    17  H   -0.000039  -0.002204  -0.029023  -0.029239   0.575171
 Mulliken charges:
               1
     1  C   -0.396635
     2  C   -0.177407
     3  C   -0.110766
     4  C   -0.408889
     5  C    0.303222
     6  F   -0.090793
     7  F   -0.093292
     8  F   -0.093370
     9  H    0.118838
    10  H    0.116078
    11  H    0.122201
    12  H    0.111220
    13  H    0.111172
    14  H    0.102516
    15  H    0.130487
    16  H    0.124955
    17  H    0.130464
 Sum of Mulliken charges =  -0.00000
 Mulliken charges with hydrogens summed into heavy atoms:
               1
     1  C   -0.039517
     2  C    0.044985
     3  C   -0.008251
     4  C   -0.022984
     5  C    0.303222
     6  F   -0.090793
     7  F   -0.093292
     8  F   -0.093370
 Electronic spatial extent (au):  <R**2>=           1042.0057
 Charge=             -0.0000 electrons
 Dipole moment (field-independent basis, Debye):
    X=             -1.9934    Y=              0.5206    Z=             -0.3203  Tot=              2.0850
 Quadrupole moment (field-independent basis, Debye-Ang):
   XX=            -48.4986   YY=            -46.9635   ZZ=            -46.7614
   XY=              0.3727   XZ=              0.0661   YZ=             -0.1528
 Traceless Quadrupole moment (field-independent basis, Debye-Ang):
   XX=             -1.0908   YY=              0.4443   ZZ=              0.6464
   XY=              0.3727   XZ=              0.0661   YZ=             -0.1528
 Octapole moment (field-independent basis, Debye-Ang**2):
  XXX=             30.0008  YYY=             -5.1472  ZZZ=              0.1178  XYY=              8.5602
  XXY=             -3.1577  XXZ=              2.1029  XZZ=              8.8587  YZZ=             -1.8861
  YYZ=              1.1711  XYZ=              0.1886
 Hexadecapole moment (field-independent basis, Debye-Ang**3):
 XXXX=           -781.2764 YYYY=           -305.0650 ZZZZ=           -138.8002 XXXY=             -5.0960
 XXXZ=             -2.7972 YYYX=             -1.5520 YYYZ=             -1.1797 ZZZX=             -1.6334
 ZZZY=              1.6648 XXYY=           -177.1313 XXZZ=           -153.4090 YYZZ=            -74.6708
 XXYZ=             -0.9080 YYXZ=             -0.4843 ZZXY=             -1.2195
 N-N= 4.341149599475D+02 E-N=-2.035786644075D+03  KE= 4.921517161720D+02
 PrsmSu:  requested number of processors reduced to:  13 ShMem   1 Linda.
 Calling FoFJK, ICntrl=      2127 FMM=F ISym2X=0 I1Cent= 0 IOpClX= 0 NMat=1 NMatS=1 NMatT=0.
 ***** Axes restored to original set *****
 -------------------------------------------------------------------
 Center     Atomic                   Forces (Hartrees/Bohr)
 Number     Number              X              Y              Z
 -------------------------------------------------------------------
      1        6          -0.002968401   -0.001745579   -0.000307085
      2        6           0.001580507    0.001028865   -0.005563671
      3        6          -0.003309978   -0.007774383    0.000127176
      4        6          -0.000296699    0.001119010    0.007785477
      5        6          -0.002761133    0.006891982   -0.000789332
      6        9          -0.000337818    0.007045001   -0.000717574
      7        9           0.000359352   -0.004108260    0.006865234
      8        9           0.000547477   -0.005140849   -0.006255323
      9        1          -0.000520047    0.001040304   -0.000193340
     10        1          -0.001807359    0.000222527    0.000024131
     11        1          -0.001265903    0.000704775   -0.000510717
     12        1           0.001922580   -0.000685777    0.001954633
     13        1           0.002099141    0.001085940    0.001357067
     14        1           0.004496450    0.001010727   -0.001085200
     15        1          -0.000025277    0.000433647   -0.000233048
     16        1           0.001636669    0.000033996   -0.001672260
     17        1           0.000650438   -0.001161925   -0.000786168
 -------------------------------------------------------------------
 Cartesian Forces:  Max     0.007785477 RMS     0.003031995

 GradGradGradGradGradGradGradGradGradGradGradGradGradGradGradGradGradGrad
 Berny optimization.
 FormGI is forming the generalized inverse of G from B-inverse, IUseBI=4.
 Internal  Forces:  Max     0.007365441 RMS     0.002287137
 Search for a local minimum.
 Step number   1 out of a maximum of   92
 All quantities printed in internal units (Hartrees-Bohrs-Radians)
 Mixed Optimization -- RFO/linear search
 Second derivative matrix not updated -- first step.
 ITU=  0
     Eigenvalues ---    0.00241   0.00363   0.00434   0.00462   0.03462
     Eigenvalues ---    0.03634   0.04616   0.04809   0.04942   0.05443
     Eigenvalues ---    0.05516   0.05532   0.05679   0.08380   0.08440
     Eigenvalues ---    0.08530   0.12280   0.16000   0.16000   0.16000
     Eigenvalues ---    0.16000   0.16000   0.16000   0.16444   0.16794
     Eigenvalues ---    0.21928   0.25000   0.25000   0.25000   0.28546
     Eigenvalues ---    0.29383   0.29884   0.30079   0.33975   0.34049
     Eigenvalues ---    0.34076   0.34250   0.34266   0.34315   0.34318
     Eigenvalues ---    0.34353   0.34391   0.54477   0.54601   0.55260
 RFO step:  Lambda=-2.64481814D-03 EMin= 2.40833644D-03
 Linear search not attempted -- first point.
 Iteration  1 RMS(Cart)=  0.06333752 RMS(Int)=  0.00129717
 Iteration  2 RMS(Cart)=  0.00186094 RMS(Int)=  0.00020283
 Iteration  3 RMS(Cart)=  0.00000062 RMS(Int)=  0.00020283
 Variable       Old X    -DE/DX   Delta X   Delta X   Delta X     New X
                                 (Linear)    (Quad)   (Total)
    R1        2.87806   0.00660   0.00000   0.02175   0.02175   2.89981
    R2        2.06797  -0.00021   0.00000  -0.00061  -0.00061   2.06735
    R3        2.06802   0.00086   0.00000   0.00249   0.00249   2.07051
    R4        2.06675  -0.00021   0.00000  -0.00060  -0.00060   2.06615
    R5        2.90961   0.00197   0.00000   0.00685   0.00685   2.91645
    R6        2.07373  -0.00125   0.00000  -0.00366  -0.00366   2.07007
    R7        2.07202  -0.00026   0.00000  -0.00077  -0.00077   2.07125
    R8        2.89211   0.00368   0.00000   0.01242   0.01242   2.90454
    R9        2.88196  -0.00210   0.00000  -0.00697  -0.00697   2.87499
   R10        2.07248  -0.00042   0.00000  -0.00123  -0.00123   2.07125
   R11        2.06910  -0.00045   0.00000  -0.00130  -0.00130   2.06781
   R12        2.06739  -0.00176   0.00000  -0.00508  -0.00508   2.06231
   R13        2.06884  -0.00097   0.00000  -0.00281  -0.00281   2.06602
   R14        2.54901  -0.00666   0.00000  -0.01200  -0.01200   2.53701
   R15        2.55488  -0.00737   0.00000  -0.01342  -0.01342   2.54146
   R16        2.55600  -0.00733   0.00000  -0.01339  -0.01339   2.54261
    A1        1.92388   0.00025   0.00000   0.00139   0.00137   1.92525
    A2        1.93553   0.00164   0.00000   0.00860   0.00857   1.94411
    A3        1.94928   0.00172   0.00000   0.01224   0.01219   1.96147
    A4        1.88890  -0.00135   0.00000  -0.01151  -0.01150   1.87740
    A5        1.87091  -0.00068   0.00000  -0.00127  -0.00131   1.86960
    A6        1.89310  -0.00178   0.00000  -0.01067  -0.01072   1.88238
    A7        1.97792   0.00373   0.00000   0.02002   0.02006   1.99798
    A8        1.88835   0.00008   0.00000   0.01029   0.01044   1.89878
    A9        1.90299   0.00081   0.00000   0.01845   0.01859   1.92158
   A10        1.90739  -0.00224   0.00000  -0.01956  -0.01982   1.88757
   A11        1.92142  -0.00284   0.00000  -0.02177  -0.02212   1.89930
   A12        1.86193   0.00032   0.00000  -0.00860  -0.00910   1.85282
   A13        1.95218   0.00361   0.00000   0.04009   0.03986   1.99204
   A14        1.92539  -0.00155   0.00000  -0.00778  -0.00821   1.91718
   A15        1.89497  -0.00019   0.00000   0.00041  -0.00078   1.89420
   A16        1.91436  -0.00067   0.00000   0.00143   0.00139   1.91575
   A17        1.89033   0.00036   0.00000   0.01607   0.01560   1.90593
   A18        1.88494  -0.00170   0.00000  -0.05319  -0.05323   1.83171
   A19        1.93925  -0.00013   0.00000  -0.00287  -0.00290   1.93635
   A20        1.94725  -0.00192   0.00000  -0.01134  -0.01136   1.93589
   A21        1.93499   0.00030   0.00000   0.00351   0.00352   1.93851
   A22        1.88736   0.00075   0.00000   0.00160   0.00155   1.88890
   A23        1.88735  -0.00020   0.00000  -0.00210  -0.00209   1.88525
   A24        1.86478   0.00129   0.00000   0.01193   0.01195   1.87673
   A25        1.94911   0.00207   0.00000   0.00571   0.00569   1.95480
   A26        1.94066   0.00382   0.00000   0.01581   0.01567   1.95633
   A27        1.93715   0.00476   0.00000   0.02062   0.02046   1.95761
   A28        1.88140  -0.00375   0.00000  -0.01817  -0.01817   1.86324
   A29        1.88034  -0.00390   0.00000  -0.01677  -0.01681   1.86353
   A30        1.87194  -0.00367   0.00000  -0.00977  -0.01003   1.86191
    D1        3.09916  -0.00040   0.00000  -0.02671  -0.02677   3.07239
    D2        0.98112  -0.00004   0.00000  -0.02215  -0.02221   0.95891
    D3       -1.03749  -0.00090   0.00000  -0.02733  -0.02726  -1.06475
    D4        1.00763   0.00007   0.00000  -0.01877  -0.01880   0.98883
    D5       -1.11040   0.00043   0.00000  -0.01421  -0.01424  -1.12464
    D6       -3.12902  -0.00042   0.00000  -0.01939  -0.01929   3.13487
    D7       -1.10617   0.00002   0.00000  -0.01953  -0.01957  -1.12575
    D8        3.05898   0.00038   0.00000  -0.01497  -0.01502   3.04396
    D9        1.04036  -0.00047   0.00000  -0.02015  -0.02007   1.02029
   D10        1.05470   0.00122   0.00000   0.08190   0.08188   1.13659
   D11       -3.09262   0.00176   0.00000   0.10597   0.10599  -2.98664
   D12       -1.03024  -0.00131   0.00000   0.03716   0.03710  -0.99314
   D13       -3.12118   0.00221   0.00000   0.09442   0.09423  -3.02696
   D14       -0.98532   0.00275   0.00000   0.11850   0.11833  -0.86699
   D15        1.07706  -0.00032   0.00000   0.04969   0.04944   1.12650
   D16       -1.08163  -0.00035   0.00000   0.05995   0.06019  -1.02144
   D17        1.05423   0.00019   0.00000   0.08403   0.08429   1.13852
   D18        3.11661  -0.00288   0.00000   0.01522   0.01541   3.13202
   D19        1.02661  -0.00097   0.00000  -0.02996  -0.02999   0.99661
   D20       -1.08105  -0.00053   0.00000  -0.02225  -0.02231  -1.10337
   D21        3.12595  -0.00110   0.00000  -0.03217  -0.03221   3.09374
   D22       -1.11554  -0.00098   0.00000  -0.04843  -0.04858  -1.16412
   D23        3.05998  -0.00054   0.00000  -0.04072  -0.04090   3.01908
   D24        0.98380  -0.00112   0.00000  -0.05064  -0.05080   0.93300
   D25        3.11428   0.00122   0.00000   0.00537   0.00560   3.11989
   D26        1.00662   0.00166   0.00000   0.01309   0.01328   1.01990
   D27       -1.06956   0.00109   0.00000   0.00316   0.00338  -1.06618
   D28       -1.07608  -0.00165   0.00000  -0.03433  -0.03405  -1.11014
   D29        1.02624  -0.00238   0.00000  -0.04269  -0.04249   0.98375
   D30        3.10854  -0.00135   0.00000  -0.03097  -0.03065   3.07789
   D31        1.08186   0.00141   0.00000   0.01200   0.01187   1.09373
   D32       -3.09900   0.00068   0.00000   0.00364   0.00343  -3.09558
   D33       -1.01670   0.00171   0.00000   0.01536   0.01527  -1.00143
   D34        3.13857   0.00048   0.00000   0.00143   0.00132   3.13989
   D35       -1.04229  -0.00025   0.00000  -0.00694  -0.00713  -1.04942
   D36        1.04002   0.00078   0.00000   0.00478   0.00472   1.04473
         Item               Value     Threshold  Converged?
 Maximum Force            0.007365     0.000450     NO 
 RMS     Force            0.002287     0.000300     NO 
 Maximum Displacement     0.173020     0.001800     NO 
 RMS     Displacement     0.063292     0.001200     NO 
 Predicted change in Energy=-1.431111D-03
 GradGradGradGradGradGradGradGradGradGradGradGradGradGradGradGradGradGrad

                          Input orientation:                          
 ---------------------------------------------------------------------
 Center     Atomic      Atomic             Coordinates (Angstroms)
 Number     Number       Type             X           Y           Z
 ---------------------------------------------------------------------
      1          6           0        0.902530    0.088179   -0.104590
      2          6           0        2.428681    0.052874    0.051464
      3          6           0        2.967593    0.860223    1.251296
      4          6           0        2.536644    0.313051    2.621442
      5          6           0        4.485464    0.936994    1.182254
      6          9           0        5.055752   -0.273532    1.290810
      7          9           0        4.912907    1.464241    0.021216
      8          9           0        5.000402    1.698315    2.164888
      9          1           0        0.601132   -0.444608   -1.011301
     10          1           0        0.532952    1.116344   -0.186893
     11          1           0        0.387101   -0.387125    0.734372
     12          1           0        2.885991    0.451099   -0.860821
     13          1           0        2.774493   -0.983538    0.138681
     14          1           0        2.627308    1.897582    1.154149
     15          1           0        2.843547   -0.730553    2.739998
     16          1           0        1.452900    0.365552    2.738639
     17          1           0        2.984132    0.891530    3.434096
 ---------------------------------------------------------------------
                    Distance matrix (angstroms):
                    1          2          3          4          5
     1  C    0.000000
     2  C    1.534516   0.000000
     3  C    2.588236   1.543320   0.000000
     4  C    3.186243   2.585369   1.537015   0.000000
     5  C    3.900496   2.508129   1.521378   2.501692   0.000000
     6  F    4.396275   2.923016   2.376419   2.908705   1.342530
     7  F    4.241757   2.857316   2.379533   3.705811   1.344881
     8  F    4.953345   3.713191   2.381041   2.863128   1.345489
     9  H    1.093996   2.171841   3.524495   4.185340   4.669961
    10  H    1.095666   2.186680   2.839271   3.542147   4.186774
    11  H    1.093361   2.197274   2.912392   2.944795   4.330181
    12  H    2.153536   1.095436   2.152924   3.502465   2.639804
    13  H    2.170715   1.096058   2.162095   2.811017   2.775772
    14  H    2.798790   2.158313   1.096059   2.161460   2.091952
    15  H    3.539710   2.830916   2.182244   1.094236   2.811258
    16  H    2.909260   2.875905   2.179721   1.091326   3.456201
    17  H    4.183388   3.529032   2.183087   1.093293   2.706816
                    6          7          8          9         10
     6  F    0.000000
     7  F    2.156880   0.000000
     8  F    2.157604   2.158187   0.000000
     9  H    5.017232   4.827132   5.833855   0.000000
    10  H    4.956922   4.398675   5.082093   1.766598   0.000000
    11  H    4.703066   4.941565   5.260987   1.759684   1.769300
    12  H    3.140457   2.431632   3.896305   2.458763   2.536439
    13  H    2.652481   3.252420   4.031442   2.517221   3.088690
    14  H    3.260330   2.587525   2.587059   3.778944   2.606732
    15  H    2.683815   4.060929   3.298814   4.379775   4.161318
    16  H    3.935121   4.534661   3.832782   3.929875   3.157330
    17  H    3.200414   3.961807   2.515379   5.217806   4.378400
                   11         12         13         14         15
    11  H    0.000000
    12  H    3.080863   0.000000
    13  H    2.531836   1.752033   0.000000
    14  H    3.227170   2.493860   3.058381   0.000000
    15  H    3.189766   3.789987   2.614502   3.077137   0.000000
    16  H    2.391556   3.875201   3.213477   2.497391   1.770691
    17  H    3.958287   4.318556   3.797313   2.517464   1.769940
                   16         17
    16  H    0.000000
    17  H    1.762096   0.000000
 Stoichiometry    C5H9F3
 Framework group  C1[X(C5H9F3)]
 Deg. of freedom    45
 Full point group                 C1      NOp   1
 Largest Abelian subgroup         C1      NOp   1
 Largest concise Abelian subgroup C1      NOp   1
                         Standard orientation:                         
 ---------------------------------------------------------------------
 Center     Atomic      Atomic             Coordinates (Angstroms)
 Number     Number       Type             X           Y           Z
 ---------------------------------------------------------------------
      1          6           0       -2.879006   -0.388855   -0.156747
      2          6           0       -1.428489   -0.644249    0.273965
      3          6           0       -0.395397    0.310360   -0.361078
      4          6           0       -0.554732    1.779662    0.061033
      5          6           0        1.013463   -0.166792   -0.041656
      6          9           0        1.269418   -0.132759    1.275810
      7          9           0        1.222191   -1.432801   -0.444594
      8          9           0        1.952907    0.588560   -0.639340
      9          1           0       -3.542102   -1.143779    0.275945
     10          1           0       -2.987135   -0.438920   -1.245914
     11          1           0       -3.245156    0.587546    0.171906
     12          1           0       -1.155795   -1.670377    0.004377
     13          1           0       -1.343127   -0.582551    1.364951
     14          1           0       -0.478131    0.237576   -1.451584
     15          1           0       -0.498643    1.882369    1.148994
     16          1           0       -1.515046    2.178340   -0.270397
     17          1           0        0.229462    2.402040   -0.378256
 ---------------------------------------------------------------------
 Rotational constants (GHZ):           3.0863074           1.3989550           1.2031754
 Standard basis: 6-31G(2df,p) (6D, 7F)
 There are   293 symmetry adapted cartesian basis functions of A   symmetry.
 There are   269 symmetry adapted basis functions of A   symmetry.
   269 basis functions,   415 primitive gaussians,   293 cartesian basis functions
    33 alpha electrons       33 beta electrons
       nuclear repulsion energy       434.0190382388 Hartrees.
 NAtoms=   17 NActive=   17 NUniq=   17 SFac= 1.00D+00 NAtFMM=   60 NAOKFM=F Big=F
 Integral buffers will be    131072 words long.
 Raffenetti 2 integral format.
 Two-electron integral symmetry is turned on.
 One-electron integrals computed using PRISM.
 PrsmSu:  requested number of processors reduced to:  13 ShMem   1 Linda.
 NBasis=   269 RedAO= T EigKep=  6.77D-04  NBF=   269
 NBsUse=   269 1.00D-06 EigRej= -1.00D+00 NBFU=   269
 Initial guess from the checkpoint file:  "CCCqCrCqFrqFrF.chk"
 B after Tr=    -0.000000    0.000000   -0.000000
         Rot=    0.999918    0.008426   -0.002690    0.009305 Ang=   1.47 deg.
 ExpMin= 1.61D-01 ExpMax= 7.00D+03 ExpMxC= 1.05D+03 IAcc=2 IRadAn=         4 AccDes= 0.00D+00
 Harris functional with IExCor=  402 and IRadAn=       4 diagonalized for initial guess.
 HarFok:  IExCor=  402 AccDes= 0.00D+00 IRadAn=         4 IDoV= 1 UseB2=F ITyADJ=14
 ICtDFT=  3500011 ScaDFX=  1.000000  1.000000  1.000000  1.000000
 FoFCou: FMM=F IPFlag=           0 FMFlag=      100000 FMFlg1=           0
         NFxFlg=           0 DoJE=T BraDBF=F KetDBF=T FulRan=T
         wScrn=  0.000000 ICntrl=       500 IOpCl=  0 I1Cent=   200000004 NGrid=           0
         NMat0=    1 NMatS0=      1 NMatT0=    0 NMatD0=    1 NMtDS0=    0 NMtDT0=    0
 Petite list used in FoFCou.
 Requested convergence on RMS density matrix=1.00D-08 within 128 cycles.
 Requested convergence on MAX density matrix=1.00D-06.
 Requested convergence on             energy=1.00D-06.
 No special actions if energy rises.
 Integral accuracy reduced to 1.0D-05 until final iterations.
 EnCoef did    10 forward-backward iterations
 Initial convergence to 1.0D-05 achieved.  Increase integral accuracy.
 SCF Done:  E(RB3LYP) =  -495.529577084     A.U. after   10 cycles
            NFock= 10  Conv=0.37D-08     -V/T= 2.0068
 PrsmSu:  requested number of processors reduced to:  13 ShMem   1 Linda.
 Calling FoFJK, ICntrl=      2127 FMM=F ISym2X=0 I1Cent= 0 IOpClX= 0 NMat=1 NMatS=1 NMatT=0.
 ***** Axes restored to original set *****
 -------------------------------------------------------------------
 Center     Atomic                   Forces (Hartrees/Bohr)
 Number     Number              X              Y              Z
 -------------------------------------------------------------------
      1        6           0.001539136   -0.000200305    0.000653104
      2        6          -0.000591005    0.000536195   -0.000659087
      3        6          -0.001044620   -0.000664264    0.000219592
      4        6           0.000105994    0.000418393   -0.000034121
      5        6           0.003740055    0.000900645   -0.000397552
      6        9          -0.000077305   -0.003018242    0.000421750
      7        9          -0.001183061    0.001006067   -0.000481578
      8        9          -0.001851889    0.000498402    0.000179479
      9        1           0.000261333    0.000113564   -0.000176953
     10        1           0.000234713    0.000071801    0.000142690
     11        1           0.000141201    0.000093268    0.000902201
     12        1          -0.000023049   -0.000087985    0.000518550
     13        1          -0.000427332   -0.000326525    0.000412721
     14        1          -0.000510228    0.000884652    0.000325583
     15        1           0.000083060   -0.000005264   -0.000416705
     16        1          -0.000715052   -0.000216782   -0.000852481
     17        1           0.000318050   -0.000003619   -0.000757191
 -------------------------------------------------------------------
 Cartesian Forces:  Max     0.003740055 RMS     0.000900339

 GradGradGradGradGradGradGradGradGradGradGradGradGradGradGradGradGradGrad
 Berny optimization.
 Using GEDIIS/GDIIS optimizer.
 FormGI is forming the generalized inverse of G from B-inverse, IUseBI=4.
 Internal  Forces:  Max     0.002723317 RMS     0.000894867
 Search for a local minimum.
 Step number   2 out of a maximum of   92
 All quantities printed in internal units (Hartrees-Bohrs-Radians)
 Mixed Optimization -- En-DIIS/RFO-DIIS
 Update second derivatives using D2CorX and points    1    2
 DE= -9.84D-04 DEPred=-1.43D-03 R= 6.88D-01
 TightC=F SS=  1.41D+00  RLast= 2.88D-01 DXNew= 5.0454D-01 8.6509D-01
 Trust test= 6.88D-01 RLast= 2.88D-01 DXMaxT set to 5.05D-01
 ITU=  1  0
 Use linear search instead of GDIIS.
     Eigenvalues ---    0.00259   0.00368   0.00436   0.00467   0.03322
     Eigenvalues ---    0.03408   0.04453   0.04862   0.05283   0.05424
     Eigenvalues ---    0.05512   0.05522   0.05624   0.08227   0.08296
     Eigenvalues ---    0.08478   0.12443   0.15701   0.16000   0.16000
     Eigenvalues ---    0.16000   0.16000   0.16081   0.16901   0.17310
     Eigenvalues ---    0.22358   0.24988   0.25000   0.26814   0.28720
     Eigenvalues ---    0.29579   0.29900   0.32092   0.33929   0.34073
     Eigenvalues ---    0.34141   0.34230   0.34253   0.34313   0.34318
     Eigenvalues ---    0.34372   0.34702   0.53508   0.54576   0.56437
 RFO step:  Lambda=-1.21456220D-04 EMin= 2.58532459D-03
 Quartic linear search produced a step of -0.19743.
 Iteration  1 RMS(Cart)=  0.01500422 RMS(Int)=  0.00009092
 Iteration  2 RMS(Cart)=  0.00010135 RMS(Int)=  0.00003891
 Iteration  3 RMS(Cart)=  0.00000000 RMS(Int)=  0.00003891
 Variable       Old X    -DE/DX   Delta X   Delta X   Delta X     New X
                                 (Linear)    (Quad)   (Total)
    R1        2.89981  -0.00232  -0.00429  -0.00096  -0.00526   2.89456
    R2        2.06735   0.00002   0.00012  -0.00010   0.00002   2.06737
    R3        2.07051  -0.00002  -0.00049   0.00054   0.00005   2.07056
    R4        2.06615   0.00058   0.00012   0.00122   0.00134   2.06749
    R5        2.91645  -0.00189  -0.00135  -0.00368  -0.00503   2.91142
    R6        2.07007  -0.00047   0.00072  -0.00199  -0.00127   2.06880
    R7        2.07125   0.00021   0.00015   0.00030   0.00045   2.07170
    R8        2.90454  -0.00185  -0.00245  -0.00206  -0.00451   2.90002
    R9        2.87499   0.00061   0.00138  -0.00004   0.00134   2.87632
   R10        2.07125   0.00097   0.00024   0.00198   0.00223   2.07348
   R11        2.06781  -0.00002   0.00026  -0.00035  -0.00010   2.06771
   R12        2.06231   0.00061   0.00100   0.00020   0.00121   2.06351
   R13        2.06602  -0.00043   0.00055  -0.00169  -0.00114   2.06489
   R14        2.53701   0.00272   0.00237   0.00108   0.00345   2.54046
   R15        2.54146   0.00043   0.00265  -0.00258   0.00007   2.54153
   R16        2.54261  -0.00030   0.00264  -0.00365  -0.00100   2.54160
    A1        1.92525  -0.00011  -0.00027   0.00077   0.00050   1.92575
    A2        1.94411  -0.00028  -0.00169  -0.00025  -0.00194   1.94217
    A3        1.96147  -0.00058  -0.00241  -0.00011  -0.00251   1.95896
    A4        1.87740   0.00023   0.00227  -0.00141   0.00086   1.87826
    A5        1.86960   0.00058   0.00026   0.00423   0.00450   1.87409
    A6        1.88238   0.00023   0.00212  -0.00320  -0.00108   1.88130
    A7        1.99798  -0.00261  -0.00396  -0.00640  -0.01039   1.98760
    A8        1.89878   0.00108  -0.00206   0.00964   0.00757   1.90636
    A9        1.92158   0.00039  -0.00367   0.00100  -0.00276   1.91882
   A10        1.88757   0.00071   0.00391  -0.00008   0.00391   1.89148
   A11        1.89930   0.00082   0.00437  -0.00590  -0.00152   1.89778
   A12        1.85282  -0.00022   0.00180   0.00242   0.00432   1.85715
   A13        1.99204  -0.00150  -0.00787   0.00039  -0.00743   1.98461
   A14        1.91718   0.00071   0.00162   0.00182   0.00352   1.92071
   A15        1.89420   0.00045   0.00015   0.00296   0.00333   1.89753
   A16        1.91575   0.00060  -0.00027   0.00239   0.00213   1.91788
   A17        1.90593   0.00010  -0.00308   0.00130  -0.00169   1.90424
   A18        1.83171  -0.00026   0.01051  -0.00974   0.00077   1.83248
   A19        1.93635  -0.00037   0.00057  -0.00341  -0.00284   1.93351
   A20        1.93589  -0.00083   0.00224  -0.00686  -0.00462   1.93127
   A21        1.93851  -0.00058  -0.00070  -0.00121  -0.00191   1.93660
   A22        1.88890   0.00041  -0.00031   0.00083   0.00052   1.88942
   A23        1.88525   0.00050   0.00041   0.00199   0.00240   1.88766
   A24        1.87673   0.00096  -0.00236   0.00929   0.00693   1.88366
   A25        1.95480  -0.00122  -0.00112  -0.00106  -0.00218   1.95262
   A26        1.95633  -0.00149  -0.00309  -0.00120  -0.00429   1.95204
   A27        1.95761  -0.00262  -0.00404  -0.00486  -0.00889   1.94872
   A28        1.86324   0.00197   0.00359   0.00440   0.00799   1.87123
   A29        1.86353   0.00216   0.00332   0.00319   0.00650   1.87004
   A30        1.86191   0.00168   0.00198   0.00019   0.00218   1.86409
    D1        3.07239   0.00012   0.00528   0.00330   0.00858   3.08097
    D2        0.95891   0.00016   0.00438   0.00060   0.00501   0.96392
    D3       -1.06475  -0.00041   0.00538  -0.00838  -0.00300  -1.06776
    D4        0.98883   0.00008   0.00371   0.00473   0.00843   0.99726
    D5       -1.12464   0.00013   0.00281   0.00203   0.00485  -1.11979
    D6        3.13487  -0.00044   0.00381  -0.00696  -0.00315   3.13172
    D7       -1.12575   0.00039   0.00386   0.00911   0.01296  -1.11278
    D8        3.04396   0.00044   0.00296   0.00641   0.00939   3.05335
    D9        1.02029  -0.00013   0.00396  -0.00258   0.00138   1.02167
   D10        1.13659  -0.00060  -0.01617   0.00602  -0.01014   1.12645
   D11       -2.98664  -0.00035  -0.02092   0.01088  -0.01005  -2.99668
   D12       -0.99314  -0.00004  -0.00732   0.00189  -0.00541  -0.99855
   D13       -3.02696  -0.00042  -0.01860   0.01409  -0.00447  -3.03143
   D14       -0.86699  -0.00017  -0.02336   0.01895  -0.00438  -0.87138
   D15        1.12650   0.00014  -0.00976   0.00996   0.00026   1.12676
   D16       -1.02144   0.00012  -0.01188   0.01383   0.00190  -1.01954
   D17        1.13852   0.00037  -0.01664   0.01869   0.00199   1.14051
   D18        3.13202   0.00068  -0.00304   0.00971   0.00662   3.13864
   D19        0.99661   0.00019   0.00592   0.00333   0.00925   1.00587
   D20       -1.10337   0.00047   0.00441   0.00913   0.01354  -1.08983
   D21        3.09374   0.00019   0.00636   0.00276   0.00912   3.10286
   D22       -1.16412  -0.00012   0.00959  -0.00122   0.00840  -1.15572
   D23        3.01908   0.00016   0.00807   0.00458   0.01268   3.03177
   D24        0.93300  -0.00012   0.01003  -0.00179   0.00827   0.94128
   D25        3.11989  -0.00019  -0.00111   0.00839   0.00725   3.12713
   D26        1.01990   0.00009  -0.00262   0.01419   0.01153   1.03144
   D27       -1.06618  -0.00019  -0.00067   0.00782   0.00712  -1.05906
   D28       -1.11014   0.00045   0.00672   0.00632   0.01299  -1.09714
   D29        0.98375   0.00109   0.00839   0.01040   0.01874   1.00248
   D30        3.07789   0.00036   0.00605   0.00637   0.01237   3.09026
   D31        1.09373  -0.00054  -0.00234   0.00982   0.00750   1.10123
   D32       -3.09558   0.00010  -0.00068   0.01389   0.01325  -3.08233
   D33       -1.00143  -0.00062  -0.00301   0.00987   0.00688  -0.99455
   D34        3.13989  -0.00027  -0.00026   0.00722   0.00699  -3.13631
   D35       -1.04942   0.00037   0.00141   0.01130   0.01273  -1.03669
   D36        1.04473  -0.00036  -0.00093   0.00727   0.00636   1.05109
         Item               Value     Threshold  Converged?
 Maximum Force            0.002723     0.000450     NO 
 RMS     Force            0.000895     0.000300     NO 
 Maximum Displacement     0.057775     0.001800     NO 
 RMS     Displacement     0.015028     0.001200     NO 
 Predicted change in Energy=-1.212941D-04
 GradGradGradGradGradGradGradGradGradGradGradGradGradGradGradGradGradGrad

                          Input orientation:                          
 ---------------------------------------------------------------------
 Center     Atomic      Atomic             Coordinates (Angstroms)
 Number     Number       Type             X           Y           Z
 ---------------------------------------------------------------------
      1          6           0        0.907893    0.089067   -0.090201
      2          6           0        2.432926    0.051990    0.048022
      3          6           0        2.970657    0.860909    1.243900
      4          6           0        2.529893    0.312769    2.607845
      5          6           0        4.489647    0.935915    1.182371
      6          9           0        5.055654   -0.279366    1.282446
      7          9           0        4.917492    1.480517    0.029479
      8          9           0        4.990041    1.689524    2.177657
      9          1           0        0.594342   -0.450263   -0.988900
     10          1           0        0.541334    1.118042   -0.176161
     11          1           0        0.403418   -0.375382    0.762312
     12          1           0        2.887504    0.445253   -0.866969
     13          1           0        2.774675   -0.985394    0.142430
     14          1           0        2.631011    1.899799    1.147583
     15          1           0        2.842556   -0.728997    2.727035
     16          1           0        1.443456    0.357448    2.708066
     17          1           0        2.967029    0.894801    3.422784
 ---------------------------------------------------------------------
                    Distance matrix (angstroms):
                    1          2          3          4          5
     1  C    0.000000
     2  C    1.531733   0.000000
     3  C    2.574988   1.540659   0.000000
     4  C    3.156007   2.574898   1.534626   0.000000
     5  C    3.894298   2.509617   1.522085   2.502184   0.000000
     6  F    4.384498   2.917585   2.376746   2.913206   1.344354
     7  F    4.245862   2.866026   2.376742   3.703004   1.344918
     8  F    4.936454   3.708868   2.374114   2.851814   1.344959
     9  H    1.094007   2.169759   3.514461   4.155135   4.670044
    10  H    1.095694   2.182852   2.825650   3.514757   4.179468
    11  H    1.094069   2.193572   2.889820   2.898523   4.311985
    12  H    2.156177   1.094763   2.153010   3.495678   2.647150
    13  H    2.166439   1.096298   2.158814   2.797037   2.777415
    14  H    2.789265   2.159322   1.097237   2.158993   2.093994
    15  H    3.514110   2.820434   2.178050   1.094185   2.805499
    16  H    2.861670   2.854504   2.174764   1.091964   3.455669
    17  H    4.150941   3.519178   2.179151   1.092692   2.709152
                    6          7          8          9         10
     6  F    0.000000
     7  F    2.164765   0.000000
     8  F    2.163847   2.159541   0.000000
     9  H    5.009144   4.842999   5.824770   0.000000
    10  H    4.945641   4.395956   5.065376   1.767183   0.000000
    11  H    4.682206   4.935410   5.225337   1.763180   1.769200
    12  H    3.137822   2.448722   3.903667   2.464835   2.536607
    13  H    2.645935   3.268813   4.025565   2.513986   3.084438
    14  H    3.262797   2.579526   2.582691   3.772979   2.594261
    15  H    2.680821   4.057601   3.280663   4.352049   4.139532
    16  H    3.935212   4.528249   3.825444   3.878266   3.116262
    17  H    3.212797   3.957511   2.504896   5.186694   4.345829
                   11         12         13         14         15
    11  H    0.000000
    12  H    3.081993   0.000000
    13  H    2.525713   1.754527   0.000000
    14  H    3.207343   2.497982   3.058645   0.000000
    15  H    3.151916   3.781236   2.598178   3.074083   0.000000
    16  H    2.324796   3.856664   3.187139   2.494842   1.771498
    17  H    3.906863   4.313977   3.785875   2.509874   1.770955
                   16         17
    16  H    0.000000
    17  H    1.766591   0.000000
 Stoichiometry    C5H9F3
 Framework group  C1[X(C5H9F3)]
 Deg. of freedom    45
 Full point group                 C1      NOp   1
 Largest Abelian subgroup         C1      NOp   1
 Largest concise Abelian subgroup C1      NOp   1
                         Standard orientation:                         
 ---------------------------------------------------------------------
 Center     Atomic      Atomic             Coordinates (Angstroms)
 Number     Number       Type             X           Y           Z
 ---------------------------------------------------------------------
      1          6           0       -2.868648   -0.387712   -0.157867
      2          6           0       -1.423736   -0.654971    0.274578
      3          6           0       -0.395667    0.300613   -0.360686
      4          6           0       -0.571705    1.765506    0.061423
      5          6           0        1.017441   -0.164632   -0.039103
      6          9           0        1.265154   -0.137914    1.281961
      7          9           0        1.238011   -1.422792   -0.460037
      8          9           0        1.942358    0.611426   -0.631705
      9          1           0       -3.539898   -1.134250    0.276822
     10          1           0       -2.974052   -0.441268   -1.247163
     11          1           0       -3.221989    0.596371    0.164184
     12          1           0       -1.151624   -1.681319    0.007988
     13          1           0       -1.341191   -0.586182    1.365598
     14          1           0       -0.476399    0.229333   -1.452625
     15          1           0       -0.510537    1.866111    1.149255
     16          1           0       -1.542418    2.145895   -0.263242
     17          1           0        0.202284    2.396004   -0.382861
 ---------------------------------------------------------------------
 Rotational constants (GHZ):           3.0924730           1.4012532           1.2080562
 Standard basis: 6-31G(2df,p) (6D, 7F)
 There are   293 symmetry adapted cartesian basis functions of A   symmetry.
 There are   269 symmetry adapted basis functions of A   symmetry.
   269 basis functions,   415 primitive gaussians,   293 cartesian basis functions
    33 alpha electrons       33 beta electrons
       nuclear repulsion energy       434.3139555331 Hartrees.
 NAtoms=   17 NActive=   17 NUniq=   17 SFac= 1.00D+00 NAtFMM=   60 NAOKFM=F Big=F
 Integral buffers will be    131072 words long.
 Raffenetti 2 integral format.
 Two-electron integral symmetry is turned on.
 One-electron integrals computed using PRISM.
 PrsmSu:  requested number of processors reduced to:  13 ShMem   1 Linda.
 NBasis=   269 RedAO= T EigKep=  6.72D-04  NBF=   269
 NBsUse=   269 1.00D-06 EigRej= -1.00D+00 NBFU=   269
 Initial guess from the checkpoint file:  "CCCqCrCqFrqFrF.chk"
 B after Tr=     0.000000    0.000000    0.000000
         Rot=    0.999993   -0.002464    0.000348   -0.002692 Ang=  -0.42 deg.
 ExpMin= 1.61D-01 ExpMax= 7.00D+03 ExpMxC= 1.05D+03 IAcc=2 IRadAn=         4 AccDes= 0.00D+00
 Harris functional with IExCor=  402 and IRadAn=       4 diagonalized for initial guess.
 HarFok:  IExCor=  402 AccDes= 0.00D+00 IRadAn=         4 IDoV= 1 UseB2=F ITyADJ=14
 ICtDFT=  3500011 ScaDFX=  1.000000  1.000000  1.000000  1.000000
 FoFCou: FMM=F IPFlag=           0 FMFlag=      100000 FMFlg1=           0
         NFxFlg=           0 DoJE=T BraDBF=F KetDBF=T FulRan=T
         wScrn=  0.000000 ICntrl=       500 IOpCl=  0 I1Cent=   200000004 NGrid=           0
         NMat0=    1 NMatS0=      1 NMatT0=    0 NMatD0=    1 NMtDS0=    0 NMtDT0=    0
 Petite list used in FoFCou.
 Requested convergence on RMS density matrix=1.00D-08 within 128 cycles.
 Requested convergence on MAX density matrix=1.00D-06.
 Requested convergence on             energy=1.00D-06.
 No special actions if energy rises.
 Integral accuracy reduced to 1.0D-05 until final iterations.
 Initial convergence to 1.0D-05 achieved.  Increase integral accuracy.
 SCF Done:  E(RB3LYP) =  -495.529705175     A.U. after    9 cycles
            NFock=  9  Conv=0.29D-08     -V/T= 2.0068
 PrsmSu:  requested number of processors reduced to:  13 ShMem   1 Linda.
 Calling FoFJK, ICntrl=      2127 FMM=F ISym2X=0 I1Cent= 0 IOpClX= 0 NMat=1 NMatS=1 NMatT=0.
 ***** Axes restored to original set *****
 -------------------------------------------------------------------
 Center     Atomic                   Forces (Hartrees/Bohr)
 Number     Number              X              Y              Z
 -------------------------------------------------------------------
      1        6           0.000363175   -0.000106878   -0.000200456
      2        6          -0.000318655   -0.000038346    0.000140641
      3        6          -0.000292182   -0.000085706   -0.000053699
      4        6          -0.000166651    0.000198624    0.000248089
      5        6           0.000310243    0.001010789    0.000093138
      6        9           0.000354865   -0.000294034   -0.000137092
      7        9          -0.000078373   -0.000375879    0.000125464
      8        9           0.000050767   -0.000210066   -0.000041286
      9        1          -0.000119980    0.000053636    0.000022792
     10        1           0.000016503    0.000056112    0.000021836
     11        1           0.000171075    0.000035768    0.000023735
     12        1          -0.000090039   -0.000056139    0.000020373
     13        1          -0.000081841   -0.000122414    0.000016017
     14        1          -0.000111358    0.000205037    0.000052972
     15        1           0.000021429   -0.000093758   -0.000062324
     16        1          -0.000000483   -0.000100229   -0.000090432
     17        1          -0.000028494   -0.000076515   -0.000179767
 -------------------------------------------------------------------
 Cartesian Forces:  Max     0.001010789 RMS     0.000213010

 GradGradGradGradGradGradGradGradGradGradGradGradGradGradGradGradGradGrad
 Berny optimization.
 Using GEDIIS/GDIIS optimizer.
 FormGI is forming the generalized inverse of G from B-inverse, IUseBI=4.
 Internal  Forces:  Max     0.000641401 RMS     0.000147957
 Search for a local minimum.
 Step number   3 out of a maximum of   92
 All quantities printed in internal units (Hartrees-Bohrs-Radians)
 Mixed Optimization -- En-DIIS/RFO-DIIS
 Swapping is turned off.
 Update second derivatives using D2CorX and points    1    2    3
 DE= -1.28D-04 DEPred=-1.21D-04 R= 1.06D+00
 TightC=F SS=  1.41D+00  RLast= 6.01D-02 DXNew= 8.4853D-01 1.8034D-01
 Trust test= 1.06D+00 RLast= 6.01D-02 DXMaxT set to 5.05D-01
 ITU=  1  1  0
     Eigenvalues ---    0.00257   0.00364   0.00435   0.00466   0.03367
     Eigenvalues ---    0.03461   0.04472   0.04829   0.05243   0.05362
     Eigenvalues ---    0.05522   0.05545   0.05634   0.08305   0.08393
     Eigenvalues ---    0.08708   0.12376   0.15449   0.15973   0.16000
     Eigenvalues ---    0.16000   0.16000   0.16125   0.16465   0.17244
     Eigenvalues ---    0.21997   0.24965   0.24997   0.27403   0.28934
     Eigenvalues ---    0.29553   0.29866   0.32453   0.33764   0.34006
     Eigenvalues ---    0.34077   0.34222   0.34255   0.34313   0.34318
     Eigenvalues ---    0.34365   0.34951   0.53218   0.54609   0.55848
 En-DIIS/RFO-DIIS/Sim-DIIS IScMMF=       -3 using points:     3    2
 RFO step:  Lambda=-1.53176545D-05.
 DidBck=F Rises=F RFO-DIIS coefs:    1.09280   -0.09280
 Iteration  1 RMS(Cart)=  0.00930560 RMS(Int)=  0.00003771
 Iteration  2 RMS(Cart)=  0.00005219 RMS(Int)=  0.00000154
 Iteration  3 RMS(Cart)=  0.00000000 RMS(Int)=  0.00000154
 Variable       Old X    -DE/DX   Delta X   Delta X   Delta X     New X
                                 (Linear)    (Quad)   (Total)
    R1        2.89456  -0.00042  -0.00049  -0.00125  -0.00174   2.89282
    R2        2.06737  -0.00001   0.00000  -0.00003  -0.00003   2.06734
    R3        2.07056   0.00005   0.00000   0.00014   0.00014   2.07070
    R4        2.06749  -0.00008   0.00012  -0.00028  -0.00016   2.06733
    R5        2.91142   0.00008  -0.00047   0.00048   0.00002   2.91144
    R6        2.06880  -0.00007  -0.00012  -0.00018  -0.00030   2.06850
    R7        2.07170   0.00009   0.00004   0.00026   0.00031   2.07201
    R8        2.90002   0.00000  -0.00042   0.00017  -0.00025   2.89977
    R9        2.87632   0.00064   0.00012   0.00219   0.00231   2.87864
   R10        2.07348   0.00022   0.00021   0.00060   0.00081   2.07429
   R11        2.06771   0.00009  -0.00001   0.00027   0.00026   2.06797
   R12        2.06351  -0.00001   0.00011  -0.00008   0.00003   2.06355
   R13        2.06489  -0.00019  -0.00011  -0.00052  -0.00063   2.06426
   R14        2.54046   0.00041   0.00032   0.00064   0.00096   2.54142
   R15        2.54153  -0.00029   0.00001  -0.00054  -0.00054   2.54099
   R16        2.54160  -0.00013  -0.00009  -0.00021  -0.00030   2.54131
    A1        1.92575   0.00025   0.00005   0.00202   0.00207   1.92783
    A2        1.94217  -0.00005  -0.00018  -0.00045  -0.00063   1.94154
    A3        1.95896  -0.00025  -0.00023  -0.00180  -0.00203   1.95693
    A4        1.87826  -0.00006   0.00008   0.00005   0.00013   1.87839
    A5        1.87409   0.00003   0.00042   0.00029   0.00071   1.87481
    A6        1.88130   0.00009  -0.00010  -0.00007  -0.00017   1.88113
    A7        1.98760  -0.00019  -0.00096  -0.00065  -0.00162   1.98597
    A8        1.90636  -0.00002   0.00070  -0.00108  -0.00037   1.90599
    A9        1.91882   0.00002  -0.00026  -0.00009  -0.00035   1.91847
   A10        1.89148   0.00011   0.00036   0.00061   0.00097   1.89245
   A11        1.89778   0.00010  -0.00014   0.00094   0.00079   1.89857
   A12        1.85715  -0.00001   0.00040   0.00036   0.00076   1.85791
   A13        1.98461  -0.00029  -0.00069  -0.00166  -0.00235   1.98225
   A14        1.92071   0.00010   0.00033   0.00074   0.00107   1.92177
   A15        1.89753   0.00008   0.00031   0.00006   0.00037   1.89790
   A16        1.91788   0.00019   0.00020   0.00130   0.00150   1.91938
   A17        1.90424   0.00002  -0.00016  -0.00036  -0.00051   1.90373
   A18        1.83248  -0.00009   0.00007   0.00003   0.00010   1.83258
   A19        1.93351  -0.00009  -0.00026  -0.00073  -0.00099   1.93252
   A20        1.93127  -0.00004  -0.00043  -0.00006  -0.00049   1.93078
   A21        1.93660  -0.00004  -0.00018   0.00007  -0.00011   1.93649
   A22        1.88942   0.00001   0.00005  -0.00046  -0.00042   1.88901
   A23        1.88766   0.00007   0.00022   0.00037   0.00059   1.88824
   A24        1.88366   0.00009   0.00064   0.00085   0.00150   1.88516
   A25        1.95262   0.00027  -0.00020   0.00073   0.00053   1.95314
   A26        1.95204  -0.00009  -0.00040  -0.00037  -0.00077   1.95127
   A27        1.94872   0.00018  -0.00083   0.00173   0.00090   1.94962
   A28        1.87123  -0.00028   0.00074  -0.00262  -0.00188   1.86935
   A29        1.87004  -0.00020   0.00060  -0.00079  -0.00019   1.86985
   A30        1.86409   0.00009   0.00020   0.00117   0.00137   1.86546
    D1        3.08097   0.00000   0.00080  -0.00078   0.00001   3.08099
    D2        0.96392  -0.00000   0.00046  -0.00033   0.00013   0.96405
    D3       -1.06776   0.00001  -0.00028  -0.00009  -0.00037  -1.06813
    D4        0.99726  -0.00006   0.00078  -0.00189  -0.00110   0.99616
    D5       -1.11979  -0.00006   0.00045  -0.00144  -0.00098  -1.12077
    D6        3.13172  -0.00004  -0.00029  -0.00120  -0.00149   3.13023
    D7       -1.11278   0.00004   0.00120  -0.00022   0.00098  -1.11180
    D8        3.05335   0.00004   0.00087   0.00023   0.00110   3.05445
    D9        1.02167   0.00005   0.00013   0.00047   0.00060   1.02227
   D10        1.12645  -0.00003  -0.00094   0.01511   0.01417   1.14062
   D11       -2.99668   0.00009  -0.00093   0.01617   0.01524  -2.98144
   D12       -0.99855   0.00008  -0.00050   0.01664   0.01614  -0.98241
   D13       -3.03143  -0.00010  -0.00042   0.01374   0.01333  -3.01810
   D14       -0.87138   0.00002  -0.00041   0.01480   0.01439  -0.85698
   D15        1.12676   0.00001   0.00002   0.01527   0.01529   1.14205
   D16       -1.01954   0.00000   0.00018   0.01498   0.01516  -1.00438
   D17        1.14051   0.00012   0.00018   0.01604   0.01623   1.15674
   D18        3.13864   0.00011   0.00061   0.01651   0.01713  -3.12741
   D19        1.00587   0.00004   0.00086   0.00423   0.00509   1.01095
   D20       -1.08983   0.00011   0.00126   0.00532   0.00658  -1.08325
   D21        3.10286   0.00004   0.00085   0.00425   0.00510   3.10796
   D22       -1.15572  -0.00003   0.00078   0.00347   0.00425  -1.15147
   D23        3.03177   0.00004   0.00118   0.00456   0.00574   3.03751
   D24        0.94128  -0.00003   0.00077   0.00349   0.00426   0.94553
   D25        3.12713  -0.00004   0.00067   0.00292   0.00360   3.13073
   D26        1.03144   0.00003   0.00107   0.00402   0.00509   1.03653
   D27       -1.05906  -0.00004   0.00066   0.00294   0.00361  -1.05545
   D28       -1.09714   0.00018   0.00121   0.00215   0.00336  -1.09378
   D29        1.00248  -0.00005   0.00174  -0.00096   0.00077   1.00325
   D30        3.09026   0.00013   0.00115   0.00146   0.00261   3.09287
   D31        1.10123   0.00002   0.00070   0.00148   0.00217   1.10340
   D32       -3.08233  -0.00021   0.00123  -0.00164  -0.00041  -3.08274
   D33       -0.99455  -0.00003   0.00064   0.00079   0.00143  -0.99312
   D34       -3.13631   0.00009   0.00065   0.00171   0.00236  -3.13395
   D35       -1.03669  -0.00014   0.00118  -0.00141  -0.00023  -1.03691
   D36        1.05109   0.00004   0.00059   0.00102   0.00161   1.05270
         Item               Value     Threshold  Converged?
 Maximum Force            0.000641     0.000450     NO 
 RMS     Force            0.000148     0.000300     YES
 Maximum Displacement     0.030716     0.001800     NO 
 RMS     Displacement     0.009304     0.001200     NO 
 Predicted change in Energy=-7.675783D-06
 GradGradGradGradGradGradGradGradGradGradGradGradGradGradGradGradGradGrad

                          Input orientation:                          
 ---------------------------------------------------------------------
 Center     Atomic      Atomic             Coordinates (Angstroms)
 Number     Number       Type             X           Y           Z
 ---------------------------------------------------------------------
      1          6           0        0.908935    0.095179   -0.093121
      2          6           0        2.432096    0.045940    0.051584
      3          6           0        2.969513    0.858365    1.245235
      4          6           0        2.531553    0.308090    2.609076
      5          6           0        4.489244    0.940613    1.181027
      6          9           0        5.061904   -0.272429    1.277147
      7          9           0        4.911445    1.486989    0.027225
      8          9           0        4.988996    1.694638    2.176107
      9          1           0        0.592297   -0.446566   -0.989262
     10          1           0        0.552104    1.127063   -0.185842
     11          1           0        0.398984   -0.359128    0.761489
[...]
   yy         0.522584D+02      0.774390D+01      0.861625D+01
   zx        -0.255767D+01     -0.379008D+00     -0.421703D+00
   zy        -0.188024D+01     -0.278624D+00     -0.310010D+00
   zz         0.604143D+02      0.895248D+01      0.996098D+01

 ----------------------------------------------------------------------
 1\1\GINC-LEWIS4-R630-HPC4-NODE224\Freq\RB3LYP\6-31G(2df,p)\C5H9F3\LINJ
 IAN\27-May-2023\0\\#N Geom=AllCheck Guess=TCheck SCRF=Check GenChk RB3
 LYP/6-31G(2df,p) Freq\\Title Card Required\\0,1\C,0.908613564,0.098968
 1109,-0.0959429159\C,2.4313223508,0.0426693977,0.0536897943\C,2.968772
 6042,0.8570574642,1.2462659825\C,2.5342618453,0.3062551181,2.611184356
 5\C,4.48798996,0.94221609,1.1798797557\F,5.0623750788,-0.2709303965,1.
 2693063839\F,4.9072898489,1.4949151376,0.028223153\F,4.9882962802,1.69
 15236639,2.1777020189\H,0.5912701143,-0.4468913471,-0.9892863904\H,0.5
 576326409,1.1321218083,-0.196514176\H,0.3932489384,-0.3469510026,0.759
 8847916\H,2.8969957041,0.4207494212,-0.862020353\H,2.7584780896,-0.998
 2617413,0.1610113415\H,2.6218605491,1.8939369791,1.1501236499\H,2.8662
 637438,-0.7292870859,2.7337735535\H,1.4468110114,0.3298286433,2.707184
 8034\H,2.958047676,0.8987097392,3.4252342505\\Version=ES64L-G16RevA.03
 \State=1-A\HF=-495.5297145\RMSD=1.528e-09\RMSF=7.930e-06\ZeroPoint=0.1
 373211\Thermal=0.1462147\Dipole=-0.8235792,-0.0962748,0.0043893\Dipole
 Deriv=0.0617214,-0.0036817,-0.0019153,-0.0416816,0.1047553,-0.0343137,
 -0.0465429,-0.0217402,0.0799048,0.0991507,-0.0132917,0.0318021,0.01928
 37,0.1239952,0.0171981,0.0508905,-0.0026581,0.0895796,-0.1294068,-0.01
 7348,-0.0221743,-0.0007573,0.0833982,-0.0123244,0.0139186,-0.012535,0.
 0913079,0.0368832,-0.0281173,0.0138037,-0.0186543,0.0808163,-0.0268624
 ,-0.0087848,0.0067028,0.0000465,1.5440678,0.1095661,0.0164353,0.047671
 2,1.4076907,0.0056743,-0.0010847,0.0013106,1.3941144,-0.5304195,0.2465
 891,-0.0230087,0.1828424,-0.67632,0.0312675,-0.0127176,0.0275862,-0.26
 87711,-0.4865338,-0.1490173,0.2377113,-0.1058171,-0.3666308,0.2071972,
 0.1482056,0.1985625,-0.6819565,-0.5318828,-0.2099234,-0.2366458,-0.159
 4861,-0.4504868,-0.2488794,-0.1639036,-0.2330185,-0.5817723,-0.0109927
 ,-0.0297438,-0.0568752,-0.0386326,0.0151519,-0.0832659,-0.0813815,-0.0
 829875,-0.0790963,-0.0069263,0.0297084,-0.0102717,0.0810965,-0.1266538
 ,0.0238477,0.0027774,0.0039936,0.05638,-0.0199132,-0.0199897,0.0561409
 ,-0.0220414,0.0236668,0.0677525,0.0957888,0.0690639,-0.0641383,-0.0076
 492,-0.0212554,0.0514796,-0.0275958,0.0325839,0.0402921,0.0562733,0.02
 83814,-0.1000383,-0.0124292,0.0565567,-0.0233269,0.0510341,-0.110585,-
 0.0078924,-0.0315973,0.0265368,0.0339833,0.0143044,0.0352838,0.0030259
 ,0.0237747,-0.1152437,0.0196411,-0.0040126,0.0259846,-0.0017437,0.0519
 302,0.0556103,-0.0044439,0.0401448,-0.0934518,0.0410309,0.0118728,-0.0
 073232,0.0360827,-0.1287418,-0.0072855,0.0372169,-0.000154,0.0544368,0
 .02562,0.0188904,0.0216219,0.0628739,0.0568375,-0.0336603,-0.068954,-0
 .0310271,0.0128767,-0.0659831,-0.0485926,-0.0494817,-0.0667566\Polar=5
 9.967133,2.5013294,52.5082538,2.6615711,0.9063759,58.548232\Quadrupole
 =-0.7414875,0.2721571,0.4693304,-0.3240326,-0.0607713,0.0752451\PG=C01
  [X(C5H9F3)]\NImag=0\\0.46804117,0.00658854,0.56511739,-0.01236722,0.0
 0314225,0.56735167,-0.18916934,0.00681373,-0.00765889,0.48747169,0.005
 37335,-0.07814570,0.00052722,-0.01420167,0.55806523,-0.00717160,0.0018
 2036,-0.07889563,-0.03975562,-0.05235945,0.51842299,-0.01387010,-0.019
 90076,-0.03013895,-0.08871397,-0.01345991,-0.01879646,0.49286152,-0.00
 273105,-0.00007929,0.00070637,-0.01524318,-0.10713517,-0.03826371,-0.0
 3517654,0.58145622,-0.00676572,-0.00206241,-0.00279001,-0.01855808,-0.
 03875655,-0.13089350,-0.00024867,-0.01366093,0.47685335,0.00123361,0.0
 0054439,-0.00061103,0.00613527,0.00608127,-0.00990966,-0.08928590,-0.0
 1042903,0.02259150,0.57316815,0.00020258,-0.00022831,-0.00012204,0.006
 77699,0.00771852,-0.01546543,-0.01022090,-0.09369621,0.03502171,-0.007
 92571,0.55620821,-0.00042947,-0.00022010,0.00074512,0.00626800,0.00687
 279,-0.02986510,0.02360876,0.03434785,-0.15521227,0.02779234,0.0406103
 2,0.48362954,0.00009305,0.00169937,0.00263271,-0.01380486,-0.00896105,
 -0.01503593,-0.17776743,-0.00085558,0.00524832,-0.01106435,-0.00511816
 ,0.01543070,0.59127842,-0.00020581,-0.00343236,-0.00186801,-0.01944006
 ,-0.00066370,-0.00178506,-0.00713122,-0.07082945,0.00015579,-0.0134842
 2,-0.00013084,0.00326755,0.00510514,0.51721184,-0.00063584,-0.00306766
 ,-0.00647611,-0.02764531,-0.00075485,0.00281653,0.00453805,-0.00044134
 ,-0.06913740,0.03237587,0.00279902,-0.00423568,-0.00298326,0.00016863,
 0.52398984,0.00008867,0.00001202,-0.00059305,0.00077169,0.00104726,0.0
 0190888,-0.01785978,0.04515987,-0.00339874,0.00070630,0.00043855,-0.00
 173132,-0.13961065,0.07973421,-0.00472488,0.13099941,0.00012449,0.0014
 9986,0.00041911,-0.00084335,-0.00286346,-0.00106588,0.01107916,-0.0187
 9782,0.00218078,-0.00070561,-0.00172493,0.00127022,0.08956568,-0.20081
 241,0.00813137,-0.11786820,0.33089186,0.00026878,0.00054894,0.00045780
 ,0.00046169,-0.00056313,0.00001052,0.00000608,0.00076293,0.00659996,-0
 .00038303,0.00070842,0.00017559,-0.00586166,0.00863897,-0.07522686,0.0
 0893425,-0.01861097,0.08100764,0.00015079,-0.00044960,0.00007380,0.000
 18328,0.00031309,0.00106738,-0.01201947,-0.01964887,0.03931700,-0.0085
 0381,0.00077701,-0.00365641,-0.11830390,-0.03118999,0.06229571,0.01792
 661,0.00788671,-0.01272897,0.10495977,0.00021486,0.00000302,0.00009941
 ,-0.00013824,0.00047707,0.00063730,-0.00382367,0.00068665,0.01191902,-
 0.00253470,0.00151127,-0.00090765,-0.03464432,-0.10341599,0.05815695,-
 0.00209885,-0.05016077,0.05259051,0.04059201,0.13199917,-0.00004192,-0
 .00019090,0.00185228,-0.00072051,-0.00019770,-0.00417440,0.00848613,0.
 01240014,-0.01812521,0.00466506,-0.00067111,0.00254136,0.07112215,0.05
 872120,-0.19477845,-0.00479480,0.04211161,-0.01503376,-0.07918290,-0.1
 0759711,0.30788320,0.00036544,-0.00216532,-0.00286533,-0.00812245,0.00
 248870,0.00513646,-0.01625204,-0.02808421,-0.03551117,0.00015399,0.000
 12898,-0.00116601,-0.12783633,-0.04738131,-0.05959966,0.01918272,0.007
 01076,0.00945600,0.01723481,0.00548511,0.00202360,0.11689480,0.0001855
 5,-0.00065642,-0.00112697,-0.00291579,0.00215813,0.00148947,-0.0068022
 0,-0.00408914,-0.01395982,0.00022195,0.00020519,-0.00126169,-0.0519984
 3,-0.12663479,-0.06664021,-0.00492130,-0.06596468,-0.04303826,0.004748
 74,0.01780946,-0.00384045,0.06423617,0.17516686,0.00033069,-0.00077577
 ,-0.00077722,-0.00293599,0.00103094,0.00224743,-0.00778398,-0.01286150
 ,-0.01031096,0.00114204,-0.00073215,-0.00269017,-0.06743932,-0.0676722
 3,-0.16171305,0.00352228,-0.03333334,-0.00034548,-0.01058221,-0.015256
 87,-0.08363854,0.08260885,0.12715479,0.25192375,-0.06555850,-0.0361028
 3,-0.05927960,-0.01021308,-0.01779790,-0.02820041,-0.00718803,0.001615
 53,0.00123479,-0.00026678,-0.00005993,0.00068572,0.00154708,-0.0009258
 6,-0.00192790,-0.00030190,0.00034190,0.00011413,-0.00020943,-0.0000473
 3,0.00036128,-0.00128161,-0.00049659,-0.00050077,0.07407394,-0.0370079
 4,-0.11349790,-0.10907845,0.00095270,0.00026853,0.00242401,0.00012077,
 0.00036854,0.00031311,-0.00005210,0.00016014,0.00016756,0.00020070,0.0
 0036768,-0.00019400,-0.00020585,0.00008275,0.00001703,-0.00004351,-0.0
 0004028,0.00004402,0.00002652,-0.00003714,0.00000004,0.04047353,0.1194
 4542,-0.06081516,-0.10912666,-0.22484944,0.00035373,-0.00035884,-0.001
 66898,-0.00017565,0.00060169,0.00093661,0.00029314,-0.00017608,0.00000
 472,0.00060832,-0.00013857,-0.00024733,-0.00015189,0.00009518,0.000025
 64,-0.00017617,-0.00006286,0.00014323,-0.00018573,-0.00005045,-0.00000
 228,0.06645874,0.11980495,0.24207219,-0.07064524,0.07385471,-0.0068722
 2,-0.01186318,0.03318940,-0.00392445,0.00186296,0.00166416,0.00096322,
 -0.00006000,-0.00014079,-0.00011682,-0.00015071,0.00072306,0.00049058,
 0.00013694,-0.00064429,-0.00021200,0.00000510,-0.00017118,0.00003663,0
 .00003245,-0.00010473,-0.00006912,0.00219310,-0.00863855,0.00172926,0.
 07943969,0.07480932,-0.28013775,0.02283764,0.00041184,-0.00070601,-0.0
 0021631,-0.00045071,0.00082165,-0.00021019,0.00010723,0.00011539,0.000
 16089,-0.00011633,0.00007684,-0.00001483,-0.00019312,0.00013389,0.0000
 0277,0.00006603,0.00007287,0.00000754,0.00017635,0.00008562,0.00010270
 ,0.00436830,-0.01487762,0.00235858,-0.08356636,0.30417227,-0.00677331,
 0.02289526,-0.05003007,-0.00131518,0.00275394,-0.00119693,0.00007183,0
 .00127851,0.00038166,0.00001752,-0.00011670,-0.00018927,-0.00028565,-0
 .00001761,0.00022206,0.00009640,-0.00012669,-0.00005945,0.00005979,0.0
 0002924,-0.00012121,0.00007353,-0.00000044,-0.00002332,0.00881980,-0.0
 2581853,0.00315402,0.00852221,-0.02504305,0.04867725,-0.10145292,-0.04
 877169,0.09382691,-0.01570238,-0.01407209,0.02758082,0.00115542,0.0000
 9907,0.00115550,-0.00044314,0.00004823,0.00011939,-0.00013563,0.000030
 17,0.00123592,0.00003639,0.00004673,-0.00020121,-0.00000016,-0.0000006
 1,-0.00079115,-0.00003192,-0.00008609,-0.00034625,0.00383068,0.0045139
 4,-0.00697654,0.00431901,0.00350695,-0.00858715,0.11273208,-0.04948955
 ,-0.09254853,0.08548991,0.00118399,0.00035813,-0.00247918,-0.00027981,
 -0.00018370,0.00076297,-0.00056020,0.00033638,0.00029373,-0.00010883,0
 .00004467,0.00009619,0.00000978,-0.00002926,-0.00004456,0.00011715,0.0
 0007102,-0.00013137,-0.00000986,-0.00003195,-0.00011223,0.00840781,0.0
 0700698,-0.01339921,-0.01441511,-0.01204388,0.02502314,0.05404330,0.09
 546392,0.09509411,0.08564631,-0.21019858,-0.00144001,-0.00224046,0.003
 81230,0.00037286,-0.00042048,0.00011489,-0.00017311,-0.00012940,-0.000
 75733,-0.00028390,0.00007498,-0.00000346,0.00009417,-0.00004624,0.0000
 2841,0.00004366,0.00000176,-0.00002006,0.00018408,0.00008759,0.0001419
 7,0.01186165,0.01200375,-0.02069873,0.00019590,0.00011893,-0.00193515,
 -0.10395109,-0.09401109,0.22885257,-0.01749714,-0.01289513,0.02793141,
 -0.09126970,-0.03749090,0.09232222,0.00411565,0.00442861,-0.00972537,-
 0.00106417,-0.00164148,-0.00206464,0.00074399,0.00092483,-0.00235772,-
 0.00015346,-0.00015962,0.00034203,-0.00235249,-0.00127888,-0.00008319,
 0.00031721,0.00010233,0.00069924,0.00149411,-0.00030253,-0.00024961,0.
 00144804,0.00047651,0.00004446,-0.00658571,0.00076425,-0.00121063,0.10
 618888,0.00082706,0.00058827,-0.00199143,-0.03720137,-0.08325751,0.078
 51340,0.00780274,0.00609823,-0.01664900,-0.00196800,-0.00193537,-0.001
 97078,-0.00015389,0.00130973,-0.00002930,0.00006951,-0.00011193,-0.000
 01865,-0.00104814,-0.00096731,-0.00023979,0.00037419,-0.00002852,0.000
 29511,-0.00037834,-0.00003952,0.00011960,-0.00025697,0.00046036,-0.000
 58528,0.00052759,0.00115087,-0.00046125,0.04393401,0.08616604,-0.00208
 386,-0.00165399,0.00379478,0.08998536,0.07633452,-0.22798213,0.0087351
 7,0.00945326,-0.02345771,-0.00297111,-0.00435599,-0.00250358,0.0024183
 5,0.00173340,-0.00474153,-0.00054885,-0.00019147,0.00053891,0.00030055
 ,-0.00016506,0.00348333,-0.00013286,0.00005693,0.00092188,0.00042169,-
 0.00004126,0.00084556,0.00040173,-0.00021200,0.00011927,-0.00152197,-0
 .00014018,0.00117339,-0.09703313,-0.08236608,0.25060192,-0.01197343,0.
 03292243,-0.00421538,-0.06772193,0.07030550,-0.00696039,0.00273302,-0.
 01100718,0.00082701,-0.00000711,0.00029822,0.00050758,0.00145142,-0.00
 208607,0.00054734,-0.00126983,0.00072502,-0.00044289,-0.00042183,0.000
 28838,-0.00020550,-0.00004658,0.00054140,0.00015570,0.00130341,-0.0003
 9093,-0.00022050,-0.00679748,-0.00008235,-0.00073219,0.00165023,-0.000
 24943,0.00062660,0.00398285,-0.01322907,0.00103831,0.07748893,0.000131
 00,0.00020368,0.00015631,0.06974749,-0.27780417,0.02651720,0.00366221,
 -0.01927191,0.00074857,0.00004051,0.00089373,0.00128206,0.00290360,-0.
 00363612,0.00004523,-0.00019182,0.00262134,0.00062537,-0.00060741,0.00
 033958,-0.00028476,-0.00059568,0.00047518,-0.00001009,0.00050386,0.000
 43431,0.00027716,-0.00034641,0.00158999,-0.00004319,0.00034831,0.00051
 960,-0.00023995,0.00324598,-0.01090237,0.00130122,-0.07694377,0.304152
 44,-0.00061353,0.00265362,-0.00060884,-0.00722855,0.02810868,-0.052482
 84,0.00701105,-0.02645116,0.00074157,0.00069581,-0.00094935,0.00206433
 ,0.00132610,-0.00076626,0.00029367,-0.00053645,0.00063439,-0.00019348,
 0.00007483,0.00004461,0.00031592,-0.00014811,0.00033973,0.00001524,0.0
 0008862,0.00030214,-0.00005999,-0.00070550,-0.00044519,0.00090616,-0.0
 0008540,-0.00065746,0.00034615,-0.00839870,0.02598135,-0.00262158,0.01
 099258,-0.02653556,0.05517271,0.00119037,-0.00116956,0.00065154,0.0035
 0059,-0.01195016,0.00040313,-0.07769753,0.07328694,-0.00662763,0.00371
 504,-0.01080457,0.00167007,-0.01032332,0.03669957,-0.00337792,-0.00960
 738,0.00314161,0.00012931,0.00177418,-0.00211995,-0.00043671,0.0017064
 9,-0.00203017,0.00069686,0.00008931,0.00017907,0.00007138,0.00001055,0
 .00047626,-0.00009961,-0.00006501,-0.00003310,-0.00003075,0.00018942,0
 .00059002,0.00029326,-0.00056282,-0.00178451,-0.00222010,0.08536928,0.
 00091586,0.00074246,0.00098855,0.00517251,-0.01849130,-0.00035274,0.07
 937715,-0.26940068,0.02094691,0.00338607,-0.01115035,0.00234560,-0.000
 56755,-0.00475645,0.00032065,-0.00083515,0.00198370,-0.00004152,-0.000
 12690,0.00150068,-0.00066665,-0.00003789,0.00147929,0.00034276,0.00003
 842,0.00048662,-0.00003804,-0.00107209,0.00039427,-0.00027968,-0.00005
 866,0.00002102,-0.00002164,0.00003414,0.00062832,-0.00027126,-0.001248
 79,-0.00062706,-0.00317193,-0.08372311,0.29559127,0.00132865,0.0002330
 5,0.00110614,0.00721404,-0.02548338,0.00029285,-0.00715153,0.02079098,
 -0.04676801,-0.00945609,0.02897167,-0.00524213,0.00038951,-0.00104381,
 -0.00169153,0.00056010,-0.00024668,0.00113030,0.00004546,0.00002721,0.
 00004263,-0.00017957,-0.00026272,-0.00008587,0.00029827,0.00022131,-0.
 00001381,-0.00047126,0.00053481,0.00006030,-0.00015666,0.00005398,-0.0
 0002041,0.00048829,0.00051586,0.00077145,-0.00199084,-0.00289846,-0.00
 360968,0.00754560,-0.02225664,0.05686575,-0.00008627,-0.00009199,-0.00
 011008,0.00011220,0.00043925,-0.00042977,0.00260145,-0.00992199,0.0009
 0009,-0.07244593,0.07772423,-0.00886595,0.00125213,-0.00235121,-0.0001
 2856,-0.00090700,0.00075522,0.00028030,0.00001212,0.00056179,-0.000343
 08,-0.00033532,0.00035519,0.00009575,0.00004504,-0.00002297,-0.0000660
 8,-0.00001196,-0.00009701,0.00013406,-0.00010902,0.00015772,-0.0000050
 9,-0.00004858,-0.00011268,-0.00007324,0.00022137,0.00010627,-0.0001292
 3,-0.00000591,-0.00090936,0.00201715,0.07423498,0.00002366,0.00008865,
 0.00018445,-0.00022071,0.00075432,-0.00098024,0.00248732,-0.01224206,0
 .00206209,0.07651295,-0.28236565,0.02450864,0.00254734,-0.00285540,0.0
 0049337,-0.00021071,0.00200527,-0.00101913,-0.00047157,0.00036329,-0.0
 0007304,-0.00056068,0.00032301,0.00014297,0.00003367,0.00000838,0.0000
 2393,-0.00007571,0.00002140,-0.00007307,0.00008664,-0.00009662,0.00003
 618,-0.00011703,0.00027071,-0.00004081,0.00017798,0.00060519,0.0006036
 5,-0.00112879,0.00055023,0.00208996,-0.08475594,0.30764227,-0.00010347
 ,-0.00016916,-0.00012150,-0.00045886,0.00150802,0.00207261,-0.00961636
 ,0.02939838,-0.00449965,-0.00835580,0.02294693,-0.04986326,-0.00193541
 ,0.00178482,0.00041223,0.00060020,-0.00125219,0.00010942,0.00016927,-0
 .00051501,0.00016650,0.00013323,-0.00009914,0.00017977,-0.00007286,-0.
 00004021,-0.00001047,0.00018552,-0.00007028,0.00008605,-0.00007951,0.0
 0003054,-0.00001175,0.00023346,-0.00032163,0.00033421,0.00005771,-0.00
 093197,-0.00036552,0.00245651,0.00212325,-0.00517000,0.00766165,-0.029
 62782,0.05437117,-0.00061135,-0.00052013,-0.00045566,-0.00048391,-0.00
 029199,-0.00027923,-0.00800597,0.00034947,0.00075851,-0.31409073,0.007
 46260,0.02170284,0.00166724,-0.00054070,0.00008236,0.00003472,-0.00015
 220,0.00010912,-0.00068463,-0.00025001,0.00064029,-0.00012473,0.000086
 56,0.00035153,0.00028022,0.00011380,-0.00029868,0.00002648,0.00006095,
 -0.00000398,0.00038261,0.00017067,-0.00123205,0.00006679,0.00005553,0.
 00008103,0.00001468,-0.00000668,0.00004030,0.00053317,-0.00032270,0.00
 008221,-0.00852250,-0.00045217,0.00022002,0.34116908,0.00021214,0.0004
 6645,-0.00038323,0.00045443,0.00010552,-0.00045557,-0.01363598,-0.0008
 3558,0.00106857,0.00805026,-0.04654983,-0.00077202,0.00102074,-0.00227
 293,0.00190676,-0.00014116,0.00120311,-0.00060762,-0.00124552,-0.00020
 656,0.00070616,-0.00025910,0.00027628,0.00068375,0.00002139,-0.0001420
 2,0.00007325,-0.00000418,-0.00019168,0.00017328,-0.00037722,0.00002875
 ,-0.00034923,-0.00009814,-0.00008789,-0.00005545,0.00008647,0.00004813
 ,0.00000622,-0.00017585,0.00038164,-0.00074274,0.03135271,0.00050270,-
 0.00244970,-0.00686090,0.04696103,0.00010213,0.00025483,-0.00073280,0.
 00028665,-0.00037976,0.00137407,0.03205935,-0.00092948,-0.00274108,0.0
 1946718,-0.00060650,-0.04684321,-0.00286610,0.00141338,-0.00614804,0.0
 0032771,-0.00032549,0.00041055,0.00280612,0.00086230,-0.00141277,0.000
 00948,0.00011687,0.00125235,-0.00024502,-0.00008910,0.00032163,-0.0000
 7364,0.00005398,-0.00004095,-0.00106614,-0.00072077,-0.00100014,-0.000
 10280,0.00021111,0.00027688,-0.00006809,-0.00006965,-0.00015834,-0.000
 71569,-0.00022639,0.00139031,-0.00299435,-0.00057441,-0.00076352,-0.02
 289709,-0.00109322,0.05238017,-0.00029879,-0.00036819,0.00005103,-0.00
 110992,-0.00101216,0.00204463,0.00333021,0.00649400,0.00783943,-0.0878
 8044,-0.05794583,-0.07975476,0.00096384,0.00151946,0.00181523,-0.00017
 345,-0.00030403,-0.00027195,0.00024906,-0.00003441,-0.00073538,-0.0018
 5692,-0.00112260,0.00005471,0.00016244,0.00008336,-0.00019857,0.000054
 26,0.00004614,-0.00004253,0.00041945,0.00029121,-0.00014638,0.00042431
 ,0.00016781,0.00068957,-0.00004492,-0.00021296,-0.00016371,0.00018356,
 -0.00002197,-0.00056333,0.00399320,0.00612376,0.00890471,-0.01165116,-
 0.01840010,-0.02402970,0.09323529,-0.00017405,0.00001648,0.00001889,-0
 .00130930,-0.00083844,0.00202183,0.00635234,0.00712972,0.01011937,-0.0
 5728505,-0.12936731,-0.10999495,-0.00051845,0.00042969,-0.00097597,0.0
 0019495,0.00004347,0.00004890,0.00033077,-0.00004317,-0.00009779,-0.00
 083273,-0.00053637,0.00100114,0.00000436,0.00000511,-0.00000365,0.0000
 0503,0.00001241,-0.00004913,0.00011543,-0.00006742,-0.00004977,0.00007
 305,0.00065789,0.00061421,-0.00010783,0.00035846,0.00030252,0.00054630
 ,0.00066634,-0.00050440,-0.01318925,-0.01557569,-0.02231484,0.00109790
 ,0.00031289,0.00210230,0.06469653,0.13679593,0.00067675,0.00007205,0.0
 0017241,0.00314753,0.00395800,-0.00388979,-0.01097768,-0.01671152,-0.0
 2169224,-0.07718061,-0.10773333,-0.19175865,-0.00248491,-0.00266715,-0
 .00333490,0.00043602,0.00035628,0.00036430,0.00007309,0.00013623,0.000
 87594,0.00016320,0.00103478,0.00290448,-0.00011812,-0.00003637,0.00004
 742,-0.00008004,0.00003400,-0.00001042,-0.00015547,-0.00005442,0.00017
 593,-0.00083530,-0.00100323,-0.00155505,0.00008293,0.00006050,0.000244
 52,-0.00040926,0.00025878,0.00094169,0.00205644,0.00224328,0.00307371,
 0.00109847,0.00229078,0.00243492,0.08450698,0.11776133,0.21100574\\0.0
 0000569,0.00000024,-0.00000449,0.00000067,-0.00000612,0.00000553,0.000
 00409,0.00000769,-0.00000149,-0.00000210,0.00000051,0.00000470,0.00000
 723,0.00003799,-0.00001717,0.00000148,-0.00001700,0.00001692,-0.000006
 56,-0.00000019,-0.00000300,-0.00000970,-0.00001917,0.00000224,-0.00000
 318,0.00000217,0.00000022,0.00000002,0.00000218,-0.00000003,0.00000109
 ,-0.00000170,-0.00000363,-0.00000163,-0.00000496,-0.00000199,0.0000003
 9,-0.00000152,-0.00000105,0.00000148,-0.00000120,0.00000213,-0.0000003
 1,-0.00000111,-0.00000165,0.00000175,0.00000166,0.00000192,-0.00000040
 ,0.00000053,0.00000082\\\@


 NOTHING PUZZLES ME MORE THAN TIME AND SPACE; AND YET NOTHING TROUBLES ME LESS
                                                          -- CHARLES LAMB (1810)
 Job cpu time:       0 days  1 hours 24 minutes 10.5 seconds.
 Elapsed time:       0 days  0 hours 21 minutes 10.6 seconds.
 File lengths (MBytes):  RWF=    107 Int=      0 D2E=      0 Chk=      7 Scr=      1
 Normal termination of Gaussian 16 at Sat May 27 19:46:34 2023.
### All Done ###
