### Starting Gaussian ###
 Entering Gaussian System, Link 0=g16
 Initial command:
 /cluster/software/gaussian/gaussian-16-A.03/avx2/g16/l1.exe "/local/scratch/linjian/Gau-24064.inp" -scrdir="/local/scratch/linjian/"
 Entering Link 1 = /cluster/software/gaussian/gaussian-16-A.03/avx2/g16/l1.exe PID=     24065.
  
 Copyright (c) 1988,1990,1992,1993,1995,1998,2003,2009,2016,
            Gaussian, Inc.  All Rights Reserved.
  
 This is part of the Gaussian(R) 16 program.  It is based on
 the Gaussian(R) 09 system (copyright 2009, Gaussian, Inc.),
 the Gaussian(R) 03 system (copyright 2003, Gaussian, Inc.),
 the Gaussian(R) 98 system (copyright 1998, Gaussian, Inc.),
 the Gaussian(R) 94 system (copyright 1995, Gaussian, Inc.),
 the Gaussian 92(TM) system (copyright 1992, Gaussian, Inc.),
 the Gaussian 90(TM) system (copyright 1990, Gaussian, Inc.),
 the Gaussian 88(TM) system (copyright 1988, Gaussian, Inc.),
 the Gaussian 86(TM) system (copyright 1986, Carnegie Mellon
 University), and the Gaussian 82(TM) system (copyright 1983,
 Carnegie Mellon University). Gaussian is a federally registered
 trademark of Gaussian, Inc.
  
 This software contains proprietary and confidential information,
 including trade secrets, belonging to Gaussian, Inc.
  
 This software is provided under written license and may be
 used, copied, transmitted, or stored only in accord with that
 written license.
  
 The following legend is applicable only to US Government
 contracts under FAR:
  
                    RESTRICTED RIGHTS LEGEND
  
 Use, reproduction and disclosure by the US Government is
 subject to restrictions as set forth in subparagraphs (a)
 and (c) of the Commercial Computer Software - Restricted
 Rights clause in FAR 52.227-19.
  
 Gaussian, Inc.
 340 Quinnipiac St., Bldg. 40, Wallingford CT 06492
  
  
 ---------------------------------------------------------------
 Warning -- This program may not be used in any manner that
 competes with the business of Gaussian, Inc. or will provide
 assistance to any competitor of Gaussian, Inc.  The licensee
 of this program is prohibited from giving any competitor of
 Gaussian, Inc. access to this program.  By using this program,
 the user acknowledges that Gaussian, Inc. is engaged in the
 business of creating and licensing software in the field of
 computational chemistry and represents and warrants to the
 licensee that it is not a competitor of Gaussian, Inc. and that
 it will not use this program in any manner prohibited above.
 ---------------------------------------------------------------
  

 Cite this work as:
 Gaussian 16, Revision A.03,
 M. J. Frisch, G. W. Trucks, H. B. Schlegel, G. E. Scuseria, 
 M. A. Robb, J. R. Cheeseman, G. Scalmani, V. Barone, 
 G. A. Petersson, H. Nakatsuji, X. Li, M. Caricato, A. V. Marenich, 
 J. Bloino, B. G. Janesko, R. Gomperts, B. Mennucci, H. P. Hratchian, 
 J. V. Ortiz, A. F. Izmaylov, J. L. Sonnenberg, D. Williams-Young, 
 F. Ding, F. Lipparini, F. Egidi, J. Goings, B. Peng, A. Petrone, 
 T. Henderson, D. Ranasinghe, V. G. Zakrzewski, J. Gao, N. Rega, 
 G. Zheng, W. Liang, M. Hada, M. Ehara, K. Toyota, R. Fukuda, 
 J. Hasegawa, M. Ishida, T. Nakajima, Y. Honda, O. Kitao, H. Nakai, 
 T. Vreven, K. Throssell, J. A. Montgomery, Jr., J. E. Peralta, 
 F. Ogliaro, M. J. Bearpark, J. J. Heyd, E. N. Brothers, K. N. Kudin, 
 V. N. Staroverov, T. A. Keith, R. Kobayashi, J. Normand, 
 K. Raghavachari, A. P. Rendell, J. C. Burant, S. S. Iyengar, 
 J. Tomasi, M. Cossi, J. M. Millam, M. Klene, C. Adamo, R. Cammi, 
 J. W. Ochterski, R. L. Martin, K. Morokuma, O. Farkas, 
 J. B. Foresman, and D. J. Fox, Gaussian, Inc., Wallingford CT, 2016.
 
 ******************************************
 Gaussian 16:  ES64L-G16RevA.03 25-Dec-2016
                28-May-2023 
 ******************************************
 %chk=CCCqCCrCqCrqCrC.chk
 %NProcShared=20
 Will use up to   20 processors via shared memory.
 -----------------------------
 # opt freq b3lyp/6-31g(2df,p)
 -----------------------------
 1/18=20,19=15,26=3,38=1/1,3;
 2/9=110,12=2,17=6,18=5,40=1/2;
 3/5=1,6=6,7=104,11=2,25=1,30=1,71=1,74=-5/1,2,3;
 4//1;
 5/5=2,38=5/2;
 6/7=2,8=2,9=2,10=2,28=1/1;
 7//1,2,3,16;
 1/18=20,19=15,26=3/3(2);
 2/9=110/2;
 99//99;
 2/9=110/2;
 3/5=1,6=6,7=104,11=2,25=1,30=1,71=1,74=-5/1,2,3;
 4/5=5,16=3,69=1/1;
 5/5=2,38=5/2;
 7//1,2,3,16;
 1/18=20,19=15,26=3/3(-5);
 2/9=110/2;
 6/7=2,8=2,9=2,10=2,19=2,28=1/1;
 99/9=1/99;
 -------------------
 Title Card Required
 -------------------
 Symbolic Z-matrix:
 Charge =  0 Multiplicity = 1
 C                     0.94051  -0.06906  -0.20775 
 C                     2.43798   0.01474   0.03663 
 C                     2.97041   1.24957   0.82153 
 C                     2.43797   1.32481   2.28277 
 C                     0.94051   1.49627   2.47602 
 C                     4.56732   1.29011   0.79789 
 C                     5.1736    0.06445   1.51277 
 C                     5.11126   1.31943  -0.65056 
 C                     5.11125   2.56529   1.48548 
 H                     0.73539  -0.81614  -0.98195 
 H                     0.52805   0.88743  -0.53518 
 H                     0.40621  -0.42255   0.67405 
 H                     2.88366   0.01052  -0.96363 
 H                     2.75504  -0.90887   0.5273 
 H                     2.62059   2.14919   0.29682 
 H                     2.88365   2.19337   2.77889 
 H                     2.75503   0.44301   2.84512 
 H                     0.52805   2.25218   1.80468 
 H                     0.73538   1.80234   3.50745 
 H                     0.4062    0.55471   2.34956 
 H                     4.87406  -0.87345   1.03516 
 H                     4.87406   0.0184    2.56426 
 H                     6.26831   0.09566   1.49457 
 H                     4.8695    0.41179  -1.21005 
 H                     6.20563   1.39477  -0.65781 
 H                     4.71681   2.17924  -1.20283 
 H                     4.86949   2.60542   2.55096 
 H                     4.71681   3.4693    1.00899 
 H                     6.20563   2.60869   1.42348 
 

 GradGradGradGradGradGradGradGradGradGradGradGradGradGradGradGradGradGrad
 Berny optimization.
 Initialization pass.
                           ----------------------------
                           !    Initial Parameters    !
                           ! (Angstroms and Degrees)  !
 --------------------------                            --------------------------
 ! Name  Definition              Value          Derivative Info.                !
 --------------------------------------------------------------------------------
 ! R1    R(1,2)                  1.5196         estimate D2E/DX2                !
 ! R2    R(1,10)                 1.0953         estimate D2E/DX2                !
 ! R3    R(1,11)                 1.0919         estimate D2E/DX2                !
 ! R4    R(1,12)                 1.09           estimate D2E/DX2                !
 ! R5    R(2,3)                  1.557          estimate D2E/DX2                !
 ! R6    R(2,13)                 1.0951         estimate D2E/DX2                !
 ! R7    R(2,14)                 1.0929         estimate D2E/DX2                !
 ! R8    R(3,4)                  1.557          estimate D2E/DX2                !
 ! R9    R(3,6)                  1.5976         estimate D2E/DX2                !
 ! R10   R(3,15)                 1.0986         estimate D2E/DX2                !
 ! R11   R(4,5)                  1.5196         estimate D2E/DX2                !
 ! R12   R(4,16)                 1.0951         estimate D2E/DX2                !
 ! R13   R(4,17)                 1.0929         estimate D2E/DX2                !
 ! R14   R(5,18)                 1.0919         estimate D2E/DX2                !
 ! R15   R(5,19)                 1.0953         estimate D2E/DX2                !
 ! R16   R(5,20)                 1.09           estimate D2E/DX2                !
 ! R17   R(6,7)                  1.543          estimate D2E/DX2                !
 ! R18   R(6,8)                  1.5475         estimate D2E/DX2                !
 ! R19   R(6,9)                  1.5475         estimate D2E/DX2                !
 ! R20   R(7,21)                 1.0943         estimate D2E/DX2                !
 ! R21   R(7,22)                 1.0943         estimate D2E/DX2                !
 ! R22   R(7,23)                 1.0953         estimate D2E/DX2                !
 ! R23   R(8,24)                 1.0933         estimate D2E/DX2                !
 ! R24   R(8,25)                 1.097          estimate D2E/DX2                !
 ! R25   R(8,26)                 1.0954         estimate D2E/DX2                !
 ! R26   R(9,27)                 1.0933         estimate D2E/DX2                !
 ! R27   R(9,28)                 1.0954         estimate D2E/DX2                !
 ! R28   R(9,29)                 1.097          estimate D2E/DX2                !
 ! A1    A(2,1,10)             109.6241         estimate D2E/DX2                !
 ! A2    A(2,1,11)             111.8495         estimate D2E/DX2                !
 ! A3    A(2,1,12)             111.7678         estimate D2E/DX2                !
 ! A4    A(10,1,11)            108.3491         estimate D2E/DX2                !
 ! A5    A(10,1,12)            105.0018         estimate D2E/DX2                !
 ! A6    A(11,1,12)            109.9703         estimate D2E/DX2                !
 ! A7    A(1,2,3)              117.5018         estimate D2E/DX2                !
 ! A8    A(1,2,13)             104.7117         estimate D2E/DX2                !
 ! A9    A(1,2,14)             108.1493         estimate D2E/DX2                !
 ! A10   A(3,2,13)             108.9257         estimate D2E/DX2                !
 ! A11   A(3,2,14)             110.164          estimate D2E/DX2                !
 ! A12   A(13,2,14)            106.7847         estimate D2E/DX2                !
 ! A13   A(2,3,4)              113.2332         estimate D2E/DX2                !
 ! A14   A(2,3,6)              110.7609         estimate D2E/DX2                !
 ! A15   A(2,3,15)             107.4433         estimate D2E/DX2                !
 ! A16   A(4,3,6)              110.7609         estimate D2E/DX2                !
 ! A17   A(4,3,15)             107.4433         estimate D2E/DX2                !
 ! A18   A(6,3,15)             106.8836         estimate D2E/DX2                !
 ! A19   A(3,4,5)              117.502          estimate D2E/DX2                !
 ! A20   A(3,4,16)             108.9251         estimate D2E/DX2                !
 ! A21   A(3,4,17)             110.1641         estimate D2E/DX2                !
 ! A22   A(5,4,16)             104.7116         estimate D2E/DX2                !
 ! A23   A(5,4,17)             108.1497         estimate D2E/DX2                !
 ! A24   A(16,4,17)            106.7849         estimate D2E/DX2                !
 ! A25   A(4,5,18)             111.8497         estimate D2E/DX2                !
 ! A26   A(4,5,19)             109.6245         estimate D2E/DX2                !
 ! A27   A(4,5,20)             111.7679         estimate D2E/DX2                !
 ! A28   A(18,5,19)            108.3487         estimate D2E/DX2                !
 ! A29   A(18,5,20)            109.9699         estimate D2E/DX2                !
 ! A30   A(19,5,20)            105.0019         estimate D2E/DX2                !
 ! A31   A(3,6,7)              111.4531         estimate D2E/DX2                !
 ! A32   A(3,6,8)              111.4492         estimate D2E/DX2                !
 ! A33   A(3,6,9)              111.4492         estimate D2E/DX2                !
 ! A34   A(7,6,8)              108.0948         estimate D2E/DX2                !
 ! A35   A(7,6,9)              108.0947         estimate D2E/DX2                !
 ! A36   A(8,6,9)              106.0649         estimate D2E/DX2                !
 ! A37   A(6,7,21)             111.7798         estimate D2E/DX2                !
 ! A38   A(6,7,22)             111.7807         estimate D2E/DX2                !
 ! A39   A(6,7,23)             111.2461         estimate D2E/DX2                !
 ! A40   A(21,7,22)            107.962          estimate D2E/DX2                !
 ! A41   A(21,7,23)            106.9028         estimate D2E/DX2                !
 ! A42   A(22,7,23)            106.9026         estimate D2E/DX2                !
 ! A43   A(6,8,24)             112.6772         estimate D2E/DX2                !
 ! A44   A(6,8,25)             110.9864         estimate D2E/DX2                !
 ! A45   A(6,8,26)             111.1129         estimate D2E/DX2                !
 ! A46   A(24,8,25)            105.9166         estimate D2E/DX2                !
 ! A47   A(24,8,26)            108.3008         estimate D2E/DX2                !
 ! A48   A(25,8,26)            107.5779         estimate D2E/DX2                !
 ! A49   A(6,9,27)             112.6773         estimate D2E/DX2                !
 ! A50   A(6,9,28)             111.1134         estimate D2E/DX2                !
 ! A51   A(6,9,29)             110.9862         estimate D2E/DX2                !
 ! A52   A(27,9,28)            108.3011         estimate D2E/DX2                !
 ! A53   A(27,9,29)            105.9161         estimate D2E/DX2                !
 ! A54   A(28,9,29)            107.5778         estimate D2E/DX2                !
 ! D1    D(10,1,2,3)           164.7975         estimate D2E/DX2                !
 ! D2    D(10,1,2,13)           43.8167         estimate D2E/DX2                !
 ! D3    D(10,1,2,14)          -69.7781         estimate D2E/DX2                !
 ! D4    D(11,1,2,3)            44.5951         estimate D2E/DX2                !
 ! D5    D(11,1,2,13)          -76.3857         estimate D2E/DX2                !
 ! D6    D(11,1,2,14)          170.0195         estimate D2E/DX2                !
 ! D7    D(12,1,2,3)           -79.2077         estimate D2E/DX2                !
 ! D8    D(12,1,2,13)          159.8115         estimate D2E/DX2                !
 ! D9    D(12,1,2,14)           46.2168         estimate D2E/DX2                !
 ! D10   D(1,2,3,4)             63.3533         estimate D2E/DX2                !
 ! D11   D(1,2,3,6)           -171.5279         estimate D2E/DX2                !
 ! D12   D(1,2,3,15)           -55.1251         estimate D2E/DX2                !
 ! D13   D(13,2,3,4)          -177.8844         estimate D2E/DX2                !
 ! D14   D(13,2,3,6)           -52.7656         estimate D2E/DX2                !
 ! D15   D(13,2,3,15)           63.6373         estimate D2E/DX2                !
 ! D16   D(14,2,3,4)           -61.0687         estimate D2E/DX2                !
 ! D17   D(14,2,3,6)            64.0501         estimate D2E/DX2                !
 ! D18   D(14,2,3,15)         -179.5471         estimate D2E/DX2                !
 ! D19   D(2,3,4,5)            -63.3538         estimate D2E/DX2                !
 ! D20   D(2,3,4,16)           177.8844         estimate D2E/DX2                !
 ! D21   D(2,3,4,17)            61.0688         estimate D2E/DX2                !
 ! D22   D(6,3,4,5)            171.5274         estimate D2E/DX2                !
 ! D23   D(6,3,4,16)            52.7656         estimate D2E/DX2                !
 ! D24   D(6,3,4,17)           -64.05           estimate D2E/DX2                !
 ! D25   D(15,3,4,5)            55.1245         estimate D2E/DX2                !
 ! D26   D(15,3,4,16)          -63.6373         estimate D2E/DX2                !
 ! D27   D(15,3,4,17)          179.5472         estimate D2E/DX2                !
 ! D28   D(2,3,6,7)            -63.2517         estimate D2E/DX2                !
 ! D29   D(2,3,6,8)             57.6076         estimate D2E/DX2                !
 ! D30   D(2,3,6,9)            175.889          estimate D2E/DX2                !
 ! D31   D(4,3,6,7)             63.2514         estimate D2E/DX2                !
 ! D32   D(4,3,6,8)           -175.8892         estimate D2E/DX2                !
 ! D33   D(4,3,6,9)            -57.6079         estimate D2E/DX2                !
 ! D34   D(15,3,6,7)           179.9999         estimate D2E/DX2                !
 ! D35   D(15,3,6,8)           -59.1408         estimate D2E/DX2                !
 ! D36   D(15,3,6,9)            59.1406         estimate D2E/DX2                !
 ! D37   D(3,4,5,18)           -44.5947         estimate D2E/DX2                !
 ! D38   D(3,4,5,19)          -164.797          estimate D2E/DX2                !
 ! D39   D(3,4,5,20)            79.2077         estimate D2E/DX2                !
 ! D40   D(16,4,5,18)           76.3852         estimate D2E/DX2                !
 ! D41   D(16,4,5,19)          -43.817          estimate D2E/DX2                !
 ! D42   D(16,4,5,20)         -159.8124         estimate D2E/DX2                !
 ! D43   D(17,4,5,18)         -170.0197         estimate D2E/DX2                !
 ! D44   D(17,4,5,19)           69.7781         estimate D2E/DX2                !
 ! D45   D(17,4,5,20)          -46.2173         estimate D2E/DX2                !
 ! D46   D(3,6,7,21)            60.5752         estimate D2E/DX2                !
 ! D47   D(3,6,7,22)           -60.5748         estimate D2E/DX2                !
 ! D48   D(3,6,7,23)           180.0            estimate D2E/DX2                !
 ! D49   D(8,6,7,21)           -62.227          estimate D2E/DX2                !
 ! D50   D(8,6,7,22)           176.623          estimate D2E/DX2                !
 ! D51   D(8,6,7,23)            57.1978         estimate D2E/DX2                !
 ! D52   D(9,6,7,21)          -176.6227         estimate D2E/DX2                !
 ! D53   D(9,6,7,22)            62.2273         estimate D2E/DX2                !
 ! D54   D(9,6,7,23)           -57.1979         estimate D2E/DX2                !
 ! D55   D(3,6,8,24)           -64.071          estimate D2E/DX2                !
 ! D56   D(3,6,8,25)           177.3342         estimate D2E/DX2                !
 ! D57   D(3,6,8,26)            57.6743         estimate D2E/DX2                !
 ! D58   D(7,6,8,24)            58.7336         estimate D2E/DX2                !
 ! D59   D(7,6,8,25)           -59.8612         estimate D2E/DX2                !
 ! D60   D(7,6,8,26)          -179.5211         estimate D2E/DX2                !
 ! D61   D(9,6,8,24)           174.463          estimate D2E/DX2                !
 ! D62   D(9,6,8,25)            55.8682         estimate D2E/DX2                !
 ! D63   D(9,6,8,26)           -63.7917         estimate D2E/DX2                !
 ! D64   D(3,6,9,27)            64.0714         estimate D2E/DX2                !
 ! D65   D(3,6,9,28)           -57.6747         estimate D2E/DX2                !
 ! D66   D(3,6,9,29)          -177.3345         estimate D2E/DX2                !
 ! D67   D(7,6,9,27)           -58.7331         estimate D2E/DX2                !
 ! D68   D(7,6,9,28)           179.5208         estimate D2E/DX2                !
 ! D69   D(7,6,9,29)            59.861          estimate D2E/DX2                !
 ! D70   D(8,6,9,27)          -174.4625         estimate D2E/DX2                !
 ! D71   D(8,6,9,28)            63.7914         estimate D2E/DX2                !
 ! D72   D(8,6,9,29)           -55.8684         estimate D2E/DX2                !
 --------------------------------------------------------------------------------
 Trust Radius=3.00D-01 FncErr=1.00D-07 GrdErr=1.00D-06 EigMax=2.50D+02 EigMin=1.00D-04
 Number of steps in this run=    164 maximum allowed number of steps=    174.
 GradGradGradGradGradGradGradGradGradGradGradGradGradGradGradGradGradGrad

                          Input orientation:                          
 ---------------------------------------------------------------------
 Center     Atomic      Atomic             Coordinates (Angstroms)
 Number     Number       Type             X           Y           Z
 ---------------------------------------------------------------------
      1          6           0        0.940510   -0.069060   -0.207750
      2          6           0        2.437980    0.014740    0.036630
      3          6           0        2.970410    1.249570    0.821530
      4          6           0        2.437970    1.324810    2.282770
      5          6           0        0.940510    1.496270    2.476020
      6          6           0        4.567320    1.290110    0.797890
      7          6           0        5.173600    0.064450    1.512770
      8          6           0        5.111260    1.319430   -0.650560
      9          6           0        5.111250    2.565290    1.485480
     10          1           0        0.735390   -0.816140   -0.981950
     11          1           0        0.528050    0.887430   -0.535180
     12          1           0        0.406210   -0.422550    0.674050
     13          1           0        2.883660    0.010520   -0.963630
     14          1           0        2.755040   -0.908870    0.527300
     15          1           0        2.620590    2.149190    0.296820
     16          1           0        2.883650    2.193370    2.778890
     17          1           0        2.755030    0.443010    2.845120
     18          1           0        0.528050    2.252180    1.804680
     19          1           0        0.735380    1.802340    3.507450
     20          1           0        0.406200    0.554710    2.349560
     21          1           0        4.874060   -0.873450    1.035160
     22          1           0        4.874060    0.018400    2.564260
     23          1           0        6.268310    0.095660    1.494570
     24          1           0        4.869500    0.411790   -1.210050
     25          1           0        6.205630    1.394770   -0.657810
     26          1           0        4.716810    2.179240   -1.202830
     27          1           0        4.869490    2.605420    2.550960
     28          1           0        4.716810    3.469300    1.008990
     29          1           0        6.205630    2.608690    1.423480
 ---------------------------------------------------------------------
                    Distance matrix (angstroms):
                    1          2          3          4          5
     1  C    0.000000
     2  C    1.519592   0.000000
     3  C    2.630341   1.557034   0.000000
     4  C    3.223034   2.600275   1.557041   0.000000
     5  C    3.106908   3.223038   2.630341   1.519582   0.000000
     6  C    4.001550   2.596185   1.597599   2.596190   4.001546
     7  C    4.571331   3.108871   2.595451   3.108871   4.571325
     8  C    4.418047   3.053010   2.599071   3.968745   5.215547
     9  C    5.215544   3.968733   2.599066   3.053013   4.418036
    10  H    1.095257   2.150972   3.537656   4.259207   4.164957
    11  H    1.091882   2.176324   2.817256   3.432191   3.099699
    12  H    1.089955   2.173848   3.064777   3.125587   2.685971
    13  H    2.086509   1.095066   2.174757   3.530596   4.220720
    14  H    2.130281   1.092858   2.189022   2.858590   3.588137
    15  H    2.828055   2.157990   1.098640   2.157997   2.828053
    16  H    4.220711   3.530586   2.174751   1.095063   2.086497
    17  H    3.588135   2.858593   2.189028   1.092857   2.130276
    18  H    3.099702   3.432196   2.817256   2.176322   1.091889
    19  H    4.164964   4.259220   3.537666   2.150974   1.095265
    20  H    2.685965   3.125595   3.064780   2.173845   1.089961
    21  H    4.202938   2.778566   2.859499   3.510472   4.812948
    22  H    4.812952   3.510472   2.859505   2.778575   4.202940
    23  H    5.595577   4.099215   3.558179   4.099216   5.595570
    24  H    4.083232   2.761186   2.904434   4.352670   5.495468
    25  H    5.483324   4.072090   3.560362   4.779871   6.128024
    26  H    4.506160   3.378519   2.830589   4.251185   5.316091
    27  H    5.495472   4.352668   2.904438   2.761191   4.083223
    28  H    5.316097   4.251180   2.830593   3.378530   4.506159
    29  H    6.128029   4.779866   3.560365   4.072099   5.483321
                    6          7          8          9         10
     6  C    0.000000
     7  C    1.543007   0.000000
     8  C    1.547494   2.501771   0.000000
     9  C    1.547490   2.501766   2.472819   0.000000
    10  H    4.720996   5.166892   4.880442   6.055611   0.000000
    11  H    4.272579   5.143202   4.604970   5.282424   1.773343
    12  H    4.501486   4.865041   5.189083   5.632318   1.733669
    13  H    2.752274   3.373320   2.602587   4.181764   2.301905
    14  H    2.862358   2.787102   3.450282   4.305766   2.522979
    15  H    2.186057   3.513194   2.790962   2.790957   3.739307
    16  H    2.752269   3.373312   4.181763   2.602583   5.274096
    17  H    2.862363   2.787103   4.305776   3.450285   4.506758
    18  H    4.272576   5.143200   5.282427   4.604959   4.150046
    19  H    4.721002   5.166895   6.055623   4.880440   5.197225
    20  H    4.501490   4.865046   5.632327   5.189081   3.617534
    21  H    2.198040   1.094300   2.776083   3.476202   4.604412
    22  H    2.198044   1.094292   3.476206   2.776090   5.513679
    23  H    2.192132   1.095306   2.727262   2.727259   6.130068
    24  H    2.212370   2.761679   1.093292   3.458596   4.318646
    25  H    2.194100   2.747045   1.096984   2.676094   5.909037
    26  H    2.194489   3.472100   1.095384   2.744381   4.987263
    27  H    2.212375   2.761675   3.458606   1.093300   6.424898
    28  H    2.194488   3.472097   2.744383   1.095381   6.179041
    29  H    2.194100   2.747038   2.676094   1.096994   6.887603
                   11         12         13         14         15
    11  H    0.000000
    12  H    1.786933   0.000000
    13  H    2.549792   3.001217   0.000000
    14  H    3.052055   2.403132   1.756330   0.000000
    15  H    2.581276   3.414620   2.496367   3.069679   0.000000
    16  H    4.270526   4.172661   4.332585   3.835374   2.496362
    17  H    4.072269   3.313562   3.835384   2.683257   3.069684
    18  H    2.708780   2.906432   4.270536   4.072275   2.581273
    19  H    4.150049   3.617547   5.274114   4.506770   3.739314
    20  H    2.906420   1.939683   4.172670   3.313570   3.414620
    21  H    4.945146   4.505041   2.956054   2.179317   3.841826
    22  H    5.408285   4.871244   4.050650   3.082090   3.841833
    23  H    6.139818   5.941886   4.183999   3.779915   4.354016
    24  H    4.419261   4.915986   2.040907   3.038662   3.216646
    25  H    5.701521   6.221718   3.611808   4.314837   3.785892
    26  H    4.433987   5.373385   2.849737   4.047013   2.577594
    27  H    5.596771   5.710715   4.798893   4.573438   3.216651
    28  H    5.157153   5.817212   4.383472   4.821715   2.577599
    29  H    6.247720   6.586603   4.846057   5.008287   3.785897
                   16         17         18         19         20
    16  H    0.000000
    17  H    1.756328   0.000000
    18  H    2.549783   3.052057   0.000000
    19  H    2.301905   2.522983   1.773349   0.000000
    20  H    3.001215   2.403135   1.786938   1.733681   0.000000
    21  H    4.050643   3.082095   5.408283   5.513687   4.871248
    22  H    2.956060   2.179327   4.945153   4.604424   4.505052
    23  H    4.183992   3.779917   6.139815   6.130070   5.941891
    24  H    4.798882   4.573441   5.596769   6.424903   5.710718
    25  H    4.846052   5.008294   6.247713   6.887608   6.586605
    26  H    4.383465   4.821719   5.157145   6.179043   5.817210
    27  H    2.040906   3.038666   4.419255   4.318643   4.915987
    28  H    2.849740   4.047022   4.433984   4.987268   5.373390
    29  H    3.611811   4.314843   5.701520   5.909041   6.221724
                   21         22         23         24         25
    21  H    0.000000
    22  H    1.770182   0.000000
    23  H    1.759024   1.759016   0.000000
    24  H    2.587051   3.794759   3.061303   0.000000
    25  H    3.127946   3.748227   2.514827   1.748274   0.000000
    26  H    3.788435   4.345679   3.744920   1.774048   1.768905
    27  H    3.794760   2.587058   3.061299   4.353988   3.680645
    28  H    4.345675   3.788443   3.744915   3.780981   3.049341
    29  H    3.748222   3.127948   2.514817   3.680638   2.409434
                   26         27         28         29
    26  H    0.000000
    27  H    3.780989   0.000000
    28  H    2.560547   1.774055   0.000000
    29  H    3.049347   1.748283   1.768908   0.000000
 Stoichiometry    C9H20
 Framework group  C1[X(C9H20)]
 Deg. of freedom    81
 Full point group                 C1      NOp   1
 Largest Abelian subgroup         C1      NOp   1
 Largest concise Abelian subgroup C1      NOp   1
                         Standard orientation:                         
 ---------------------------------------------------------------------
 Center     Atomic      Atomic             Coordinates (Angstroms)
 Number     Number       Type             X           Y           Z
 ---------------------------------------------------------------------
      1          6           0        2.366209    1.553455   -0.133791
      2          6           0        0.911291    1.300138    0.224265
      3          6           0        0.252038    0.000002   -0.322897
      4          6           0        0.911300   -1.300136    0.224268
      5          6           0        2.366206   -1.553453   -0.133795
      6          6           0       -1.320303   -0.000001   -0.039932
      7          6           0       -1.621358   -0.000006    1.473421
      8          6           0       -2.008093    1.236410   -0.666806
      9          6           0       -2.008085   -1.236409   -0.666809
     10          1           0        2.619507    2.598610    0.073766
     11          1           0        2.565689    1.354391   -1.188679
     12          1           0        3.043440    0.969845    0.489715
     13          1           0        0.372127    2.166297   -0.173527
     14          1           0        0.816255    1.341628    1.312193
     15          1           0        0.379868    0.000003   -1.414075
     16          1           0        0.372133   -2.166287   -0.173531
     17          1           0        0.816264   -1.341629    1.312193
     18          1           0        2.565685   -1.354388   -1.188689
     19          1           0        2.619512   -2.598616    0.073756
     20          1           0        3.043447   -0.969839    0.489706
     21          1           0       -1.210942    0.885091    1.969055
     22          1           0       -1.210942   -0.885091    1.969061
     23          1           0       -2.700041   -0.000008    1.663524
     24          1           0       -1.668097    2.176990   -0.225218
     25          1           0       -3.093157    1.204715   -0.508676
     26          1           0       -1.832367    1.280274   -1.747113
     27          1           0       -1.668090   -2.176998   -0.225218
     28          1           0       -1.832370   -1.280273   -1.747114
     29          1           0       -3.093158   -1.204718   -0.508672
 ---------------------------------------------------------------------
 Rotational constants (GHZ):           2.0156604           1.0993579           0.8734017
 Standard basis: 6-31G(2df,p) (6D, 7F)
 There are   379 symmetry adapted cartesian basis functions of A   symmetry.
 There are   352 symmetry adapted basis functions of A   symmetry.
   352 basis functions,   536 primitive gaussians,   379 cartesian basis functions
    37 alpha electrons       37 beta electrons
       nuclear repulsion energy       508.5562839712 Hartrees.
 NAtoms=   29 NActive=   29 NUniq=   29 SFac= 1.00D+00 NAtFMM=   60 NAOKFM=F Big=F
 Integral buffers will be    131072 words long.
 Raffenetti 2 integral format.
 Two-electron integral symmetry is turned on.
 One-electron integrals computed using PRISM.
 PrsmSu:  requested number of processors reduced to:  13 ShMem   1 Linda.
 NBasis=   352 RedAO= T EigKep=  6.55D-04  NBF=   352
 NBsUse=   352 1.00D-06 EigRej= -1.00D+00 NBFU=   352
 ExpMin= 1.61D-01 ExpMax= 3.05D+03 ExpMxC= 4.57D+02 IAcc=3 IRadAn=         5 AccDes= 0.00D+00
 Harris functional with IExCor=  402 and IRadAn=       5 diagonalized for initial guess.
 HarFok:  IExCor=  402 AccDes= 0.00D+00 IRadAn=         5 IDoV= 1 UseB2=F ITyADJ=14
 ICtDFT=  3500011 ScaDFX=  1.000000  1.000000  1.000000  1.000000
 FoFCou: FMM=F IPFlag=           0 FMFlag=      100000 FMFlg1=           0
         NFxFlg=           0 DoJE=T BraDBF=F KetDBF=T FulRan=T
         wScrn=  0.000000 ICntrl=       500 IOpCl=  0 I1Cent=   200000004 NGrid=           0
         NMat0=    1 NMatS0=      1 NMatT0=    0 NMatD0=    1 NMtDS0=    0 NMtDT0=    0
 Petite list used in FoFCou.
 Requested convergence on RMS density matrix=1.00D-08 within 128 cycles.
 Requested convergence on MAX density matrix=1.00D-06.
 Requested convergence on             energy=1.00D-06.
 No special actions if energy rises.
 Integral accuracy reduced to 1.0D-05 until final iterations.
 Initial convergence to 1.0D-05 achieved.  Increase integral accuracy.
 SCF Done:  E(RB3LYP) =  -355.037376838     A.U. after   12 cycles
            NFock= 12  Conv=0.35D-08     -V/T= 2.0093

 **********************************************************************

            Population analysis using the SCF density.

 **********************************************************************

 Orbital symmetries:
       Occupied  (A) (A) (A) (A) (A) (A) (A) (A) (A) (A) (A) (A)
                 (A) (A) (A) (A) (A) (A) (A) (A) (A) (A) (A) (A)
                 (A) (A) (A) (A) (A) (A) (A) (A) (A) (A) (A) (A)
                 (A)
       Virtual   (A) (A) (A) (A) (A) (A) (A) (A) (A) (A) (A) (A)
                 (A) (A) (A) (A) (A) (A) (A) (A) (A) (A) (A) (A)
                 (A) (A) (A) (A) (A) (A) (A) (A) (A) (A) (A) (A)
                 (A) (A) (A) (A) (A) (A) (A) (A) (A) (A) (A) (A)
                 (A) (A) (A) (A) (A) (A) (A) (A) (A) (A) (A) (A)
                 (A) (A) (A) (A) (A) (A) (A) (A) (A) (A) (A) (A)
                 (A) (A) (A) (A) (A) (A) (A) (A) (A) (A) (A) (A)
                 (A) (A) (A) (A) (A) (A) (A) (A) (A) (A) (A) (A)
                 (A) (A) (A) (A) (A) (A) (A) (A) (A) (A) (A) (A)
                 (A) (A) (A) (A) (A) (A) (A) (A) (A) (A) (A) (A)
                 (A) (A) (A) (A) (A) (A) (A) (A) (A) (A) (A) (A)
                 (A) (A) (A) (A) (A) (A) (A) (A) (A) (A) (A) (A)
                 (A) (A) (A) (A) (A) (A) (A) (A) (A) (A) (A) (A)
                 (A) (A) (A) (A) (A) (A) (A) (A) (A) (A) (A) (A)
                 (A) (A) (A) (A) (A) (A) (A) (A) (A) (A) (A) (A)
                 (A) (A) (A) (A) (A) (A) (A) (A) (A) (A) (A) (A)
                 (A) (A) (A) (A) (A) (A) (A) (A) (A) (A) (A) (A)
                 (A) (A) (A) (A) (A) (A) (A) (A) (A) (A) (A) (A)
                 (A) (A) (A) (A) (A) (A) (A) (A) (A) (A) (A) (A)
                 (A) (A) (A) (A) (A) (A) (A) (A) (A) (A) (A) (A)
                 (A) (A) (A) (A) (A) (A) (A) (A) (A) (A) (A) (A)
                 (A) (A) (A) (A) (A) (A) (A) (A) (A) (A) (A) (A)
                 (A) (A) (A) (A) (A) (A) (A) (A) (A) (A) (A) (A)
                 (A) (A) (A) (A) (A) (A) (A) (A) (A) (A) (A) (A)
                 (A) (A) (A) (A) (A) (A) (A) (A) (A) (A) (A) (A)
                 (A) (A) (A) (A) (A) (A) (A) (A) (A) (A) (A) (A)
                 (A) (A) (A)
 The electronic state is 1-A.
 Alpha  occ. eigenvalues --  -10.19136 -10.18213 -10.17060 -10.17059 -10.16479
 Alpha  occ. eigenvalues --  -10.16479 -10.16475 -10.16475 -10.16442  -0.82246
 Alpha  occ. eigenvalues --   -0.77097  -0.74198  -0.67716  -0.67488  -0.67303
 Alpha  occ. eigenvalues --   -0.59916  -0.57029  -0.51931  -0.46669  -0.45462
 Alpha  occ. eigenvalues --   -0.43370  -0.43095  -0.42534  -0.39682  -0.39306
 Alpha  occ. eigenvalues --   -0.38863  -0.37981  -0.36176  -0.35877  -0.35254
 Alpha  occ. eigenvalues --   -0.34751  -0.33704  -0.32718  -0.31645  -0.30367
 Alpha  occ. eigenvalues --   -0.29207  -0.28477
 Alpha virt. eigenvalues --    0.07788   0.09839   0.11203   0.12259   0.12548
 Alpha virt. eigenvalues --    0.13206   0.14645   0.14788   0.16092   0.16362
 Alpha virt. eigenvalues --    0.16452   0.17103   0.18675   0.19809   0.19868
 Alpha virt. eigenvalues --    0.20310   0.21874   0.22559   0.22874   0.23831
 Alpha virt. eigenvalues --    0.23973   0.24576   0.25406   0.26541   0.27270
 Alpha virt. eigenvalues --    0.28583   0.28784   0.31564   0.44193   0.44431
 Alpha virt. eigenvalues --    0.45724   0.46391   0.46638   0.48494   0.50069
 Alpha virt. eigenvalues --    0.51356   0.53031   0.53932   0.55903   0.56188
 Alpha virt. eigenvalues --    0.56749   0.59651   0.62840   0.63164   0.63628
 Alpha virt. eigenvalues --    0.64863   0.67014   0.68821   0.69811   0.70392
 Alpha virt. eigenvalues --    0.72108   0.72216   0.72975   0.73289   0.73985
 Alpha virt. eigenvalues --    0.74730   0.75251   0.75673   0.76010   0.76817
 Alpha virt. eigenvalues --    0.77378   0.77847   0.78238   0.79759   0.79824
 Alpha virt. eigenvalues --    0.82467   0.83187   0.84054   0.85544   0.87715
 Alpha virt. eigenvalues --    0.88107   0.88443   0.89615   0.90537   0.93165
 Alpha virt. eigenvalues --    0.94564   0.95108   0.95507   1.03439   1.04834
 Alpha virt. eigenvalues --    1.06188   1.12100   1.13566   1.18036   1.18715
 Alpha virt. eigenvalues --    1.19982   1.21358   1.25534   1.28583   1.28985
 Alpha virt. eigenvalues --    1.31550   1.33829   1.37476   1.38943   1.40230
 Alpha virt. eigenvalues --    1.41371   1.43055   1.44070   1.46346   1.46375
 Alpha virt. eigenvalues --    1.48534   1.50332   1.53164   1.53647   1.54981
 Alpha virt. eigenvalues --    1.56515   1.59437   1.61083   1.61122   1.62148
 Alpha virt. eigenvalues --    1.65314   1.66399   1.67843   1.73228   1.73345
 Alpha virt. eigenvalues --    1.80238   1.80847   1.81924   1.83769   1.85275
 Alpha virt. eigenvalues --    1.86244   1.86986   1.89654   1.91024   1.91768
 Alpha virt. eigenvalues --    1.94628   1.96428   1.98387   1.98715   1.99787
 Alpha virt. eigenvalues --    1.99999   2.01236   2.03542   2.05754   2.19271
 Alpha virt. eigenvalues --    2.19399   2.25267   2.26259   2.27212   2.28141
 Alpha virt. eigenvalues --    2.29866   2.30936   2.31871   2.32835   2.33004
 Alpha virt. eigenvalues --    2.35304   2.39763   2.41503   2.42853   2.46112
 Alpha virt. eigenvalues --    2.47179   2.49436   2.50527   2.50995   2.56276
 Alpha virt. eigenvalues --    2.61100   2.61975   2.69423   2.70872   2.71159
 Alpha virt. eigenvalues --    2.72566   2.74808   2.76593   2.77547   2.78448
 Alpha virt. eigenvalues --    2.80506   2.82047   2.83530   2.83690   2.86860
 Alpha virt. eigenvalues --    2.87615   2.88111   2.89148   2.90613   2.91667
 Alpha virt. eigenvalues --    2.92598   2.94471   2.94535   2.95013   2.96637
 Alpha virt. eigenvalues --    2.96714   2.98261   2.98618   2.99714   3.00969
 Alpha virt. eigenvalues --    3.04200   3.05155   3.05706   3.08023   3.08973
 Alpha virt. eigenvalues --    3.11412   3.11534   3.13514   3.19359   3.19942
 Alpha virt. eigenvalues --    3.20560   3.22244   3.28341   3.30377   3.34152
 Alpha virt. eigenvalues --    3.37745   3.38669   3.39498   3.40304   3.40611
 Alpha virt. eigenvalues --    3.47322   3.47804   3.49823   3.51389   3.52899
 Alpha virt. eigenvalues --    3.53933   3.55388   3.57422   3.59117   3.60860
 Alpha virt. eigenvalues --    3.63903   3.63994   3.65431   3.66221   3.66971
 Alpha virt. eigenvalues --    3.68264   3.68845   3.74278   3.75912   3.77345
 Alpha virt. eigenvalues --    3.79921   3.82866   3.84872   3.86349   3.87333
 Alpha virt. eigenvalues --    3.92270   3.94041   3.98012   3.99290   4.04247
 Alpha virt. eigenvalues --    4.04588   4.06185   4.11521   4.17698   4.21935
 Alpha virt. eigenvalues --    4.22141   4.25760   4.26829   4.28872   4.33726
 Alpha virt. eigenvalues --    4.39549   4.41471   4.42325   4.44842   4.46409
 Alpha virt. eigenvalues --    4.46941   4.47160   4.50319   4.51341   4.52533
 Alpha virt. eigenvalues --    4.55023   4.60377   4.60744   4.63089   4.64547
 Alpha virt. eigenvalues --    4.67396   4.67923   4.68378   4.68746   4.71106
 Alpha virt. eigenvalues --    4.71531   4.71710   4.73797   4.74954   4.75490
 Alpha virt. eigenvalues --    4.76775   4.77098   4.78478   4.80540   4.80905
 Alpha virt. eigenvalues --    4.82712   4.84263   4.84476   4.86258   4.86753
 Alpha virt. eigenvalues --    4.89477   4.90459   4.91370   4.92861   4.94328
 Alpha virt. eigenvalues --    4.97825   4.99343   5.01034   5.02766   5.04970
 Alpha virt. eigenvalues --    5.08000   5.22811   5.27407   5.36161   5.39441
 Alpha virt. eigenvalues --    5.41910   5.46937   5.51922   5.52633   5.55501
 Alpha virt. eigenvalues --    5.63931   5.73023   5.73528   5.91322   6.07966
 Alpha virt. eigenvalues --    6.17399  11.32735  11.51053  11.67366  11.99416
 Alpha virt. eigenvalues --   12.00443  12.03343  12.58839  12.72347  12.94209
          Condensed to atoms (all electrons):
               1          2          3          4          5          6
     1  C    4.981655   0.400497  -0.025726  -0.001967  -0.004415   0.002002
     2  C    0.400497   4.811927   0.420926  -0.032875  -0.001967  -0.022240
     3  C   -0.025726   0.420926   4.714040   0.420924  -0.025726   0.413679
     4  C   -0.001967  -0.032875   0.420924   4.811923   0.400500  -0.022239
     5  C   -0.004415  -0.001967  -0.025726   0.400500   4.981656   0.002002
     6  C    0.002002  -0.022240   0.413679  -0.022239   0.002002   4.357442
     7  C    0.000338  -0.007053  -0.039825  -0.007053   0.000338   0.409763
     8  C    0.000412  -0.005484  -0.033358   0.002218  -0.000135   0.391144
     9  C   -0.000135   0.002218  -0.033358  -0.005484   0.000413   0.391145
    10  H    0.368884  -0.023307   0.002998   0.000073   0.000202  -0.000065
    11  H    0.376887  -0.027191  -0.006007  -0.000826   0.000061   0.000118
    12  H    0.379787  -0.026044  -0.001558   0.000268  -0.003604  -0.000057
    13  H   -0.041682   0.368428  -0.027625   0.004410  -0.000058  -0.006474
    14  H   -0.040119   0.367281  -0.030247  -0.007196  -0.000167  -0.004108
    15  H   -0.005524  -0.045347   0.333677  -0.045346  -0.005524  -0.020933
    16  H   -0.000058   0.004410  -0.027625   0.368428  -0.041682  -0.006474
    17  H   -0.000167  -0.007196  -0.030247   0.367282  -0.040120  -0.004108
    18  H    0.000061  -0.000826  -0.006008  -0.027191   0.376885   0.000118
    19  H    0.000202   0.000073   0.002999  -0.023308   0.368883  -0.000065
    20  H   -0.003605   0.000268  -0.001558  -0.026044   0.379786  -0.000057
    21  H   -0.000176  -0.000446  -0.004768   0.000112  -0.000012  -0.019353
    22  H   -0.000012   0.000112  -0.004768  -0.000446  -0.000176  -0.019352
    23  H   -0.000003   0.000082   0.004379   0.000082  -0.000003  -0.020850
    24  H   -0.000231  -0.002143  -0.004574   0.000049   0.000001  -0.016828
    25  H   -0.000004   0.000266   0.003667  -0.000106   0.000001  -0.017412
    26  H   -0.000047  -0.000328  -0.004852   0.000122   0.000001  -0.017777
    27  H    0.000001   0.000049  -0.004574  -0.002143  -0.000231  -0.016828
    28  H    0.000001   0.000122  -0.004852  -0.000328  -0.000047  -0.017777
    29  H    0.000001  -0.000106   0.003667   0.000266  -0.000004  -0.017413
               7          8          9         10         11         12
     1  C    0.000338   0.000412  -0.000135   0.368884   0.376887   0.379787
     2  C   -0.007053  -0.005484   0.002218  -0.023307  -0.027191  -0.026044
     3  C   -0.039825  -0.033358  -0.033358   0.002998  -0.006007  -0.001558
     4  C   -0.007053   0.002218  -0.005484   0.000073  -0.000826   0.000268
     5  C    0.000338  -0.000135   0.000413   0.000202   0.000061  -0.003604
     6  C    0.409763   0.391144   0.391145  -0.000065   0.000118  -0.000057
     7  C    5.061752  -0.054623  -0.054623   0.000001   0.000004  -0.000002
     8  C   -0.054623   5.095643  -0.053138   0.000002  -0.000011  -0.000001
     9  C   -0.054623  -0.053138   5.095646   0.000001  -0.000003   0.000001
    10  H    0.000001   0.000002   0.000001   0.621921  -0.031922  -0.033693
    11  H    0.000004  -0.000011  -0.000003  -0.031922   0.601646  -0.033811
    12  H   -0.000002  -0.000001   0.000001  -0.033693  -0.033811   0.596222
    13  H   -0.000457   0.000338   0.000256  -0.008694  -0.001373   0.005790
    14  H    0.000303  -0.000431   0.000107   0.000252   0.005738  -0.007380
    15  H    0.005495  -0.006079  -0.006079  -0.000050   0.005826  -0.000155
    16  H   -0.000457   0.000256   0.000338   0.000006  -0.000033  -0.000029
    17  H    0.000303   0.000107  -0.000431  -0.000007   0.000086   0.000084
    18  H    0.000004  -0.000003  -0.000011   0.000016   0.001193  -0.000049
    19  H    0.000001   0.000001   0.000002  -0.000011   0.000016   0.000180
    20  H   -0.000002   0.000001  -0.000001   0.000180  -0.000049   0.005863
    21  H    0.365495  -0.004968   0.005651   0.000007   0.000003   0.000007
    22  H    0.365496   0.005651  -0.004968   0.000000   0.000000   0.000000
    23  H    0.366140  -0.005601  -0.005601  -0.000000   0.000000  -0.000000
    24  H   -0.004791   0.363992   0.005654   0.000009   0.000010   0.000002
    25  H   -0.004472   0.363510  -0.006932  -0.000000  -0.000000   0.000000
    26  H    0.005597   0.361369  -0.004201  -0.000000   0.000010   0.000000
    27  H   -0.004791   0.005654   0.363990   0.000000   0.000000   0.000000
    28  H    0.005597  -0.004201   0.361369   0.000000   0.000001   0.000000
    29  H   -0.004472  -0.006932   0.363508  -0.000000   0.000000  -0.000000
              13         14         15         16         17         18
     1  C   -0.041682  -0.040119  -0.005524  -0.000058  -0.000167   0.000061
     2  C    0.368428   0.367281  -0.045347   0.004410  -0.007196  -0.000826
     3  C   -0.027625  -0.030247   0.333677  -0.027625  -0.030247  -0.006008
     4  C    0.004410  -0.007196  -0.045346   0.368428   0.367282  -0.027191
     5  C   -0.000058  -0.000167  -0.005524  -0.041682  -0.040120   0.376885
     6  C   -0.006474  -0.004108  -0.020933  -0.006474  -0.004108   0.000118
     7  C   -0.000457   0.000303   0.005495  -0.000457   0.000303   0.000004
     8  C    0.000338  -0.000431  -0.006079   0.000256   0.000107  -0.000003
     9  C    0.000256   0.000107  -0.006079   0.000338  -0.000431  -0.000011
    10  H   -0.008694   0.000252  -0.000050   0.000006  -0.000007   0.000016
    11  H   -0.001373   0.005738   0.005826  -0.000033   0.000086   0.001193
    12  H    0.005790  -0.007380  -0.000155  -0.000029   0.000084  -0.000049
    13  H    0.646618  -0.040134  -0.003140  -0.000211  -0.000024  -0.000033
    14  H   -0.040134   0.645156   0.006642  -0.000024   0.004237   0.000086
    15  H   -0.003140   0.006642   0.707202  -0.003140   0.006642   0.005827
    16  H   -0.000211  -0.000024  -0.003140   0.646617  -0.040134  -0.001373
    17  H   -0.000024   0.004237   0.006642  -0.040134   0.645155   0.005738
    18  H   -0.000033   0.000086   0.005827  -0.001373   0.005738   0.601648
    19  H    0.000006  -0.000007  -0.000050  -0.008695   0.000252  -0.031922
    20  H   -0.000029   0.000084  -0.000155   0.005790  -0.007380  -0.033810
    21  H    0.000653   0.004670   0.000017   0.000016   0.000448   0.000000
    22  H    0.000016   0.000448   0.000017   0.000653   0.004670   0.000003
    23  H   -0.000052  -0.000123  -0.000145  -0.000052  -0.000123   0.000000
    24  H    0.004939   0.000634   0.000037  -0.000003  -0.000003   0.000000
    25  H   -0.000208  -0.000043  -0.000102  -0.000005   0.000001   0.000000
    26  H    0.001134   0.000062   0.004720  -0.000013   0.000004   0.000001
    27  H   -0.000003  -0.000003   0.000037   0.004939   0.000634   0.000010
    28  H   -0.000013   0.000004   0.004720   0.001134   0.000062   0.000010
    29  H   -0.000005   0.000001  -0.000102  -0.000208  -0.000043  -0.000000
              19         20         21         22         23         24
     1  C    0.000202  -0.003605  -0.000176  -0.000012  -0.000003  -0.000231
     2  C    0.000073   0.000268  -0.000446   0.000112   0.000082  -0.002143
     3  C    0.002999  -0.001558  -0.004768  -0.004768   0.004379  -0.004574
     4  C   -0.023308  -0.026044   0.000112  -0.000446   0.000082   0.000049
     5  C    0.368883   0.379786  -0.000012  -0.000176  -0.000003   0.000001
     6  C   -0.000065  -0.000057  -0.019353  -0.019352  -0.020850  -0.016828
     7  C    0.000001  -0.000002   0.365495   0.365496   0.366140  -0.004791
     8  C    0.000001   0.000001  -0.004968   0.005651  -0.005601   0.363992
     9  C    0.000002  -0.000001   0.005651  -0.004968  -0.005601   0.005654
    10  H   -0.000011   0.000180   0.000007   0.000000  -0.000000   0.000009
    11  H    0.000016  -0.000049   0.000003   0.000000   0.000000   0.000010
    12  H    0.000180   0.005863   0.000007   0.000000  -0.000000   0.000002
    13  H    0.000006  -0.000029   0.000653   0.000016  -0.000052   0.004939
    14  H   -0.000007   0.000084   0.004670   0.000448  -0.000123   0.000634
    15  H   -0.000050  -0.000155   0.000017   0.000017  -0.000145   0.000037
    16  H   -0.008695   0.005790   0.000016   0.000653  -0.000052  -0.000003
    17  H    0.000252  -0.007380   0.000448   0.004670  -0.000123  -0.000003
    18  H   -0.031922  -0.033810   0.000000   0.000003   0.000000   0.000000
    19  H    0.621922  -0.033692   0.000000   0.000007  -0.000000   0.000000
    20  H   -0.033692   0.596224   0.000000   0.000007  -0.000000   0.000000
    21  H    0.000000   0.000000   0.604724  -0.033690  -0.032097   0.003756
    22  H    0.000007   0.000007  -0.033690   0.604722  -0.032098  -0.000063
    23  H   -0.000000  -0.000000  -0.032097  -0.032098   0.612640  -0.000007
    24  H    0.000000   0.000000   0.003756  -0.000063  -0.000007   0.604156
    25  H   -0.000000  -0.000000  -0.000037  -0.000066   0.004077  -0.032531
    26  H    0.000000   0.000000  -0.000050  -0.000217  -0.000041  -0.033622
    27  H    0.000009   0.000002  -0.000063   0.003756  -0.000007  -0.000223
    28  H   -0.000000   0.000000  -0.000217  -0.000050  -0.000041  -0.000068
    29  H   -0.000000   0.000000  -0.000066  -0.000037   0.004077  -0.000005
              25         26         27         28         29
     1  C   -0.000004  -0.000047   0.000001   0.000001   0.000001
     2  C    0.000266  -0.000328   0.000049   0.000122  -0.000106
     3  C    0.003667  -0.004852  -0.004574  -0.004852   0.003667
     4  C   -0.000106   0.000122  -0.002143  -0.000328   0.000266
     5  C    0.000001   0.000001  -0.000231  -0.000047  -0.000004
     6  C   -0.017412  -0.017777  -0.016828  -0.017777  -0.017413
     7  C   -0.004472   0.005597  -0.004791   0.005597  -0.004472
     8  C    0.363510   0.361369   0.005654  -0.004201  -0.006932
     9  C   -0.006932  -0.004201   0.363990   0.361369   0.363508
    10  H   -0.000000  -0.000000   0.000000   0.000000  -0.000000
    11  H   -0.000000   0.000010   0.000000   0.000001   0.000000
    12  H    0.000000   0.000000   0.000000   0.000000  -0.000000
    13  H   -0.000208   0.001134  -0.000003  -0.000013  -0.000005
    14  H   -0.000043   0.000062  -0.000003   0.000004   0.000001
    15  H   -0.000102   0.004720   0.000037   0.004720  -0.000102
    16  H   -0.000005  -0.000013   0.004939   0.001134  -0.000208
    17  H    0.000001   0.000004   0.000634   0.000062  -0.000043
    18  H    0.000000   0.000001   0.000010   0.000010  -0.000000
    19  H   -0.000000   0.000000   0.000009  -0.000000  -0.000000
    20  H   -0.000000   0.000000   0.000002   0.000000   0.000000
    21  H   -0.000037  -0.000050  -0.000063  -0.000217  -0.000066
    22  H   -0.000066  -0.000217   0.003756  -0.000050  -0.000037
    23  H    0.004077  -0.000041  -0.000007  -0.000041   0.004077
    24  H   -0.032531  -0.033622  -0.000223  -0.000068  -0.000005
    25  H    0.612120  -0.032617  -0.000005   0.000010   0.004645
    26  H   -0.032617   0.612898  -0.000068   0.003830   0.000010
    27  H   -0.000005  -0.000068   0.604157  -0.033622  -0.032530
    28  H    0.000010   0.003830  -0.033622   0.612897  -0.032617
    29  H    0.004645   0.000010  -0.032530  -0.032617   0.612123
 Mulliken charges:
               1
     1  C   -0.386857
     2  C   -0.174108
     3  C   -0.003699
     4  C   -0.174105
     5  C   -0.386857
     6  C    0.282995
     7  C   -0.404006
     8  C   -0.415334
     9  C   -0.415334
    10  H    0.103198
    11  H    0.109626
    12  H    0.118177
    13  H    0.097629
    14  H    0.094276
    15  H    0.061017
    16  H    0.097629
    17  H    0.094276
    18  H    0.109625
    19  H    0.103197
    20  H    0.118177
    21  H    0.110385
    22  H    0.110386
    23  H    0.105367
    24  H    0.111854
    25  H    0.106242
    26  H    0.104076
    27  H    0.111853
    28  H    0.104077
    29  H    0.106241
 Sum of Mulliken charges =  -0.00000
 Mulliken charges with hydrogens summed into heavy atoms:
               1
     1  C   -0.055856
     2  C    0.017796
     3  C    0.057318
     4  C    0.017800
     5  C   -0.055858
     6  C    0.282995
     7  C   -0.077869
     8  C   -0.093162
     9  C   -0.093164
 Electronic spatial extent (au):  <R**2>=           1579.2851
 Charge=             -0.0000 electrons
 Dipole moment (field-independent basis, Debye):
    X=             -0.0415    Y=              0.0000    Z=              0.0666  Tot=              0.0784
 Quadrupole moment (field-independent basis, Debye-Ang):
   XX=            -62.5512   YY=            -61.5638   ZZ=            -61.0402
   XY=              0.0000   XZ=              0.2661   YZ=             -0.0000
 Traceless Quadrupole moment (field-independent basis, Debye-Ang):
   XX=             -0.8328   YY=              0.1546   ZZ=              0.6782
   XY=              0.0000   XZ=              0.2661   YZ=             -0.0000
 Octapole moment (field-independent basis, Debye-Ang**2):
  XXX=             -5.9772  YYY=              0.0001  ZZZ=             -2.2870  XYY=              1.1292
  XXY=              0.0001  XXZ=              2.7349  XZZ=              2.6860  YZZ=             -0.0000
  YYZ=              1.7689  XYZ=              0.0001
 Hexadecapole moment (field-independent basis, Debye-Ang**3):
 XXXX=          -1269.1981 YYYY=           -633.5619 ZZZZ=           -285.8122 XXXY=              0.0001
 XXXZ=              2.0044 YYYX=             -0.0001 YYYZ=             -0.0000 ZZZX=              1.7818
 ZZZY=             -0.0002 XXYY=           -326.9797 XXZZ=           -259.8059 YYZZ=           -156.5851
 XXYZ=             -0.0000 YYXZ=             -0.4254 ZZXY=              0.0002
 N-N= 5.085562839712D+02 E-N=-1.836850425578D+03  KE= 3.517589785773D+02
 PrsmSu:  requested number of processors reduced to:  13 ShMem   1 Linda.
 Calling FoFJK, ICntrl=      2127 FMM=F ISym2X=0 I1Cent= 0 IOpClX= 0 NMat=1 NMatS=1 NMatT=0.
 ***** Axes restored to original set *****
 -------------------------------------------------------------------
 Center     Atomic                   Forces (Hartrees/Bohr)
 Number     Number              X              Y              Z
 -------------------------------------------------------------------
      1        6          -0.006495301   -0.007005464    0.000804213
      2        6           0.005229514    0.005779462   -0.003071794
      3        6           0.007447539   -0.008387175    0.004892901
      4        6           0.005234212    0.005519749   -0.003522340
      5        6          -0.006504614   -0.004147567    0.005702710
      6        6           0.001998696    0.001090704   -0.000636175
      7        6          -0.001363416   -0.001723980    0.001000268
      8        6          -0.002093148   -0.001634442   -0.000650469
      9        6          -0.002085989   -0.000238260    0.001749155
     10        1           0.000243868    0.001633098   -0.002573542
     11        1          -0.002770570    0.000595449    0.000290368
     12        1          -0.003260584    0.003659496   -0.000236859
     13        1           0.004905619    0.000342263    0.002818117
     14        1           0.002367534   -0.001013620    0.000910771
     15        1           0.000291727    0.001010744   -0.000589173
     16        1           0.004906657   -0.002283386   -0.001683858
     17        1           0.002367943   -0.001292603    0.000434204
     18        1          -0.002768806    0.000037887   -0.000658957
     19        1           0.000245002    0.003042176   -0.000158722
     20        1          -0.003258981    0.002010750   -0.003067628
     21        1           0.000184834   -0.000037107    0.000492056
     22        1           0.000182820   -0.000445904   -0.000205855
     23        1           0.000053938    0.001759678   -0.001026602
     24        1          -0.001019821    0.000505694   -0.000103000
     25        1          -0.001083518    0.001497937    0.002171757
     26        1          -0.000422936   -0.000131177   -0.000842211
     27        1          -0.001019111    0.000338605   -0.000394798
     28        1          -0.000423982    0.000669773    0.000528174
     29        1          -0.001089124   -0.001152779   -0.002372710
 -------------------------------------------------------------------
 Cartesian Forces:  Max     0.008387175 RMS     0.002815438

 GradGradGradGradGradGradGradGradGradGradGradGradGradGradGradGradGradGrad
 Berny optimization.
 FormGI is forming the generalized inverse of G from B-inverse, IUseBI=4.
 Internal  Forces:  Max     0.012445847 RMS     0.002351462
 Search for a local minimum.
 Step number   1 out of a maximum of  164
 All quantities printed in internal units (Hartrees-Bohrs-Radians)
 Mixed Optimization -- RFO/linear search
 Second derivative matrix not updated -- first step.
 ITU=  0
     Eigenvalues ---    0.00230   0.00230   0.00230   0.00230   0.00230
     Eigenvalues ---    0.00230   0.00507   0.00507   0.03110   0.03110
     Eigenvalues ---    0.03237   0.04282   0.04481   0.04617   0.04737
     Eigenvalues ---    0.04737   0.04925   0.05217   0.05217   0.05261
     Eigenvalues ---    0.05370   0.05370   0.05380   0.05424   0.05424
     Eigenvalues ---    0.05512   0.05816   0.05816   0.09133   0.09133
     Eigenvalues ---    0.12761   0.12761   0.14213   0.14501   0.16000
     Eigenvalues ---    0.16000   0.16000   0.16000   0.16000   0.16000
     Eigenvalues ---    0.16000   0.16000   0.16000   0.16000   0.16000
     Eigenvalues ---    0.16000   0.16000   0.16000   0.16000   0.16825
     Eigenvalues ---    0.17301   0.22023   0.22023   0.23970   0.27061
     Eigenvalues ---    0.27062   0.27865   0.27866   0.28254   0.30406
     Eigenvalues ---    0.30407   0.33833   0.34017   0.34018   0.34198
     Eigenvalues ---    0.34198   0.34207   0.34211   0.34212   0.34234
     Eigenvalues ---    0.34234   0.34320   0.34321   0.34434   0.34435
     Eigenvalues ---    0.34484   0.34485   0.34595   0.34596   0.34817
     Eigenvalues ---    0.34818
 RFO step:  Lambda=-7.74257570D-03 EMin= 2.30000000D-03
 Linear search not attempted -- first point.
 Iteration  1 RMS(Cart)=  0.11448794 RMS(Int)=  0.00415709
 Iteration  2 RMS(Cart)=  0.00651461 RMS(Int)=  0.00023340
 Iteration  3 RMS(Cart)=  0.00001287 RMS(Int)=  0.00023324
 Iteration  4 RMS(Cart)=  0.00000000 RMS(Int)=  0.00023324
 Variable       Old X    -DE/DX   Delta X   Delta X   Delta X     New X
                                 (Linear)    (Quad)   (Total)
    R1        2.87161   0.01244   0.00000   0.03990   0.03990   2.91151
    R2        2.06974   0.00066   0.00000   0.00189   0.00189   2.07162
    R3        2.06336   0.00148   0.00000   0.00419   0.00419   2.06755
    R4        2.05972   0.00022   0.00000   0.00062   0.00062   2.06034
    R5        2.94237  -0.00271   0.00000  -0.00972  -0.00972   2.93265
    R6        2.06937  -0.00058   0.00000  -0.00165  -0.00165   2.06772
    R7        2.06520   0.00195   0.00000   0.00554   0.00554   2.07074
    R8        2.94238  -0.00271   0.00000  -0.00973  -0.00973   2.93265
    R9        3.01903  -0.00816   0.00000  -0.03298  -0.03298   2.98604
   R10        2.07613   0.00102   0.00000   0.00294   0.00294   2.07907
   R11        2.87159   0.01245   0.00000   0.03991   0.03991   2.91151
   R12        2.06937  -0.00058   0.00000  -0.00165  -0.00165   2.06772
   R13        2.06520   0.00195   0.00000   0.00554   0.00554   2.07074
   R14        2.06337   0.00148   0.00000   0.00418   0.00418   2.06755
   R15        2.06975   0.00065   0.00000   0.00187   0.00187   2.07162
   R16        2.05973   0.00022   0.00000   0.00061   0.00061   2.06034
   R17        2.91586   0.00010   0.00000   0.00036   0.00036   2.91622
   R18        2.92434  -0.00216   0.00000  -0.00754  -0.00754   2.91680
   R19        2.92433  -0.00216   0.00000  -0.00753  -0.00753   2.91680
   R20        2.06793  -0.00023   0.00000  -0.00067  -0.00067   2.06726
   R21        2.06791  -0.00023   0.00000  -0.00065  -0.00065   2.06726
   R22        2.06983   0.00012   0.00000   0.00035   0.00035   2.07018
   R23        2.06602  -0.00014   0.00000  -0.00040  -0.00040   2.06562
   R24        2.07300  -0.00099   0.00000  -0.00285  -0.00285   2.07015
   R25        2.06998   0.00047   0.00000   0.00136   0.00136   2.07133
   R26        2.06604  -0.00015   0.00000  -0.00042  -0.00042   2.06562
   R27        2.06997   0.00048   0.00000   0.00136   0.00136   2.07133
   R28        2.07302  -0.00100   0.00000  -0.00287  -0.00287   2.07015
    A1        1.91330  -0.00088   0.00000  -0.00179  -0.00201   1.91129
    A2        1.95214   0.00150   0.00000   0.00106   0.00108   1.95323
    A3        1.95072   0.00440   0.00000   0.03040   0.03025   1.98096
    A4        1.89105  -0.00150   0.00000  -0.01749  -0.01751   1.87354
    A5        1.83263   0.00044   0.00000   0.01861   0.01823   1.85086
    A6        1.91934  -0.00420   0.00000  -0.03113  -0.03108   1.88827
    A7        2.05079   0.00361   0.00000   0.02144   0.02140   2.07220
    A8        1.82756   0.00189   0.00000   0.02099   0.02132   1.84888
    A9        1.88756   0.00055   0.00000   0.02088   0.02081   1.90837
   A10        1.90111  -0.00404   0.00000  -0.03730  -0.03760   1.86352
   A11        1.92272  -0.00193   0.00000  -0.01071  -0.01138   1.91134
   A12        1.86374  -0.00020   0.00000  -0.01793  -0.01868   1.84507
   A13        1.97629   0.00548   0.00000   0.05268   0.05241   2.02870
   A14        1.93314  -0.00148   0.00000   0.00376   0.00271   1.93585
   A15        1.87524  -0.00096   0.00000  -0.01103  -0.01114   1.86410
   A16        1.93314  -0.00148   0.00000   0.00376   0.00270   1.93585
   A17        1.87524  -0.00096   0.00000  -0.01103  -0.01114   1.86410
   A18        1.86547  -0.00091   0.00000  -0.04518  -0.04532   1.82015
   A19        2.05080   0.00361   0.00000   0.02144   0.02140   2.07220
   A20        1.90110  -0.00404   0.00000  -0.03729  -0.03759   1.86351
   A21        1.92273  -0.00193   0.00000  -0.01072  -0.01138   1.91134
   A22        1.82756   0.00189   0.00000   0.02099   0.02132   1.84888
   A23        1.88757   0.00055   0.00000   0.02088   0.02081   1.90838
   A24        1.86375  -0.00021   0.00000  -0.01793  -0.01868   1.84507
   A25        1.95215   0.00150   0.00000   0.00106   0.00108   1.95323
   A26        1.91331  -0.00088   0.00000  -0.00180  -0.00201   1.91129
   A27        1.95072   0.00440   0.00000   0.03041   0.03025   1.98097
   A28        1.89104  -0.00150   0.00000  -0.01748  -0.01751   1.87354
   A29        1.91934  -0.00420   0.00000  -0.03113  -0.03107   1.88826
   A30        1.83263   0.00044   0.00000   0.01860   0.01823   1.85086
   A31        1.94522   0.00261   0.00000   0.02275   0.02294   1.96817
   A32        1.94516  -0.00208   0.00000  -0.02350  -0.02370   1.92146
   A33        1.94515  -0.00208   0.00000  -0.02349  -0.02369   1.92146
   A34        1.88661  -0.00011   0.00000   0.00954   0.00962   1.89623
   A35        1.88661  -0.00011   0.00000   0.00955   0.00962   1.89623
   A36        1.85118   0.00181   0.00000   0.00598   0.00549   1.85667
   A37        1.95093   0.00105   0.00000   0.00738   0.00735   1.95827
   A38        1.95094   0.00105   0.00000   0.00736   0.00733   1.95827
   A39        1.94161  -0.00323   0.00000  -0.02146  -0.02144   1.92017
   A40        1.88429  -0.00066   0.00000   0.00007   0.00000   1.88430
   A41        1.86581   0.00092   0.00000   0.00341   0.00343   1.86923
   A42        1.86580   0.00092   0.00000   0.00341   0.00343   1.86923
   A43        1.96659   0.00023   0.00000   0.00324   0.00325   1.96984
   A44        1.93708  -0.00307   0.00000  -0.01806  -0.01805   1.91902
   A45        1.93929   0.00097   0.00000   0.00367   0.00365   1.94294
   A46        1.84859   0.00203   0.00000   0.01613   0.01616   1.86475
   A47        1.89021  -0.00072   0.00000  -0.00465  -0.00465   1.88556
   A48        1.87759   0.00065   0.00000   0.00023   0.00020   1.87779
   A49        1.96659   0.00023   0.00000   0.00324   0.00325   1.96984
   A50        1.93930   0.00097   0.00000   0.00367   0.00365   1.94295
   A51        1.93707  -0.00307   0.00000  -0.01805  -0.01805   1.91903
   A52        1.89021  -0.00072   0.00000  -0.00465  -0.00465   1.88556
   A53        1.84858   0.00203   0.00000   0.01613   0.01616   1.86475
   A54        1.87759   0.00065   0.00000   0.00023   0.00020   1.87778
    D1        2.87626  -0.00214   0.00000  -0.03732  -0.03747   2.83879
    D2        0.76475  -0.00061   0.00000  -0.01867  -0.01883   0.74591
    D3       -1.21786  -0.00150   0.00000  -0.01719  -0.01715  -1.23501
    D4        0.77833  -0.00062   0.00000  -0.01483  -0.01492   0.76342
    D5       -1.33318   0.00090   0.00000   0.00381   0.00372  -1.32946
    D6        2.96740   0.00001   0.00000   0.00530   0.00540   2.97280
    D7       -1.38243   0.00046   0.00000   0.00242   0.00247  -1.37996
    D8        2.78924   0.00199   0.00000   0.02106   0.02111   2.81034
    D9        0.80664   0.00110   0.00000   0.02255   0.02279   0.82942
   D10        1.10572   0.00122   0.00000   0.09840   0.09823   1.20396
   D11       -2.99373   0.00226   0.00000   0.14669   0.14696  -2.84677
   D12       -0.96211  -0.00018   0.00000   0.08822   0.08829  -0.87383
   D13       -3.10467   0.00298   0.00000   0.11134   0.11079  -2.99388
   D14       -0.92093   0.00402   0.00000   0.15963   0.15951  -0.76142
   D15        1.11068   0.00157   0.00000   0.10117   0.10084   1.21152
   D16       -1.06585  -0.00073   0.00000   0.06177   0.06183  -1.00402
   D17        1.11788   0.00031   0.00000   0.11006   0.11055   1.22844
   D18       -3.13369  -0.00214   0.00000   0.05160   0.05189  -3.08180
   D19       -1.10573  -0.00122   0.00000  -0.09839  -0.09823  -1.20396
   D20        3.10467  -0.00298   0.00000  -0.11135  -0.11079   2.99388
   D21        1.06585   0.00073   0.00000  -0.06177  -0.06183   1.00402
   D22        2.99372  -0.00226   0.00000  -0.14669  -0.14695   2.84677
   D23        0.92093  -0.00402   0.00000  -0.15964  -0.15952   0.76142
   D24       -1.11788  -0.00031   0.00000  -0.11007  -0.11056  -1.22844
   D25        0.96210   0.00019   0.00000  -0.08822  -0.08828   0.87382
   D26       -1.11068  -0.00157   0.00000  -0.10117  -0.10084  -1.21152
   D27        3.13369   0.00214   0.00000  -0.05160  -0.05189   3.08180
   D28       -1.10395  -0.00246   0.00000  -0.03726  -0.03702  -1.14097
   D29        1.00544  -0.00224   0.00000  -0.02558  -0.02558   0.97986
   D30        3.06984  -0.00269   0.00000  -0.04895  -0.04847   3.02137
   D31        1.10394   0.00247   0.00000   0.03727   0.03702   1.14097
   D32       -3.06985   0.00269   0.00000   0.04895   0.04847  -3.02138
   D33       -1.00545   0.00224   0.00000   0.02558   0.02558  -0.97987
   D34        3.14159  -0.00000   0.00000  -0.00000  -0.00000   3.14159
   D35       -1.03220   0.00023   0.00000   0.01168   0.01144  -1.02076
   D36        1.03220  -0.00023   0.00000  -0.01169  -0.01145   1.02075
   D37       -0.77832   0.00062   0.00000   0.01482   0.01491  -0.76342
   D38       -2.87625   0.00214   0.00000   0.03731   0.03746  -2.83879
   D39        1.38243  -0.00046   0.00000  -0.00242  -0.00247   1.37996
   D40        1.33317  -0.00090   0.00000  -0.00381  -0.00372   1.32945
   D41       -0.76475   0.00061   0.00000   0.01867   0.01883  -0.74592
   D42       -2.78925  -0.00199   0.00000  -0.02105  -0.02110  -2.81035
   D43       -2.96740  -0.00001   0.00000  -0.00530  -0.00540  -2.97281
   D44        1.21786   0.00150   0.00000   0.01718   0.01715   1.23501
   D45       -0.80664  -0.00110   0.00000  -0.02254  -0.02278  -0.82943
   D46        1.05724   0.00032   0.00000   0.00527   0.00529   1.06252
   D47       -1.05723  -0.00032   0.00000  -0.00527  -0.00529  -1.06252
   D48        3.14159   0.00000   0.00000  -0.00000  -0.00000   3.14159
   D49       -1.08607   0.00132   0.00000   0.01360   0.01352  -1.07255
   D50        3.08265   0.00068   0.00000   0.00306   0.00294   3.08559
   D51        0.99829   0.00100   0.00000   0.00833   0.00823   1.00652
   D52       -3.08265  -0.00068   0.00000  -0.00306  -0.00294  -3.08558
   D53        1.08607  -0.00132   0.00000  -0.01360  -0.01352   1.07255
   D54       -0.99829  -0.00100   0.00000  -0.00833  -0.00822  -1.00652
   D55       -1.11825  -0.00149   0.00000  -0.03953  -0.03955  -1.15780
   D56        3.09507  -0.00212   0.00000  -0.04982  -0.04981   3.04525
   D57        1.00661  -0.00155   0.00000  -0.04057  -0.04058   0.96602
   D58        1.02509   0.00037   0.00000  -0.01967  -0.01973   1.00536
   D59       -1.04478  -0.00027   0.00000  -0.02996  -0.03000  -1.07477
   D60       -3.13323   0.00031   0.00000  -0.02071  -0.02077   3.12918
   D61        3.04495   0.00109   0.00000  -0.00109  -0.00104   3.04391
   D62        0.97508   0.00046   0.00000  -0.01138  -0.01131   0.96378
   D63       -1.11338   0.00104   0.00000  -0.00213  -0.00207  -1.11545
   D64        1.11826   0.00149   0.00000   0.03953   0.03955   1.15780
   D65       -1.00661   0.00155   0.00000   0.04057   0.04059  -0.96602
   D66       -3.09507   0.00212   0.00000   0.04983   0.04982  -3.04525
   D67       -1.02509  -0.00037   0.00000   0.01967   0.01973  -1.00536
   D68        3.13323  -0.00031   0.00000   0.02071   0.02077  -3.12919
   D69        1.04477   0.00027   0.00000   0.02996   0.03000   1.07477
   D70       -3.04495  -0.00109   0.00000   0.00109   0.00104  -3.04391
   D71        1.11337  -0.00104   0.00000   0.00213   0.00208   1.11545
   D72       -0.97509  -0.00046   0.00000   0.01139   0.01131  -0.96378
         Item               Value     Threshold  Converged?
 Maximum Force            0.012446     0.000450     NO 
 RMS     Force            0.002351     0.000300     NO 
 Maximum Displacement     0.418297     0.001800     NO 
 RMS     Displacement     0.116031     0.001200     NO 
 Predicted change in Energy=-4.899092D-03
 GradGradGradGradGradGradGradGradGradGradGradGradGradGradGradGradGradGrad

                          Input orientation:                          
 ---------------------------------------------------------------------
 Center     Atomic      Atomic             Coordinates (Angstroms)
 Number     Number       Type             X           Y           Z
 ---------------------------------------------------------------------
      1          6           0        0.969083   -0.091302   -0.353606
      2          6           0        2.454577   -0.048094    0.052866
      3          6           0        2.969348    1.166810    0.869801
      4          6           0        2.454572    1.279744    2.329465
      5          6           0        0.969081    1.612272    2.567188
      6          6           0        4.546341    1.252997    0.819538
      7          6           0        5.232205    0.058863    1.516028
      8          6           0        5.027671    1.312530   -0.645792
      9          6           0        5.027664    2.557747    1.489137
     10          1           0        0.831645   -0.819329   -1.161605
     11          1           0        0.618742    0.876837   -0.723766
     12          1           0        0.306728   -0.407334    0.452697
     13          1           0        3.022440   -0.063180   -0.882311
     14          1           0        2.715517   -0.976294    0.573546
     15          1           0        2.631067    2.071129    0.342353
     16          1           0        3.022439    2.086302    2.803009
     17          1           0        2.715512    0.369559    2.881031
     18          1           0        0.618743    2.411110    1.906755
     19          1           0        0.831637    1.957131    3.598671
     20          1           0        0.306719    0.754872    2.445293
     21          1           0        4.974357   -0.896017    1.048653
     22          1           0        4.974351   -0.004445    2.577264
     23          1           0        6.320931    0.163858    1.454792
     24          1           0        4.826299    0.390201   -1.196772
     25          1           0        6.111183    1.470897   -0.677202
     26          1           0        4.556022    2.140905   -1.186884
     27          1           0        4.826291    2.583242    2.563205
     28          1           0        4.556019    3.436551    1.034503
     29          1           0        6.111178    2.663057    1.366764
 ---------------------------------------------------------------------
                    Distance matrix (angstroms):
                    1          2          3          4          5
     1  C    0.000000
     2  C    1.540707   0.000000
     3  C    2.660945   1.551890   0.000000
     4  C    3.359363   2.635537   1.551892   0.000000
     5  C    3.381302   3.359364   2.660945   1.540704   0.000000
     6  C    3.997522   2.579942   1.580147   2.579941   3.997518
     7  C    4.657498   3.141258   2.601092   3.141254   4.657493
     8  C    4.304446   2.993365   2.560264   3.933709   5.185097
     9  C    5.185099   3.933709   2.560264   2.993367   4.304442
    10  H    1.096255   2.168791   3.555437   4.384926   4.453703
    11  H    1.094098   2.197485   2.854625   3.585363   3.390278
    12  H    1.090283   2.214085   3.121130   3.313869   2.998098
    13  H    2.120517   1.094190   2.141399   3.527240   4.349996
    14  H    2.166299   1.095789   2.178323   2.870724   3.704770
    15  H    2.814722   2.146172   1.100194   2.146172   2.814718
    16  H    4.349995   3.527237   2.141397   1.094190   2.120518
    17  H    3.704765   2.870721   2.178322   1.095789   2.166300
    18  H    3.390286   3.585369   2.854628   2.197485   1.094098
    19  H    4.453702   4.384927   3.555439   2.168791   1.096255
    20  H    2.998095   3.313873   3.121131   2.214087   1.090283
    21  H    4.319273   2.838989   2.882240   3.567035   4.963839
    22  H    4.963841   3.567037   2.882240   2.838985   4.319267
    23  H    5.654881   4.118132   3.547004   4.118129   5.654876
    24  H    3.977548   2.716388   2.884807   4.341742   5.526209
    25  H    5.383899   4.026301   3.515226   4.737868   6.081715
    26  H    4.306185   3.277922   2.774230   4.185977   5.219067
    27  H    5.526213   4.341746   2.884811   2.716394   3.977546
    28  H    5.219071   4.185979   2.774234   3.277929   4.306186
    29  H    6.081719   4.737869   3.515228   4.026303   5.383895
                    6          7          8          9         10
     6  C    0.000000
     7  C    1.543199   0.000000
     8  C    1.543506   2.507384   0.000000
     9  C    1.543506   2.507385   2.471535   0.000000
    10  H    4.692380   5.225502   4.734715   6.003138   0.000000
    11  H    4.236663   5.193245   4.431090   5.211621   1.764656
    12  H    4.567887   5.060468   5.143143   5.670376   1.746782
    13  H    2.636453   3.263431   2.443250   4.063736   2.334384
    14  H    2.895197   2.879851   3.474415   4.321317   2.566001
    15  H    2.136661   3.491796   2.701039   2.701035   3.722172
    16  H    2.636444   3.263418   4.063731   2.443246   5.381491
    17  H    2.895195   2.879846   4.321314   3.474419   4.615768
    18  H    4.236661   5.193243   5.211624   4.431083   4.460482
    19  H    4.692379   5.225497   6.003139   4.734715   5.510804
    20  H    4.567889   5.060472   5.670377   5.143143   3.970311
    21  H    2.203168   1.093947   2.784181   3.482148   4.696082
    22  H    2.203169   1.093947   3.482148   2.784186   5.639609
    23  H    2.176910   1.095489   2.721107   2.721107   6.159907
    24  H    2.210949   2.762938   1.093079   3.457299   4.173902
    25  H    2.176336   2.752580   1.095475   2.654860   5.775232
    26  H    2.194130   3.478197   1.096102   2.749053   4.757585
    27  H    2.210950   2.762940   3.457299   1.093079   6.434975
    28  H    2.194132   3.478199   2.749056   1.096101   6.066825
    29  H    2.176337   2.752581   2.654862   1.095475   6.811251
                   11         12         13         14         15
    11  H    0.000000
    12  H    1.769326   0.000000
    13  H    2.585832   3.045617   0.000000
    14  H    3.084409   2.478021   1.745708   0.000000
    15  H    2.571458   3.399634   2.491636   3.057347   0.000000
    16  H    4.436069   4.372331   4.266364   3.800553   2.491632
    17  H    4.200992   3.507508   3.800554   2.671293   3.057345
    18  H    3.045265   3.186733   4.436075   4.201002   2.571457
    19  H    4.460473   3.970312   5.381493   4.615774   3.722170
    20  H    3.186718   2.306764   4.372333   3.507518   3.399630
    21  H    5.025521   4.730829   2.869184   2.309660   3.846274
    22  H    5.535773   5.144202   3.972665   3.172020   3.846273
    23  H    6.145682   6.123814   4.048906   3.882725   4.300034
    24  H    4.261934   4.876816   1.886358   3.075181   3.164406
    25  H    5.524670   6.204524   3.454822   4.368485   3.675728
    26  H    4.161072   5.219028   2.702338   4.025358   2.459449
    27  H    5.605307   5.815862   4.704148   4.591776   3.164404
    28  H    5.014558   5.759377   4.274828   4.803450   2.459448
    29  H    6.142292   6.629816   4.693720   5.040296   3.675727
                   16         17         18         19         20
    16  H    0.000000
    17  H    1.745709   0.000000
    18  H    2.585833   3.084411   0.000000
    19  H    2.334390   2.566004   1.764654   0.000000
    20  H    3.045620   2.478027   1.769324   1.746782   0.000000
    21  H    3.972654   3.172014   5.535775   5.639608   5.144209
    22  H    2.869171   2.309655   5.025517   4.696076   4.730832
    23  H    4.048892   3.882720   6.145678   6.159902   6.123817
    24  H    4.704139   4.591767   5.605308   6.434972   5.815860
    25  H    4.693712   5.040292   6.142291   6.811249   6.629817
    26  H    4.274823   4.803445   5.014557   6.066824   5.759373
    27  H    1.886356   3.075191   4.261927   4.173904   4.876820
    28  H    2.702342   4.025366   4.161069   4.757590   5.219031
    29  H    3.454816   4.368488   5.524664   5.775231   6.204526
                   21         22         23         24         25
    21  H    0.000000
    22  H    1.769620   0.000000
    23  H    1.761120   1.761120   0.000000
    24  H    2.591951   3.797501   3.052204   0.000000
    25  H    3.142169   3.749742   2.509530   1.757494   0.000000
    26  H    3.794143   4.352739   3.741934   1.771472   1.768393
    27  H    3.797504   2.591958   3.052203   4.352799   3.659029
    28  H    4.352741   3.794149   3.741935   3.785748   3.035171
    29  H    3.749742   3.142173   2.509530   3.659031   2.366230
                   26         27         28         29
    26  H    0.000000
    27  H    3.785747   0.000000
    28  H    2.571626   1.771472   0.000000
    29  H    3.035173   1.757491   1.768392   0.000000
 Stoichiometry    C9H20
 Framework group  C1[X(C9H20)]
 Deg. of freedom    81
 Full point group                 C1      NOp   1
 Largest Abelian subgroup         C1      NOp   1
 Largest concise Abelian subgroup C1      NOp   1
                         Standard orientation:                         
 ---------------------------------------------------------------------
[...]
 170,0.00008462,-0.00000912,0.00007676,-0.00000463,-0.00002062,0.000053
 23,0.00007173,0.00002410,0.00004955,0.00002348,-0.00259730,-0.00068201
 ,0.00019172,-0.00822859,-0.00227822,-0.00015679,0.31577017,0.00002562,
 0.00034189,-0.00001894,-0.00052154,-0.00070023,0.00013423,0.00188621,-
 0.00428199,0.00216260,-0.00010094,-0.00004830,0.00048912,0.00005477,0.
 00005799,-0.00002107,0.02422384,0.00497313,-0.00024193,-0.06579264,-0.
 06290502,-0.00032912,0.00029131,0.00074040,-0.00077145,0.00122196,0.00
 136938,0.00001009,0.00005790,0.00002578,0.00001621,-0.00014936,0.00002
 210,-0.00007350,-0.00006556,-0.00001682,-0.00000382,0.00004874,0.00003
 272,0.00017399,0.00005388,0.00051849,-0.00033855,0.00166111,0.00037500
 ,0.00006394,-0.00017704,0.00004191,-0.00013056,0.00008122,0.00002378,-
 0.00008148,0.00000254,-0.00000775,0.00000350,-0.00000707,-0.00002922,-
 0.00003170,-0.00004163,0.00001000,-0.00002890,-0.02628698,-0.00679717,
 0.00122804,-0.00475097,-0.00226753,-0.00057945,0.06942794,0.06868539,0
 .00003891,0.00009534,-0.00001976,-0.00006676,0.00024116,0.00019666,-0.
 00068757,0.00219265,-0.00150749,-0.00002887,-0.00023812,-0.00029416,0.
 00014707,0.00001687,0.00029457,-0.01315121,-0.00351193,-0.00125971,0.0
 0069546,-0.00022220,-0.04593421,-0.00099790,-0.00066257,0.00059517,0.0
 0052223,-0.00054552,0.00014929,-0.00001450,-0.00002256,0.00000425,-0.0
 0004397,-0.00001037,0.00000038,-0.00005284,0.00000365,0.00000198,0.000
 09440,-0.00005935,0.00015509,0.00005613,0.00001543,-0.00015175,-0.0009
 2930,-0.00007741,0.00015942,-0.00004019,0.00017908,0.00051471,-0.00004
 097,-0.00000545,0.00002197,0.00000079,-0.00002379,-0.00001510,-0.00001
 552,0.00002645,0.00001937,0.00010203,-0.00011858,-0.00004056,-0.017500
 28,-0.00422463,-0.00039153,0.03021295,0.00828221,0.00044306,0.00091672
 ,-0.00163391,0.04704972,0.00001118,-0.00006751,-0.00028615,-0.00118952
 ,-0.00041591,0.00117400,0.00039055,0.00063657,-0.00033299,0.00007949,-
 0.00015560,0.00003433,0.00000884,0.00004324,-0.00007455,-0.00012534,0.
 00913952,0.00438298,0.00002285,-0.00016134,-0.00067117,-0.04707850,-0.
 01538902,-0.01073179,-0.00081928,-0.00061637,0.00146195,-0.00001038,0.
 00000651,0.00001146,-0.00003767,0.00001425,0.00001987,0.00013634,0.000
 02606,-0.00000944,-0.00176534,-0.00180792,0.00043411,0.00011137,0.0000
 0888,-0.00017208,-0.00003204,-0.00001641,0.00001791,-0.00000084,0.0000
 1157,-0.00007929,-0.00002321,-0.00002855,0.00001135,0.00000578,-0.0000
 4009,-0.00001359,0.00001932,-0.00003794,-0.00001248,-0.00001116,0.0000
 1203,0.00000448,0.00034311,-0.00001972,-0.00009817,-0.00016891,0.00008
 213,0.00002741,-0.00003443,-0.00017107,-0.00008071,0.04947100,0.000025
 20,0.00013359,0.00027032,-0.00083594,-0.00110510,-0.00005499,-0.000282
 39,-0.00028246,-0.00075939,0.00014531,0.00006912,0.00004315,-0.0000070
 0,-0.00000588,-0.00002265,0.00125920,0.00400886,0.00313885,0.00009451,
 0.00091166,0.00029823,-0.01457047,-0.22794128,-0.12113484,0.00002323,0
 .00076021,0.00044272,0.00004741,0.00001483,0.00001398,0.00003387,-0.00
 000878,-0.00003537,-0.00017776,0.00000504,0.00000581,-0.00199850,-0.00
 025437,0.00120829,-0.00020773,-0.00000767,0.00029909,-0.00007482,0.000
 01119,-0.00006063,0.00001586,-0.00000787,0.00004691,0.00007410,0.00003
 486,-0.00008257,-0.00000334,0.00004597,0.00002506,0.00001139,0.0000006
 0,-0.00000896,0.00001341,-0.00000818,0.00000668,-0.00014132,0.00032749
 ,-0.00009790,-0.00002816,0.00021174,-0.00010656,0.00004769,-0.00006183
 ,-0.00003491,0.01995239,0.24872173,-0.00002421,0.00019061,0.00053840,0
 .00028103,-0.00044006,-0.00062059,-0.00093946,-0.00057777,0.00035356,-
 0.00004664,0.00014445,0.00001590,-0.00005265,-0.00007873,0.00006460,-0
 .00407883,-0.02576642,-0.01510926,0.00013358,-0.00178513,0.00134439,-0
 .01029005,-0.11961115,-0.12745524,0.00247666,0.00253332,-0.00627015,0.
 00005676,-0.00000019,0.00001245,-0.00003579,0.00002510,-0.00005011,-0.
 00026816,-0.00001849,-0.00002667,0.00040147,0.00076242,0.00106245,-0.0
 0014749,0.00000108,0.00020160,0.00013365,0.00009047,0.00000461,-0.0000
 2209,-0.00009640,0.00011008,0.00009726,0.00007968,-0.00003090,-0.00004
 922,0.00011477,0.00000597,-0.00000426,0.00003343,0.00000071,0.00004736
 ,0.00001492,0.00000562,-0.00018024,0.00109706,-0.00002544,0.00016235,0
 .00021761,0.00040971,-0.00004533,0.00008094,-0.00007186,0.01090075,0.1
 3277688,0.13884792,0.00002886,-0.00005007,-0.00002027,0.00027762,0.000
 42631,0.00009596,0.00050300,-0.00005848,0.00262889,-0.00051110,-0.0005
 5714,-0.00059943,0.00000029,-0.00011379,0.00010972,-0.01112003,-0.0024
 0559,-0.00045428,0.00028564,0.00034434,-0.00074868,-0.28432058,-0.0713
 0653,-0.00106154,0.00005637,-0.00034128,-0.00126922,-0.00005190,-0.000
 04151,-0.00002614,0.00003352,0.00000354,0.00001275,-0.00000973,0.00000
 093,0.00002287,-0.00004457,0.00009444,0.00002971,-0.00004130,-0.000100
 88,0.00005797,0.00054988,-0.00011586,0.00002378,0.00009995,-0.00001961
 ,0.00018145,-0.00011232,0.00002065,0.00034619,-0.00001985,0.00007070,-
 0.00002174,-0.00004342,0.00007168,0.00004950,0.00002570,0.00001481,-0.
 00001537,-0.00002016,0.00002902,0.00002442,0.00031432,0.00011031,0.000
 11079,0.00068114,-0.00027164,0.00021352,-0.00173994,-0.00019113,-0.000
 24918,0.31006110,0.00003230,-0.00001111,0.00024883,0.00002760,-0.00015
 119,-0.00024173,0.00059141,-0.00051203,0.00053610,-0.00023887,0.000245
 06,-0.00023327,-0.00001607,-0.00002876,0.00010472,-0.00490845,-0.00287
 207,-0.00032459,-0.00088699,-0.00001399,-0.00038377,-0.07168898,-0.067
 59126,0.00025927,0.00100110,0.00021704,-0.00073541,-0.00001018,-0.0000
 0300,-0.00002468,-0.00002782,0.00001689,-0.00004168,-0.00013363,0.0000
 0182,-0.00000613,-0.00003305,0.00035025,0.00047674,-0.00018866,-0.0000
 1633,0.00021116,-0.00031407,0.00028322,-0.00020380,0.00003457,0.000040
 81,0.00002986,-0.00000269,0.00005570,0.00000415,-0.00000337,0.00001360
 ,0.00000239,-0.00002726,0.00003520,0.00001426,-0.00000318,-0.00001069,
 -0.00000408,-0.00012206,-0.00004632,0.00002241,0.00028323,0.00004315,-
 0.00011849,0.00036587,0.00003260,0.00048968,-0.02651101,-0.00774338,-0
 .00002561,0.07934203,0.07023315,-0.00003358,0.00013878,0.00017632,0.00
 004845,-0.00066642,-0.00056500,0.00029084,0.00048609,-0.00614287,0.001
 71669,0.00063769,0.00056536,0.00005047,0.00025327,-0.00018421,0.029902
 75,0.00845114,-0.00126434,0.00098984,-0.00053830,0.00125627,-0.0027868
 4,-0.00028843,-0.04539685,0.00142649,0.00099045,0.00117934,0.00005982,
 0.00000996,0.00003432,0.00003496,-0.00001425,-0.00000215,-0.00011730,-
 0.00001937,-0.00001072,-0.00021512,0.00025305,0.00041856,-0.00004947,0
 .00002548,0.00012777,-0.00004170,-0.00025719,0.00000675,-0.00007840,-0
 .00000578,0.00004428,0.00034670,-0.00000802,-0.00050054,-0.00001480,-0
 .00008349,0.00002050,0.00003693,-0.00012091,-0.00003524,0.00000632,-0.
 00001849,0.00000727,-0.00013451,0.00004758,-0.00004767,-0.00016183,-0.
 00036664,0.00018821,-0.00063746,0.00023406,-0.00017877,-0.01717561,-0.
 00415661,-0.00049343,0.00022757,0.00034487,0.05164032,-0.00004765,-0.0
 0000815,-0.00000131,-0.00009454,0.00006121,-0.00013094,0.00099304,-0.0
 0098299,0.00074767,0.00017679,-0.00003836,-0.00005884,0.00001496,0.000
 05361,-0.00001893,0.00408831,-0.00756772,0.00431490,-0.00025299,-0.000
 54981,0.00143571,-0.12296078,0.10185643,-0.06078196,-0.00006476,-0.000
 10980,-0.00021127,0.00000859,0.00001642,0.00000314,-0.00000731,-0.0000
 1776,0.00000262,0.00000463,-0.00000589,-0.00000601,0.00006697,0.000034
 12,-0.00004072,0.00002088,0.00003650,0.00000334,-0.00001198,0.00013856
 ,0.00019038,0.00001859,-0.00002989,0.00001531,0.00003526,-0.00000213,-
 0.00002930,-0.00000443,-0.00001281,-0.00000043,0.00000611,-0.00002014,
 -0.00001841,-0.00000812,0.00000121,0.00000735,-0.00013194,0.00010542,0
 .00007476,0.00062013,-0.00018893,0.00041268,0.00040485,-0.00008182,0.0
 0029174,0.00119191,-0.00303476,0.00177700,-0.01611660,0.02311885,-0.01
 276725,0.13179714,-0.00001872,-0.00009497,0.00018565,-0.00028771,-0.00
 012400,-0.00025627,0.00110725,-0.00018173,0.00003307,-0.00021006,0.000
 24237,-0.00008470,-0.00002661,0.00000008,0.00001826,0.00263149,-0.0053
 8193,0.00192926,-0.00130012,0.00059005,0.00154813,0.10153537,-0.181397
 00,0.07937524,-0.00030164,0.00051267,-0.00072113,-0.00000804,0.0000197
 5,-0.00002186,-0.00011686,0.00004181,-0.00005042,-0.00005478,0.0000254
 0,-0.00004176,0.00019694,-0.00006136,0.00016138,0.00007298,0.00013420,
 -0.00007815,-0.00082693,0.00043458,-0.00005346,0.00003710,0.00002275,-
 0.00017950,-0.00001459,0.00001057,-0.00004707,0.00001005,-0.00000468,0
 .00001381,-0.00000203,0.00000850,-0.00001098,-0.00004118,0.00000937,0.
 00000409,-0.00006992,0.00045671,-0.00017141,0.00053508,-0.00005050,0.0
 0043118,0.00015200,0.00003539,-0.00011420,0.01525393,-0.01853352,0.011
 94656,-0.00557405,0.00723812,-0.00489710,-0.11254053,0.19541186,-0.000
 00801,0.00003951,0.00005583,0.00016253,0.00003009,-0.00002044,-0.00200
 558,0.00039000,0.00086206,-0.00007485,-0.00041614,0.00002112,0.0000673
 4,0.00005062,0.00002947,-0.01733187,0.02211532,-0.01302767,0.00309164,
 -0.00023264,-0.00612056,-0.05976139,0.07853621,-0.09378612,-0.00069672
 ,0.00149416,0.00126786,0.00001590,-0.00000983,0.00000689,0.00002816,0.
 00000358,0.00003045,-0.00000928,0.00000055,-0.00000600,0.00008103,0.00
 007588,-0.00004349,-0.00004764,-0.00016942,-0.00001294,0.00106110,-0.0
 0047035,0.00039626,-0.00005782,0.00002002,0.00018523,-0.00003155,-0.00
 003689,0.00011065,-0.00001059,-0.00003093,-0.00004121,-0.00001417,-0.0
 0001767,0.00001261,0.00003548,-0.00001751,-0.00000852,0.00016386,0.000
 09658,0.00018759,-0.00110205,0.00182289,-0.00090387,0.00008863,-0.0003
 3583,0.00012595,0.01070925,-0.01254558,0.00796013,-0.00013552,-0.00017
 861,-0.00069290,0.06508394,-0.08900769,0.10334006,0.00001699,0.0000432
 6,-0.00000246,0.00005073,-0.00010452,0.00010215,0.00032761,0.00048914,
 -0.00034166,-0.00113391,-0.00079036,-0.00042429,-0.00065326,-0.0003656
 2,0.00013869,0.00026793,0.00152702,-0.00629526,-0.00003344,0.00008600,
 0.00046304,-0.00041142,-0.00080201,-0.00034111,-0.06077404,-0.00554433
 ,0.06106746,0.00001523,0.00001292,0.00001962,-0.00000293,-0.00000157,0
 .00000244,-0.00003024,-0.00001498,0.00000666,0.00001491,0.00005660,0.0
 0004826,0.00001476,-0.00000316,-0.00001925,0.00001944,-0.00002312,0.00
 005589,-0.00054406,-0.00102830,0.00019627,0.00002607,0.00008509,0.0000
 4366,-0.00064680,0.00034026,-0.00011548,-0.00001133,0.00003194,0.00000
 950,0.00019760,0.00009771,0.00000879,-0.00011326,0.00001347,-0.0001565
 2,0.00029633,0.00018606,0.00002590,-0.00008006,-0.00005584,0.00017864,
 0.00076205,-0.00011895,-0.00022613,0.00052718,0.00008532,-0.00027290,0
 .00001863,-0.00017009,0.00031641,0.06492416,-0.00000558,0.00005552,0.0
 0006391,0.00023501,-0.00009344,-0.00001435,0.00054163,0.00089859,0.000
 43421,-0.00140668,0.00002907,-0.00060013,-0.00001843,0.00036840,0.0002
 3754,0.00806283,0.00382211,-0.02599173,-0.00004581,0.00192829,-0.00065
 337,-0.00129325,-0.00515591,-0.00233660,-0.00543774,-0.04949848,0.0244
 2008,0.00002438,0.00000841,0.00001490,0.00000810,-0.00000593,0.0000045
 7,-0.00003742,-0.00000187,0.00000326,0.00004181,0.00010446,0.00006911,
 -0.00001701,-0.00001860,0.00001926,-0.00005863,-0.00003538,0.00007462,
 -0.00086293,-0.00101102,0.00061364,0.00022797,-0.00007736,0.00011759,0
 .00021796,-0.00025196,0.00010479,-0.00007199,-0.00004012,-0.00000046,0
 .00003407,-0.00020575,-0.00002829,-0.00022421,0.00025346,0.00021063,0.
 00003268,-0.00034262,0.00049539,0.00005903,-0.00008064,0.00007117,0.00
 037662,0.00038390,-0.00202706,0.00010615,-0.00016534,0.00020067,-0.000
 26207,0.00010797,-0.00018369,0.00795132,0.05277405,0.00005993,-0.00001
 329,0.00000832,-0.00010009,-0.00007429,0.00001730,0.00104852,0.0003109
 5,-0.00061159,0.00035338,0.00074185,-0.00033947,-0.00002217,-0.0001814
 3,0.00038666,0.00368397,0.00285845,-0.01546932,-0.00025079,0.00100678,
 0.00044961,-0.00113786,-0.00436020,-0.00075454,0.05923265,0.02318614,-
 0.29257156,-0.00003773,-0.00000247,0.00002301,0.00001458,-0.00000237,0
 .00001204,-0.00011585,-0.00002274,0.00003185,0.00003083,0.00016461,0.0
 0014988,-0.00001068,-0.00007682,0.00000499,0.00000081,-0.00012270,0.00
 006356,0.00058405,-0.00008112,0.00075522,0.00036190,0.00008389,0.00040
 044,-0.00011177,0.00057480,-0.00005990,0.00010285,0.00014870,-0.000029
 69,0.00024899,0.00013527,-0.00000436,-0.00015815,-0.00007436,0.0002532
 6,0.00020675,-0.00059482,0.00059320,0.00001995,-0.00008211,-0.00001586
 ,0.00046254,0.00005857,-0.00120463,-0.00006808,0.00008237,0.00034971,-
 0.00005398,0.00008733,0.00036284,-0.06791952,-0.02510615,0.31977192,-0
 .00002677,0.00005269,0.00002386,0.00018117,0.00007131,0.00001813,0.000
 88249,-0.00068913,0.00056506,0.00001248,-0.00014529,0.00006773,-0.0002
 2942,0.00011380,0.00028371,0.00203417,-0.00514557,0.00268364,0.0001044
 6,-0.00082887,-0.00014865,-0.00011870,0.00010446,-0.00006048,-0.117089
 41,0.10294388,-0.05271050,0.00002681,0.00001539,0.00001416,0.00000209,
 -0.00000912,-0.00000433,-0.00000223,-0.00000755,-0.00000210,-0.0000099
 3,0.00002060,0.00001669,0.00000721,-0.00001067,0.00001946,0.00020433,0
 .00012096,-0.00015253,0.00001477,0.00004345,-0.00008713,-0.00006954,0.
 00002933,-0.00004795,-0.00062392,-0.00019917,0.00044017,-0.00002286,-0
 .00001098,-0.00002077,-0.00002342,0.00000037,0.00000221,0.00059423,-0.
 00013905,-0.00009983,-0.00009884,0.00008940,-0.00017712,0.00053139,-0.
 00025111,0.00000145,0.00000101,-0.00018497,0.00021852,-0.00010101,0.00
 013887,-0.00012026,0.00028205,0.00010317,0.00034906,0.00387424,-0.0070
 5494,0.00338309,0.12534921,0.00000088,0.00000567,-0.00000594,-0.000148
 14,0.00022852,-0.00032063,0.00152418,0.00068876,0.00106625,-0.00002273
 ,-0.00034375,0.00022877,-0.00015632,-0.00059913,-0.00031931,0.01514807
 ,-0.02117504,0.01184532,-0.00223418,-0.00430196,-0.00461630,0.00010175
 ,0.00065913,0.00164276,0.10204091,-0.19480847,0.07588755,-0.00000356,0
 .00000574,0.00000069,-0.00003884,-0.00000122,-0.00003546,-0.00002872,-
 0.00001135,0.00000370,0.00001032,0.00000056,0.00009688,0.00009822,0.00
 026299,0.00000837,-0.00102130,0.00027274,-0.00053647,-0.00000513,0.000
 03301,-0.00025281,-0.00011003,0.00012257,-0.00000561,0.00005233,0.0005
 1909,0.00026939,0.00014396,0.00024152,-0.00003100,0.00001782,0.0000972
 5,0.00001269,0.00121112,-0.00160735,0.00075303,-0.00018302,0.00026761,
 0.00004333,-0.00000219,0.00033007,-0.00011140,-0.00035809,0.00029350,-
 0.00003740,-0.00003113,-0.00001306,-0.00013329,-0.00014792,0.00050203,
 -0.00094681,0.00129906,-0.00224945,0.00086079,-0.11324617,0.21476161,-
 0.00001776,0.00005318,0.00001531,0.00023690,0.00004484,-0.00004007,0.0
 0030896,0.00031738,0.00065655,-0.00035971,0.00047640,-0.00041390,0.000
 13082,0.00069396,0.00022163,0.00939928,-0.01172616,0.00556555,-0.00050
 858,-0.00268634,-0.00154008,0.00053965,-0.00062033,0.00123616,-0.05270
 379,0.07661250,-0.08654853,0.00002891,0.00000024,0.00000253,-0.0000106
 5,-0.00000207,0.00000497,0.00001322,0.00001020,-0.00000868,0.00000153,
 -0.00004260,-0.00001134,0.00003640,0.00002424,-0.00000607,-0.00004647,
 0.00017578,0.00002538,0.00018709,-0.00012765,0.00021867,0.00021522,-0.
 00011246,0.00009853,0.00025437,-0.00038042,-0.00032280,-0.00017343,-0.
 00022134,0.00001824,-0.00007480,-0.00015269,0.00000020,0.00032259,-0.0
 0092436,0.00070958,-0.00007650,-0.00027684,0.00019447,-0.00006726,0.00
 004134,-0.00019419,-0.00007963,0.00022309,0.00021793,0.00005369,0.0000
 2591,-0.00005277,-0.00022228,-0.00000442,-0.00020895,-0.01750701,0.023
 18680,-0.01117071,0.05844567,-0.08216181,0.09111086,0.00006706,-0.0002
 8135,-0.00011652,-0.00039339,0.00041848,0.00049115,0.00122123,-0.00163
 217,-0.00093154,0.00024767,0.00023773,-0.00030245,0.00010794,0.0003388
 3,0.00010838,-0.00758703,-0.00102732,0.00032441,0.00038547,0.00080524,
 0.00024286,0.00010585,0.00074503,0.00085357,-0.29190799,-0.05601378,0.
 01599295,-0.00010645,-0.00002464,-0.00005073,0.00000371,0.00002560,0.0
 0000876,0.00003480,0.00002602,0.00001203,0.00005912,-0.00007100,-0.000
 15988,-0.00005132,-0.00016630,-0.00003834,0.00031422,0.00011527,0.0001
 1516,0.00003940,0.00009547,0.00000471,-0.00002255,-0.00006543,0.000025
 92,-0.00008512,-0.00037510,-0.00008688,-0.00013486,-0.00009541,0.00004
 815,-0.00007135,-0.00006242,-0.00000503,0.00036811,0.00001573,-0.00005
 970,-0.00003768,0.00003164,-0.00005267,0.00068084,-0.00031182,0.000178
 56,0.00048175,0.00011368,-0.00002666,0.00080793,0.00009519,-0.00053081
 ,-0.00004774,-0.00007150,0.00003274,-0.00691909,-0.00112285,0.00019190
 ,-0.01568605,-0.00391114,0.00167357,0.31812554,0.00010405,-0.00065882,
 -0.00024788,-0.00193021,0.00060344,0.00006102,0.00074113,-0.00485859,-
 0.00261803,0.00034624,-0.00023321,-0.00047746,0.00009125,-0.00045045,-
 0.00014575,-0.02736418,-0.00751601,0.00165406,-0.00168258,0.00113444,0
 .00020843,-0.00063264,0.00062381,0.00133548,-0.05470624,-0.05839097,0.
 00411702,-0.00025700,-0.00003464,-0.00009639,0.00000747,0.00002840,-0.
 00001433,0.00000172,0.00000804,0.00003329,0.00005162,0.00002706,-0.000
 06111,0.00001403,-0.00006482,0.00007476,-0.00011227,0.00022527,-0.0002
 2617,0.00011971,0.00016537,0.00001018,-0.00009389,0.00004925,0.0000047
 0,0.00002112,0.00033951,0.00013723,0.00008714,0.00018933,0.00000749,0.
 00003804,0.00005161,-0.00000724,0.00031278,0.00041084,-0.00003250,0.00
 005033,-0.00007325,0.00001032,0.00087570,-0.00041952,0.00000323,0.0002
 3287,0.00002601,0.00035510,0.00054379,0.00037195,-0.00049879,0.0001791
 2,0.00002553,-0.00007580,-0.00328234,-0.00150035,0.00049439,0.02407490
 ,0.00581843,-0.00244635,0.06216832,0.06410236,0.00007126,-0.00031470,-
 0.00009859,-0.00107862,-0.00001459,0.00034874,0.00045357,-0.00310388,-
 0.00226439,0.00016487,0.00028750,-0.00028204,-0.00000152,-0.00007271,0
 .00018640,-0.01644765,-0.00387137,-0.00082708,0.00009383,0.00077710,0.
 00007085,-0.00174632,-0.00032697,0.00067508,0.01705236,0.00456643,-0.0
 4684188,-0.00014308,-0.00001207,-0.00002359,0.00000460,0.00002096,0.00
 000271,-0.00004838,-0.00000520,0.00002694,0.00002085,0.00005590,0.0000
 1738,-0.00000943,-0.00013439,-0.00001905,0.00028456,0.00003277,0.00008
 135,0.00007377,-0.00030453,0.00038541,0.00016326,0.00001915,0.00020101
 ,-0.00008153,0.00030275,-0.00009419,0.00002653,0.00004408,0.00000669,0
 .00015273,0.00006845,0.00000113,-0.00005729,0.00015274,-0.00015076,0.0
 0015918,0.00001416,0.00002077,0.00017176,0.00006428,0.00034333,0.00016
 527,0.00024332,0.00020224,0.00048067,-0.00033087,-0.00044752,-0.000018
 91,0.00000617,-0.00008231,0.03093821,0.00659970,-0.00140216,-0.0129009
 8,-0.00320529,0.00022154,-0.01794360,-0.00155890,0.04974201\\0.0000006
 7,0.00000088,-0.00000241,0.00000086,0.00000167,-0.00000096,-0.00000415
 ,0.00000037,0.00000439,0.00000220,-0.00000096,-0.00000378,-0.00000092,
 0.00000202,0.00000024,0.00000291,-0.00000005,-0.00000123,-0.00000185,0
 .00000022,0.00000045,0.00000022,-0.00000005,0.00000116,-0.00000141,-0.
 00000192,0.00000241,0.00000119,0.00000147,-0.00000238,0.00000073,0.000
 00169,-0.00000191,-0.00000006,0.00000118,-0.00000230,0.00000105,0.0000
 0092,-0.00000167,-0.00000152,-0.00000002,-0.00000188,0.00000032,0.0000
 0071,-0.00000016,-0.00000193,-0.00000089,0.00000053,-0.00000147,-0.000
 00046,0.00000001,0.00000086,-0.00000048,-0.00000014,-0.00000056,-0.000
 00059,-0.00000089,0.00000006,0.,-0.00000113,-0.00000005,-0.00000090,0.
 00000039,-0.00000102,-0.00000127,0.00000040,-0.00000007,-0.00000148,0.
 00000160,0.00000081,0.,0.00000102,0.00000136,-0.00000022,0.00000155,0.
 00000174,0.00000069,0.00000154,-0.00000109,-0.00000112,0.00000110,0.00
 000076,-0.00000042,0.00000171,0.00000036,-0.00000099,0.00000233\\\@


 "TIGER, TIGER BURNING BRIGHT
 IN THE FOREST OF THE NIGHT.
 WHAT IMMORTAL HAND OR EYE
 CAN FRAME THY FEARFUL SYMMETRYE?"
                     - WILLIAM BLAKE
 Job cpu time:       0 days  3 hours 46 minutes 33.7 seconds.
 Elapsed time:       0 days  0 hours 56 minutes 39.1 seconds.
 File lengths (MBytes):  RWF=    254 Int=      0 D2E=      0 Chk=     11 Scr=      1
 Normal termination of Gaussian 16 at Mon May 29 04:44:23 2023.
### All Done ###
