### Starting Gaussian ###
 Entering Gaussian System, Link 0=g16
 Initial command:
 /cluster/software/gaussian/gaussian-16-A.03/avx2/g16/l1.exe "/local/scratch/cz9n3/Gau-23846.inp" -scrdir="/local/scratch/cz9n3/"
 Entering Link 1 = /cluster/software/gaussian/gaussian-16-A.03/avx2/g16/l1.exe PID=     23854.
  
 Copyright (c) 1988,1990,1992,1993,1995,1998,2003,2009,2016,
            Gaussian, Inc.  All Rights Reserved.
  
 This is part of the Gaussian(R) 16 program.  It is based on
 the Gaussian(R) 09 system (copyright 2009, Gaussian, Inc.),
 the Gaussian(R) 03 system (copyright 2003, Gaussian, Inc.),
 the Gaussian(R) 98 system (copyright 1998, Gaussian, Inc.),
 the Gaussian(R) 94 system (copyright 1995, Gaussian, Inc.),
 the Gaussian 92(TM) system (copyright 1992, Gaussian, Inc.),
 the Gaussian 90(TM) system (copyright 1990, Gaussian, Inc.),
 the Gaussian 88(TM) system (copyright 1988, Gaussian, Inc.),
 the Gaussian 86(TM) system (copyright 1986, Carnegie Mellon
 University), and the Gaussian 82(TM) system (copyright 1983,
 Carnegie Mellon University). Gaussian is a federally registered
 trademark of Gaussian, Inc.
  
 This software contains proprietary and confidential information,
 including trade secrets, belonging to Gaussian, Inc.
  
 This software is provided under written license and may be
 used, copied, transmitted, or stored only in accord with that
 written license.
  
 The following legend is applicable only to US Government
 contracts under FAR:
  
                    RESTRICTED RIGHTS LEGEND
  
 Use, reproduction and disclosure by the US Government is
 subject to restrictions as set forth in subparagraphs (a)
 and (c) of the Commercial Computer Software - Restricted
 Rights clause in FAR 52.227-19.
  
 Gaussian, Inc.
 340 Quinnipiac St., Bldg. 40, Wallingford CT 06492
  
  
 ---------------------------------------------------------------
 Warning -- This program may not be used in any manner that
 competes with the business of Gaussian, Inc. or will provide
 assistance to any competitor of Gaussian, Inc.  The licensee
 of this program is prohibited from giving any competitor of
 Gaussian, Inc. access to this program.  By using this program,
 the user acknowledges that Gaussian, Inc. is engaged in the
 business of creating and licensing software in the field of
 computational chemistry and represents and warrants to the
 licensee that it is not a competitor of Gaussian, Inc. and that
 it will not use this program in any manner prohibited above.
 ---------------------------------------------------------------
  

 Cite this work as:
 Gaussian 16, Revision A.03,
 M. J. Frisch, G. W. Trucks, H. B. Schlegel, G. E. Scuseria, 
 M. A. Robb, J. R. Cheeseman, G. Scalmani, V. Barone, 
 G. A. Petersson, H. Nakatsuji, X. Li, M. Caricato, A. V. Marenich, 
 J. Bloino, B. G. Janesko, R. Gomperts, B. Mennucci, H. P. Hratchian, 
 J. V. Ortiz, A. F. Izmaylov, J. L. Sonnenberg, D. Williams-Young, 
 F. Ding, F. Lipparini, F. Egidi, J. Goings, B. Peng, A. Petrone, 
 T. Henderson, D. Ranasinghe, V. G. Zakrzewski, J. Gao, N. Rega, 
 G. Zheng, W. Liang, M. Hada, M. Ehara, K. Toyota, R. Fukuda, 
 J. Hasegawa, M. Ishida, T. Nakajima, Y. Honda, O. Kitao, H. Nakai, 
 T. Vreven, K. Throssell, J. A. Montgomery, Jr., J. E. Peralta, 
 F. Ogliaro, M. J. Bearpark, J. J. Heyd, E. N. Brothers, K. N. Kudin, 
 V. N. Staroverov, T. A. Keith, R. Kobayashi, J. Normand, 
 K. Raghavachari, A. P. Rendell, J. C. Burant, S. S. Iyengar, 
 J. Tomasi, M. Cossi, J. M. Millam, M. Klene, C. Adamo, R. Cammi, 
 J. W. Ochterski, R. L. Martin, K. Morokuma, O. Farkas, 
 J. B. Foresman, and D. J. Fox, Gaussian, Inc., Wallingford CT, 2016.
 
 ******************************************
 Gaussian 16:  ES64L-G16RevA.03 25-Dec-2016
                24-May-2023 
 ******************************************
 %chk=CCdC1CdCdCCdCCdC1CqdOrO.chk
 %NProcShared=20
 Will use up to   20 processors via shared memory.
 -----------------------------
 # opt freq b3lyp/6-31g(2df,p)
 -----------------------------
 1/18=20,19=15,26=3,38=1/1,3;
 2/9=110,12=2,17=6,18=5,40=1/2;
 3/5=1,6=6,7=104,11=2,25=1,30=1,71=1,74=-5/1,2,3;
 4//1;
 5/5=2,38=5/2;
 6/7=2,8=2,9=2,10=2,28=1/1;
 7//1,2,3,16;
 1/18=20,19=15,26=3/3(2);
 2/9=110/2;
 99//99;
 2/9=110/2;
 3/5=1,6=6,7=104,11=2,25=1,30=1,71=1,74=-5/1,2,3;
 4/5=5,16=3,69=1/1;
 5/5=2,38=5/2;
 7//1,2,3,16;
 1/18=20,19=15,26=3/3(-5);
 2/9=110/2;
 6/7=2,8=2,9=2,10=2,19=2,28=1/1;
 99/9=1/99;
 -------------------
 Title Card Required
 -------------------
 Symbolic Z-matrix:
 Charge =  0 Multiplicity = 1
 C                     1.3806   -0.05902   0.17925 
 C                     3.03652   0.05253   0.5152 
 C                     4.05895   0.51574   1.45823 
 C                     5.31904   0.59553   0.76671 
 C                     5.99372   1.67944   0.98126 
 C                     6.50876   2.69597   1.61189 
 C                     7.59607   2.36763   2.51455 
 C                     7.00915   2.37359   3.72982 
 C                     5.40974   1.67777   3.91282 
 C                     4.15347   1.33764   3.00722 
 C                     2.53573   1.69005   3.01261 
 O                     1.83022   1.13394   2.17495 
 O                     1.67144   2.45321   3.61674 
 H                     1.12207  -0.6884   -0.70827 
 H                     0.90463   0.90502  -0.10365 
 H                     0.79563  -0.52773   0.98017 
 H                     3.39725  -0.38321  -0.42643 
 H                     5.48045  -0.08688  -0.04601 
 H                     5.79484   3.32778   2.20048 
 H                     8.07538   1.42302   2.18263 
 H                     7.44718   3.16296   4.39315 
 H                     6.27028   0.88686   4.11374 
 H                     1.07153   3.01919   4.11283 
 

 GradGradGradGradGradGradGradGradGradGradGradGradGradGradGradGradGradGrad
 Berny optimization.
 Initialization pass.
                           ----------------------------
                           !    Initial Parameters    !
                           ! (Angstroms and Degrees)  !
 --------------------------                            --------------------------
 ! Name  Definition              Value          Derivative Info.                !
 --------------------------------------------------------------------------------
 ! R1    R(1,2)                  1.6933         estimate D2E/DX2                !
 ! R2    R(1,14)                 1.1183         estimate D2E/DX2                !
 ! R3    R(1,15)                 1.1117         estimate D2E/DX2                !
 ! R4    R(1,16)                 1.097          estimate D2E/DX2                !
 ! R5    R(2,3)                  1.466          estimate D2E/DX2                !
 ! R6    R(2,17)                 1.0985         estimate D2E/DX2                !
 ! R7    R(3,4)                  1.4396         estimate D2E/DX2                !
 ! R8    R(3,10)                 1.7561         estimate D2E/DX2                !
 ! R9    R(4,5)                  1.2946         estimate D2E/DX2                !
 ! R10   R(4,18)                 1.0734         estimate D2E/DX2                !
 ! R11   R(5,6)                  1.3024         estimate D2E/DX2                !
 ! R12   R(6,7)                  1.4508         estimate D2E/DX2                !
 ! R13   R(6,19)                 1.1204         estimate D2E/DX2                !
 ! R14   R(7,8)                  1.3496         estimate D2E/DX2                !
 ! R15   R(7,20)                 1.11           estimate D2E/DX2                !
 ! R16   R(8,9)                  1.7538         estimate D2E/DX2                !
 ! R17   R(8,21)                 1.1203         estimate D2E/DX2                !
 ! R18   R(9,10)                 1.5856         estimate D2E/DX2                !
 ! R19   R(9,22)                 1.1859         estimate D2E/DX2                !
 ! R20   R(10,11)                1.6557         estimate D2E/DX2                !
 ! R21   R(11,12)                1.2283         estimate D2E/DX2                !
 ! R22   R(11,13)                1.3017         estimate D2E/DX2                !
 ! R23   R(13,23)                0.9625         estimate D2E/DX2                !
 ! A1    A(2,1,14)             114.872          estimate D2E/DX2                !
 ! A2    A(2,1,15)             114.3327         estimate D2E/DX2                !
 ! A3    A(2,1,16)             113.8768         estimate D2E/DX2                !
 ! A4    A(14,1,15)            100.7835         estimate D2E/DX2                !
 ! A5    A(14,1,16)            102.4561         estimate D2E/DX2                !
 ! A6    A(15,1,16)            109.1473         estimate D2E/DX2                !
 ! A7    A(1,2,3)              146.144          estimate D2E/DX2                !
 ! A8    A(1,2,17)              97.1771         estimate D2E/DX2                !
 ! A9    A(3,2,17)             116.5972         estimate D2E/DX2                !
 ! A10   A(2,3,4)              108.6011         estimate D2E/DX2                !
 ! A11   A(2,3,10)             138.8349         estimate D2E/DX2                !
 ! A12   A(4,3,10)             110.5276         estimate D2E/DX2                !
 ! A13   A(3,4,5)              115.0213         estimate D2E/DX2                !
 ! A14   A(3,4,18)             117.3922         estimate D2E/DX2                !
 ! A15   A(5,4,18)             125.4057         estimate D2E/DX2                !
 ! A16   A(4,5,6)              160.0143         estimate D2E/DX2                !
 ! A17   A(5,6,7)              114.8971         estimate D2E/DX2                !
 ! A18   A(5,6,19)             116.2647         estimate D2E/DX2                !
 ! A19   A(7,6,19)             106.1599         estimate D2E/DX2                !
 ! A20   A(6,7,8)              103.4931         estimate D2E/DX2                !
 ! A21   A(6,7,20)             109.2782         estimate D2E/DX2                !
 ! A22   A(8,7,20)             117.4384         estimate D2E/DX2                !
 ! A23   A(7,8,9)              119.2627         estimate D2E/DX2                !
 ! A24   A(7,8,21)             111.485          estimate D2E/DX2                !
 ! A25   A(9,8,21)             125.0554         estimate D2E/DX2                !
 ! A26   A(8,9,10)             138.4249         estimate D2E/DX2                !
 ! A27   A(8,9,22)              67.6989         estimate D2E/DX2                !
 ! A28   A(10,9,22)            121.9126         estimate D2E/DX2                !
 ! A29   A(3,10,9)             130.3041         estimate D2E/DX2                !
 ! A30   A(3,10,11)             92.8603         estimate D2E/DX2                !
 ! A31   A(9,10,11)            136.6053         estimate D2E/DX2                !
 ! A32   A(10,11,12)           117.5572         estimate D2E/DX2                !
 ! A33   A(10,11,13)           140.8105         estimate D2E/DX2                !
 ! A34   A(12,11,13)           101.5708         estimate D2E/DX2                !
 ! A35   L(11,13,23,21,-1)     176.8941         estimate D2E/DX2                !
 ! A36   L(11,13,23,21,-2)     182.4317         estimate D2E/DX2                !
 ! D1    D(14,1,2,3)          -171.7997         estimate D2E/DX2                !
 ! D2    D(14,1,2,17)           12.0914         estimate D2E/DX2                !
 ! D3    D(15,1,2,3)            72.3533         estimate D2E/DX2                !
 ! D4    D(15,1,2,17)         -103.7556         estimate D2E/DX2                !
 ! D5    D(16,1,2,3)           -54.0764         estimate D2E/DX2                !
 ! D6    D(16,1,2,17)          129.8147         estimate D2E/DX2                !
 ! D7    D(1,2,3,4)           -161.0658         estimate D2E/DX2                !
 ! D8    D(1,2,3,10)             0.1989         estimate D2E/DX2                !
 ! D9    D(17,2,3,4)            14.6159         estimate D2E/DX2                !
 ! D10   D(17,2,3,10)          175.8806         estimate D2E/DX2                !
 ! D11   D(2,3,4,5)            134.287          estimate D2E/DX2                !
 ! D12   D(2,3,4,18)           -29.861          estimate D2E/DX2                !
 ! D13   D(10,3,4,5)           -32.6657         estimate D2E/DX2                !
 ! D14   D(10,3,4,18)          163.1864         estimate D2E/DX2                !
 ! D15   D(2,3,10,9)           176.0633         estimate D2E/DX2                !
 ! D16   D(2,3,10,11)           -8.8122         estimate D2E/DX2                !
 ! D17   D(4,3,10,9)           -22.9058         estimate D2E/DX2                !
 ! D18   D(4,3,10,11)          152.2187         estimate D2E/DX2                !
 ! D19   D(3,4,5,6)             39.0048         estimate D2E/DX2                !
 ! D20   D(18,4,5,6)          -158.306          estimate D2E/DX2                !
 ! D21   D(4,5,6,7)             72.8453         estimate D2E/DX2                !
 ! D22   D(4,5,6,19)           -51.9878         estimate D2E/DX2                !
 ! D23   D(5,6,7,8)           -101.063          estimate D2E/DX2                !
 ! D24   D(5,6,7,20)            24.8073         estimate D2E/DX2                !
 ! D25   D(19,6,7,8)            28.9091         estimate D2E/DX2                !
 ! D26   D(19,6,7,20)          154.7794         estimate D2E/DX2                !
 ! D27   D(6,7,8,9)             40.732          estimate D2E/DX2                !
 ! D28   D(6,7,8,21)          -117.4083         estimate D2E/DX2                !
 ! D29   D(20,7,8,9)           -79.7418         estimate D2E/DX2                !
 ! D30   D(20,7,8,21)          122.1179         estimate D2E/DX2                !
 ! D31   D(7,8,9,10)           -22.1054         estimate D2E/DX2                !
 ! D32   D(7,8,9,22)            91.3873         estimate D2E/DX2                !
 ! D33   D(21,8,9,10)          132.8553         estimate D2E/DX2                !
 ! D34   D(21,8,9,22)         -113.6521         estimate D2E/DX2                !
 ! D35   D(8,9,10,3)            47.6141         estimate D2E/DX2                !
 ! D36   D(8,9,10,11)         -125.2887         estimate D2E/DX2                !
 ! D37   D(22,9,10,3)          -44.0119         estimate D2E/DX2                !
 ! D38   D(22,9,10,11)         143.0854         estimate D2E/DX2                !
 ! D39   D(3,10,11,12)          11.5687         estimate D2E/DX2                !
 ! D40   D(3,10,11,13)        -164.9202         estimate D2E/DX2                !
 ! D41   D(9,10,11,12)        -173.8448         estimate D2E/DX2                !
 ! D42   D(9,10,11,13)           9.6664         estimate D2E/DX2                !
 --------------------------------------------------------------------------------
 Trust Radius=3.00D-01 FncErr=1.00D-07 GrdErr=1.00D-06 EigMax=2.50D+02 EigMin=1.00D-04
 Number of steps in this run=    111 maximum allowed number of steps=    138.
 GradGradGradGradGradGradGradGradGradGradGradGradGradGradGradGradGradGrad

                          Input orientation:                          
 ---------------------------------------------------------------------
 Center     Atomic      Atomic             Coordinates (Angstroms)
 Number     Number       Type             X           Y           Z
 ---------------------------------------------------------------------
      1          6           0        1.380600   -0.059020    0.179250
      2          6           0        3.036520    0.052530    0.515200
      3          6           0        4.058950    0.515740    1.458230
      4          6           0        5.319040    0.595530    0.766710
      5          6           0        5.993720    1.679440    0.981260
      6          6           0        6.508760    2.695970    1.611890
      7          6           0        7.596070    2.367630    2.514550
      8          6           0        7.009150    2.373590    3.729820
      9          6           0        5.409740    1.677770    3.912820
     10          6           0        4.153470    1.337640    3.007220
     11          6           0        2.535730    1.690050    3.012610
     12          8           0        1.830220    1.133940    2.174950
     13          8           0        1.671440    2.453210    3.616740
     14          1           0        1.122070   -0.688400   -0.708270
     15          1           0        0.904630    0.905020   -0.103650
     16          1           0        0.795630   -0.527730    0.980170
     17          1           0        3.397250   -0.383210   -0.426430
     18          1           0        5.480450   -0.086880   -0.046010
     19          1           0        5.794840    3.327780    2.200480
     20          1           0        8.075380    1.423020    2.182630
     21          1           0        7.447180    3.162960    4.393150
     22          1           0        6.270280    0.886860    4.113740
     23          1           0        1.071530    3.019190    4.112830
 ---------------------------------------------------------------------
                    Distance matrix (angstroms):
                    1          2          3          4          5
     1  C    0.000000
     2  C    1.693333   0.000000
     3  C    3.023193   1.466026   0.000000
     4  C    4.035450   2.359662   1.439581   0.000000
     5  C    4.994631   3.407210   2.307603   1.294637   0.000000
     6  C    5.995036   4.499662   3.283075   2.557657   1.302418
     7  C    7.069252   5.490591   4.129955   3.373448   2.322092
     8  C    7.085528   5.612744   4.161179   3.846816   3.011233
     9  C    5.761072   4.451674   3.033143   3.328285   2.989160
    10  C    4.199629   3.018153   1.756082   2.632331   2.758235
    11  C    3.524415   3.028088   2.472913   3.740168   4.010510
    12  O    2.368149   2.319348   2.421383   3.800643   4.365455
    13  O    4.267578   4.152861   3.756749   4.987848   5.121189
    14  H    1.118324   2.389765   3.843038   4.630184   5.673989
    15  H    1.111734   2.377955   3.541291   4.510025   5.260760
    16  H    1.096974   2.361035   3.459281   4.665674   5.647277
    17  H    2.130452   1.098482   2.190411   2.464709   3.602468
    18  H    4.106128   2.511411   2.155586   1.073429   2.106802
    19  H    5.919569   4.601713   3.387007   3.122062   2.059873
    20  H    7.143532   5.481667   4.180864   3.207332   2.417095
    21  H    8.058629   6.645840   5.205923   4.926636   3.994292
    22  H    6.346958   4.909460   3.475549   3.491753   3.243008
    23  H    5.004393   5.060158   4.715808   5.925537   5.985784
                    6          7          8          9         10
     6  C    0.000000
     7  C    1.450808   0.000000
     8  C    2.199988   1.349589   0.000000
     9  C    2.745698   2.685350   1.753786   0.000000
    10  C    3.056043   3.626996   3.122539   1.585564   0.000000
    11  C    4.331150   5.129739   4.581823   3.011721   1.655689
    12  O    4.964445   5.906128   5.547582   4.016081   2.476218
    13  O    5.241948   6.026889   5.339501   3.829342   2.788635
    14  H    6.771524   7.851023   7.983116   6.733301   5.205679
    15  H    6.128365   7.332774   7.356450   6.084833   4.518809
    16  H    6.590233   7.548736   7.388238   5.895310   4.343228
    17  H    4.828829   5.817781   6.157936   5.208344   3.914479
    18  H    3.398574   4.130004   4.758963   4.334896   3.621097
    19  H    1.120403   2.065177   2.173455   2.408930   2.702884
    20  H    2.097724   1.110044   2.105760   3.188117   4.008568
    21  H    2.972225   2.045448   1.120260   2.566645   4.012620
    22  H    3.096612   2.551040   1.704022   1.185933   2.430735
    23  H    5.993550   6.748974   5.984883   4.545270   3.680807
                   11         12         13         14         15
    11  C    0.000000
    12  O    1.228282   0.000000
    13  O    1.301685   1.960725   0.000000
    14  H    4.636853   3.483584   5.373754   0.000000
    15  H    3.603864   2.470048   4.101974   1.718090   0.000000
    16  H    3.475242   2.293256   4.074868   1.727196   1.799811
    17  H    4.107021   3.394776   5.231723   2.312795   2.824337
    18  H    4.602609   4.443787   5.863135   4.449257   4.682448
    19  H    3.736778   4.531203   4.446695   6.813612   5.923929
    20  H    5.607842   6.251852   6.642922   7.820736   7.544207
    21  H    5.310150   6.370838   5.870752   8.992468   8.253755
    22  H    3.975483   4.851194   4.883625   7.227537   6.824728
    23  H    2.262958   2.808052   0.962461   6.082087   4.719775
                   16         17         18         19         20
    16  H    0.000000
    17  H    2.961053   0.000000
    18  H    4.816112   2.138283   0.000000
    19  H    6.430102   5.140092   4.099446   0.000000
    20  H    7.631913   5.652837   3.739023   2.971412   0.000000
    21  H    8.337430   7.225345   5.842570   2.750490   2.882434
    22  H    6.464682   5.520917   4.344597   3.137626   2.697228
    23  H    4.740287   6.131083   6.810448   5.105092   7.438235
                   21         22         23
    21  H    0.000000
    22  H    2.577556   0.000000
    23  H    6.383429   5.619060   0.000000
 Stoichiometry    C11H10O2
 Framework group  C1[X(C11H10O2)]
 Deg. of freedom    63
 Full point group                 C1      NOp   1
 Largest Abelian subgroup         C1      NOp   1
 Largest concise Abelian subgroup C1      NOp   1
                         Standard orientation:                         
 ---------------------------------------------------------------------
 Center     Atomic      Atomic             Coordinates (Angstroms)
 Number     Number       Type             X           Y           Z
 ---------------------------------------------------------------------
      1          6           0        3.465711   -1.329486    0.042819
      2          6           0        1.808278   -1.539408   -0.233273
      3          6           0        0.513624   -0.880127   -0.429364
      4          6           0       -0.531890   -1.836306   -0.174382
      5          6           0       -1.500754   -1.403541    0.567308
      6          6           0       -2.396284   -0.599202    1.064658
      7          6           0       -3.532233   -0.340359    0.200097
      8          6           0       -3.258872    0.872768   -0.324295
      9          6           0       -1.616570    1.244436   -0.814677
     10          6           0       -0.143968    0.746549   -0.502322
     11          6           0        1.277125    1.432695   -0.001323
     12          8           0        2.275637    0.717824    0.023359
     13          8           0        1.747490    2.554301    0.462512
     14          1           0        4.076119   -2.263982   -0.026233
     15          1           0        3.719559   -0.990713    1.070801
     16          1           0        3.957176   -0.671571   -0.684479
     17          1           0        1.799166   -2.636829   -0.185889
     18          1           0       -0.317841   -2.868242   -0.378201
     19          1           0       -2.028405    0.402991    1.404626
     20          1           0       -3.655222   -1.187281   -0.506865
     21          1           0       -4.029267    1.630526   -0.028868
     22          1           0       -2.258254    0.786992   -1.700919
     23          1           0        2.046962    3.413004    0.777591
 ---------------------------------------------------------------------
 Rotational constants (GHZ):           1.3207313           0.5716925           0.4290569
 Standard basis: 6-31G(2df,p) (6D, 7F)
 There are   453 symmetry adapted cartesian basis functions of A   symmetry.
 There are   414 symmetry adapted basis functions of A   symmetry.
   414 basis functions,   642 primitive gaussians,   453 cartesian basis functions
    46 alpha electrons       46 beta electrons
       nuclear repulsion energy       714.0912283827 Hartrees.
 NAtoms=   23 NActive=   23 NUniq=   23 SFac= 1.00D+00 NAtFMM=   60 NAOKFM=F Big=F
 Integral buffers will be    131072 words long.
 Raffenetti 2 integral format.
 Two-electron integral symmetry is turned on.
 One-electron integrals computed using PRISM.
 PrsmSu:  requested number of processors reduced to:  13 ShMem   1 Linda.
 NBasis=   414 RedAO= T EigKep=  4.80D-04  NBF=   414
 NBsUse=   414 1.00D-06 EigRej= -1.00D+00 NBFU=   414
 ExpMin= 1.61D-01 ExpMax= 5.48D+03 ExpMxC= 8.25D+02 IAcc=3 IRadAn=         5 AccDes= 0.00D+00
 Harris functional with IExCor=  402 and IRadAn=       5 diagonalized for initial guess.
 HarFok:  IExCor=  402 AccDes= 0.00D+00 IRadAn=         5 IDoV= 1 UseB2=F ITyADJ=14
 ICtDFT=  3500011 ScaDFX=  1.000000  1.000000  1.000000  1.000000
 FoFCou: FMM=F IPFlag=           0 FMFlag=      100000 FMFlg1=           0
         NFxFlg=           0 DoJE=T BraDBF=F KetDBF=T FulRan=T
         wScrn=  0.000000 ICntrl=       500 IOpCl=  0 I1Cent=   200000004 NGrid=           0
         NMat0=    1 NMatS0=      1 NMatT0=    0 NMatD0=    1 NMtDS0=    0 NMtDT0=    0
 Petite list used in FoFCou.
 Requested convergence on RMS density matrix=1.00D-08 within 128 cycles.
 Requested convergence on MAX density matrix=1.00D-06.
 Requested convergence on             energy=1.00D-06.
 No special actions if energy rises.
 Integral accuracy reduced to 1.0D-05 until final iterations.
 EnCoef did     1 forward-backward iterations
 EnCoef did     2 forward-backward iterations
 Problem detected with inexpensive integrals.
 Switching to full accuracy and repeating last cycle.
 EnCoef did     3 forward-backward iterations
 EnCoef did   100 forward-backward iterations
 EnCoef did     2 forward-backward iterations
 EnCoef did     5 forward-backward iterations
 EnCoef did     2 forward-backward iterations
 Restarting incremental Fock formation.
 SCF Done:  E(RB3LYP) =  -574.977094609     A.U. after   26 cycles
            NFock= 26  Conv=0.71D-08     -V/T= 2.0086

 **********************************************************************

            Population analysis using the SCF density.

 **********************************************************************

 Orbital symmetries:
       Occupied  (A) (A) (A) (A) (A) (A) (A) (A) (A) (A) (A) (A)
                 (A) (A) (A) (A) (A) (A) (A) (A) (A) (A) (A) (A)
                 (A) (A) (A) (A) (A) (A) (A) (A) (A) (A) (A) (A)
                 (A) (A) (A) (A) (A) (A) (A) (A) (A) (A)
       Virtual   (A) (A) (A) (A) (A) (A) (A) (A) (A) (A) (A) (A)
                 (A) (A) (A) (A) (A) (A) (A) (A) (A) (A) (A) (A)
                 (A) (A) (A) (A) (A) (A) (A) (A) (A) (A) (A) (A)
                 (A) (A) (A) (A) (A) (A) (A) (A) (A) (A) (A) (A)
                 (A) (A) (A) (A) (A) (A) (A) (A) (A) (A) (A) (A)
                 (A) (A) (A) (A) (A) (A) (A) (A) (A) (A) (A) (A)
                 (A) (A) (A) (A) (A) (A) (A) (A) (A) (A) (A) (A)
                 (A) (A) (A) (A) (A) (A) (A) (A) (A) (A) (A) (A)
                 (A) (A) (A) (A) (A) (A) (A) (A) (A) (A) (A) (A)
                 (A) (A) (A) (A) (A) (A) (A) (A) (A) (A) (A) (A)
                 (A) (A) (A) (A) (A) (A) (A) (A) (A) (A) (A) (A)
                 (A) (A) (A) (A) (A) (A) (A) (A) (A) (A) (A) (A)
                 (A) (A) (A) (A) (A) (A) (A) (A) (A) (A) (A) (A)
                 (A) (A) (A) (A) (A) (A) (A) (A) (A) (A) (A) (A)
                 (A) (A) (A) (A) (A) (A) (A) (A) (A) (A) (A) (A)
                 (A) (A) (A) (A) (A) (A) (A) (A) (A) (A) (A) (A)
                 (A) (A) (A) (A) (A) (A) (A) (A) (A) (A) (A) (A)
                 (A) (A) (A) (A) (A) (A) (A) (A) (A) (A) (A) (A)
                 (A) (A) (A) (A) (A) (A) (A) (A) (A) (A) (A) (A)
                 (A) (A) (A) (A) (A) (A) (A) (A) (A) (A) (A) (A)
                 (A) (A) (A) (A) (A) (A) (A) (A) (A) (A) (A) (A)
                 (A) (A) (A) (A) (A) (A) (A) (A) (A) (A) (A) (A)
                 (A) (A) (A) (A) (A) (A) (A) (A) (A) (A) (A) (A)
                 (A) (A) (A) (A) (A) (A) (A) (A) (A) (A) (A) (A)
                 (A) (A) (A) (A) (A) (A) (A) (A) (A) (A) (A) (A)
                 (A) (A) (A) (A) (A) (A) (A) (A) (A) (A) (A) (A)
                 (A) (A) (A) (A) (A) (A) (A) (A) (A) (A) (A) (A)
                 (A) (A) (A) (A) (A) (A) (A) (A) (A) (A) (A) (A)
                 (A) (A) (A) (A) (A) (A) (A) (A) (A) (A) (A) (A)
                 (A) (A) (A) (A) (A) (A) (A) (A) (A) (A) (A) (A)
                 (A) (A) (A) (A) (A) (A) (A) (A)
 The electronic state is 1-A.
 Alpha  occ. eigenvalues --  -19.14611 -19.08147 -10.32412 -10.26474 -10.26295
 Alpha  occ. eigenvalues --  -10.24923 -10.23712 -10.21808 -10.20885 -10.19981
 Alpha  occ. eigenvalues --  -10.19644 -10.19569 -10.17941  -1.09054  -0.96538
 Alpha  occ. eigenvalues --   -0.86661  -0.81626  -0.74873  -0.71668  -0.69137
 Alpha  occ. eigenvalues --   -0.66796  -0.65714  -0.61154  -0.56455  -0.54101
 Alpha  occ. eigenvalues --   -0.52083  -0.48833  -0.47443  -0.45605  -0.43070
 Alpha  occ. eigenvalues --   -0.42890  -0.40933  -0.40113  -0.38566  -0.37966
 Alpha  occ. eigenvalues --   -0.35521  -0.34230  -0.33351  -0.32008  -0.29921
 Alpha  occ. eigenvalues --   -0.28412  -0.26782  -0.22297  -0.21189  -0.20729
 Alpha  occ. eigenvalues --   -0.18937
 Alpha virt. eigenvalues --   -0.12900  -0.10026  -0.02496  -0.00636   0.02752
 Alpha virt. eigenvalues --    0.04454   0.05408   0.08273   0.08788   0.11477
 Alpha virt. eigenvalues --    0.12512   0.13105   0.14121   0.14671   0.16088
 Alpha virt. eigenvalues --    0.16959   0.18549   0.19119   0.20373   0.22724
 Alpha virt. eigenvalues --    0.25004   0.27164   0.28743   0.31879   0.32288
 Alpha virt. eigenvalues --    0.35672   0.36515   0.37529   0.38242   0.40308
 Alpha virt. eigenvalues --    0.42723   0.44747   0.45728   0.47860   0.48044
 Alpha virt. eigenvalues --    0.49121   0.49740   0.51333   0.52168   0.53004
 Alpha virt. eigenvalues --    0.54193   0.55422   0.56125   0.57062   0.58609
 Alpha virt. eigenvalues --    0.59070   0.60370   0.60667   0.62685   0.63207
 Alpha virt. eigenvalues --    0.63699   0.64363   0.65686   0.67142   0.68850
 Alpha virt. eigenvalues --    0.69360   0.69798   0.71056   0.71437   0.72351
 Alpha virt. eigenvalues --    0.73155   0.74990   0.75168   0.75402   0.76255
 Alpha virt. eigenvalues --    0.77606   0.78707   0.79189   0.79366   0.81080
 Alpha virt. eigenvalues --    0.81793   0.83288   0.83484   0.84465   0.84586
 Alpha virt. eigenvalues --    0.85599   0.86367   0.87065   0.87931   0.88993
 Alpha virt. eigenvalues --    0.89400   0.90462   0.91903   0.95519   0.96170
 Alpha virt. eigenvalues --    0.97586   0.98083   1.01091   1.02673   1.03284
 Alpha virt. eigenvalues --    1.05197   1.05920   1.07994   1.08900   1.09981
 Alpha virt. eigenvalues --    1.11272   1.16385   1.17294   1.17878   1.19399
 Alpha virt. eigenvalues --    1.21258   1.24195   1.25133   1.25580   1.27116
 Alpha virt. eigenvalues --    1.28239   1.29462   1.30859   1.32814   1.33248
 Alpha virt. eigenvalues --    1.34207   1.36605   1.38776   1.42110   1.42839
 Alpha virt. eigenvalues --    1.43904   1.44530   1.45761   1.46671   1.48030
 Alpha virt. eigenvalues --    1.49197   1.51000   1.51673   1.53505   1.55420
 Alpha virt. eigenvalues --    1.56612   1.57571   1.59554   1.62217   1.63101
 Alpha virt. eigenvalues --    1.65097   1.65897   1.68956   1.69876   1.72211
 Alpha virt. eigenvalues --    1.74111   1.75924   1.78021   1.80236   1.82118
 Alpha virt. eigenvalues --    1.84275   1.86077   1.87239   1.89119   1.91385
 Alpha virt. eigenvalues --    1.92591   1.94890   1.98207   2.00613   2.02018
 Alpha virt. eigenvalues --    2.03098   2.06289   2.11609   2.11700   2.17092
 Alpha virt. eigenvalues --    2.18487   2.21708   2.23760   2.24098   2.27465
 Alpha virt. eigenvalues --    2.31481   2.33744   2.34915   2.35670   2.38333
 Alpha virt. eigenvalues --    2.39497   2.40883   2.43355   2.47519   2.50882
 Alpha virt. eigenvalues --    2.53701   2.54512   2.56430   2.58577   2.58953
 Alpha virt. eigenvalues --    2.62208   2.62339   2.66063   2.68555   2.69524
 Alpha virt. eigenvalues --    2.72185   2.73512   2.75301   2.75950   2.77018
 Alpha virt. eigenvalues --    2.79259   2.80459   2.82382   2.85234   2.86610
 Alpha virt. eigenvalues --    2.87936   2.88407   2.89905   2.91110   2.92934
 Alpha virt. eigenvalues --    2.93446   2.94387   2.96772   2.97879   2.99381
 Alpha virt. eigenvalues --    3.01702   3.03207   3.04272   3.04844   3.06737
 Alpha virt. eigenvalues --    3.07921   3.08922   3.11700   3.11755   3.13872
 Alpha virt. eigenvalues --    3.15418   3.18363   3.19961   3.20598   3.22266
 Alpha virt. eigenvalues --    3.22802   3.24349   3.24835   3.25513   3.27321
 Alpha virt. eigenvalues --    3.28159   3.28966   3.30236   3.32258   3.35883
 Alpha virt. eigenvalues --    3.36901   3.39050   3.40410   3.41658   3.43242
 Alpha virt. eigenvalues --    3.44443   3.47562   3.48158   3.50229   3.53340
 Alpha virt. eigenvalues --    3.54876   3.57423   3.58061   3.58561   3.61814
 Alpha virt. eigenvalues --    3.64873   3.65203   3.66334   3.66799   3.70485
 Alpha virt. eigenvalues --    3.71996   3.74161   3.77132   3.79726   3.82098
 Alpha virt. eigenvalues --    3.87476   3.89180   3.91218   3.93888   3.97516
 Alpha virt. eigenvalues --    3.99074   4.00998   4.03039   4.07970   4.10067
 Alpha virt. eigenvalues --    4.10937   4.13738   4.15260   4.18360   4.18562
 Alpha virt. eigenvalues --    4.20607   4.22069   4.24007   4.26061   4.26425
 Alpha virt. eigenvalues --    4.28997   4.29176   4.31602   4.32782   4.35336
 Alpha virt. eigenvalues --    4.36725   4.37099   4.38826   4.41183   4.41701
 Alpha virt. eigenvalues --    4.43176   4.43735   4.46370   4.47739   4.49572
 Alpha virt. eigenvalues --    4.50248   4.51328   4.51953   4.52162   4.53636
 Alpha virt. eigenvalues --    4.55598   4.56728   4.59041   4.61965   4.63231
 Alpha virt. eigenvalues --    4.63290   4.65133   4.66464   4.67271   4.69668
 Alpha virt. eigenvalues --    4.70206   4.71824   4.72859   4.74352   4.76975
 Alpha virt. eigenvalues --    4.80073   4.81491   4.83959   4.85046   4.86830
 Alpha virt. eigenvalues --    4.88613   4.89137   4.90429   4.92996   4.94558
 Alpha virt. eigenvalues --    5.00955   5.02230   5.03746   5.05523   5.06121
 Alpha virt. eigenvalues --    5.07379   5.09652   5.12148   5.13604   5.15363
 Alpha virt. eigenvalues --    5.15941   5.17505   5.19622   5.20265   5.25005
 Alpha virt. eigenvalues --    5.28046   5.32755   5.34551   5.38372   5.43642
 Alpha virt. eigenvalues --    5.44319   5.47406   5.50142   5.51290   5.59083
 Alpha virt. eigenvalues --    5.60439   5.60764   5.63615   5.65165   5.76200
 Alpha virt. eigenvalues --    5.86142   6.07045   6.14750   6.26674   6.28082
 Alpha virt. eigenvalues --    6.33955   6.48165   6.61228   7.07125   7.34456
 Alpha virt. eigenvalues --    9.91613  10.46357  10.48155  10.79732  11.07418
 Alpha virt. eigenvalues --   11.25075  11.54273  11.74635  11.81448  12.08705
 Alpha virt. eigenvalues --   12.11617  13.33353  13.51310
          Condensed to atoms (all electrons):
               1          2          3          4          5          6
     1  C    5.022526   0.376696  -0.005509   0.001892  -0.000025   0.000002
     2  C    0.376696   4.900435   0.545300  -0.024298  -0.006186   0.000330
     3  C   -0.005509   0.545300   4.900894   0.366190  -0.074229  -0.027936
     4  C    0.001892  -0.024298   0.366190   5.067100   0.647292  -0.080671
     5  C   -0.000025  -0.006186  -0.074229   0.647292   4.626642   0.614573
     6  C    0.000002   0.000330  -0.027936  -0.080671   0.614573   5.100918
     7  C    0.000000   0.000030   0.000338  -0.004768  -0.045811   0.419211
     8  C    0.000000  -0.000023   0.000915   0.001337  -0.014530  -0.059987
     9  C   -0.000007   0.001147  -0.029497  -0.005431   0.000755  -0.024982
    10  C   -0.000742  -0.017390   0.329148  -0.041843  -0.003051  -0.007001
    11  C    0.000103  -0.004290  -0.043579   0.000216   0.002398  -0.000054
    12  O   -0.028610  -0.002414  -0.020568   0.002295   0.000034  -0.000006
    13  O   -0.000096   0.000264  -0.000395   0.000030  -0.000008   0.000000
    14  H    0.350978  -0.022835   0.001483  -0.000045  -0.000003  -0.000000
    15  H    0.375693  -0.016448  -0.002202   0.000074   0.000042   0.000001
    16  H    0.376934  -0.016254  -0.001816  -0.000052  -0.000006  -0.000000
    17  H   -0.075730   0.344033  -0.055990  -0.004169   0.001441  -0.000008
    18  H    0.000054  -0.004529  -0.050719   0.346460  -0.025733   0.006728
    19  H   -0.000002   0.000045   0.003203  -0.001023  -0.013287   0.345847
    20  H   -0.000000  -0.000004   0.000031   0.001178  -0.009353  -0.024136
    21  H   -0.000000   0.000000  -0.000027  -0.000060   0.000249   0.006421
    22  H   -0.000000   0.000044  -0.001876  -0.000139   0.006290   0.002963
    23  H    0.000009  -0.000015  -0.000045  -0.000002   0.000001  -0.000000
               7          8          9         10         11         12
     1  C    0.000000   0.000000  -0.000007  -0.000742   0.000103  -0.028610
     2  C    0.000030  -0.000023   0.001147  -0.017390  -0.004290  -0.002414
     3  C    0.000338   0.000915  -0.029497   0.329148  -0.043579  -0.020568
     4  C   -0.004768   0.001337  -0.005431  -0.041843   0.000216   0.002295
     5  C   -0.045811  -0.014530   0.000755  -0.003051   0.002398   0.000034
     6  C    0.419211  -0.059987  -0.024982  -0.007001  -0.000054  -0.000006
     7  C    5.046759   0.555931  -0.057587  -0.005432  -0.000075   0.000001
     8  C    0.555931   5.231453   0.181235  -0.014320  -0.000099  -0.000000
     9  C   -0.057587   0.181235   5.507600   0.462904  -0.014305   0.001300
    10  C   -0.005432  -0.014320   0.462904   5.216430   0.332997  -0.050420
    11  C   -0.000075  -0.000099  -0.014305   0.332997   4.334046   0.631340
    12  O    0.000001  -0.000000   0.001300  -0.050420   0.631340   7.879680
    13  O    0.000000   0.000003   0.000916  -0.038353   0.433514  -0.159735
    14  H   -0.000000  -0.000000  -0.000000  -0.000004  -0.000102   0.002377
    15  H   -0.000000   0.000000   0.000000   0.000102   0.000458   0.001359
    16  H   -0.000000  -0.000000  -0.000001   0.000122   0.000290   0.001826
    17  H   -0.000001   0.000000  -0.000011   0.001542   0.000236   0.003535
    18  H   -0.000146  -0.000078   0.000140   0.003700  -0.000045  -0.000018
    19  H   -0.053061  -0.019623   0.004129  -0.000771   0.000326  -0.000009
    20  H    0.360710  -0.037864  -0.003994   0.000108   0.000000   0.000000
    21  H   -0.042410   0.342764  -0.029680   0.000558   0.000002   0.000000
    22  H   -0.015703  -0.033033   0.286362  -0.017008   0.000519  -0.000016
    23  H   -0.000000  -0.000000  -0.000050   0.001538  -0.015029   0.010676
              13         14         15         16         17         18
     1  C   -0.000096   0.350978   0.375693   0.376934  -0.075730   0.000054
     2  C    0.000264  -0.022835  -0.016448  -0.016254   0.344033  -0.004529
     3  C   -0.000395   0.001483  -0.002202  -0.001816  -0.055990  -0.050719
     4  C    0.000030  -0.000045   0.000074  -0.000052  -0.004169   0.346460
     5  C   -0.000008  -0.000003   0.000042  -0.000006   0.001441  -0.025733
     6  C    0.000000  -0.000000   0.000001  -0.000000  -0.000008   0.006728
     7  C    0.000000  -0.000000  -0.000000  -0.000000  -0.000001  -0.000146
     8  C    0.000003  -0.000000   0.000000  -0.000000   0.000000  -0.000078
     9  C    0.000916  -0.000000   0.000000  -0.000001  -0.000011   0.000140
    10  C   -0.038353  -0.000004   0.000102   0.000122   0.001542   0.003700
    11  C    0.433514  -0.000102   0.000458   0.000290   0.000236  -0.000045
    12  O   -0.159735   0.002377   0.001359   0.001826   0.003535  -0.000018
    13  O    7.883194   0.000002  -0.000034  -0.000045   0.000005   0.000000
    14  H    0.000002   0.664390  -0.044639  -0.042495   0.000111  -0.000016
    15  H   -0.000034  -0.044639   0.569168  -0.026700   0.002536   0.000003
    16  H   -0.000045  -0.042495  -0.026700   0.559421   0.003648   0.000003
    17  H    0.000005   0.000111   0.002536   0.003648   0.681899   0.004631
    18  H    0.000000  -0.000016   0.000003   0.000003   0.004631   0.596076
    19  H   -0.000007   0.000000  -0.000000   0.000000   0.000000  -0.000147
    20  H    0.000000   0.000000  -0.000000   0.000000   0.000001   0.000076
    21  H    0.000000   0.000000   0.000000  -0.000000  -0.000000   0.000001
    22  H   -0.000006   0.000000   0.000000  -0.000000  -0.000002   0.000033
    23  H    0.289895  -0.000000   0.000005  -0.000002  -0.000001  -0.000000
              19         20         21         22         23
     1  C   -0.000002  -0.000000  -0.000000  -0.000000   0.000009
     2  C    0.000045  -0.000004   0.000000   0.000044  -0.000015
     3  C    0.003203   0.000031  -0.000027  -0.001876  -0.000045
     4  C   -0.001023   0.001178  -0.000060  -0.000139  -0.000002
     5  C   -0.013287  -0.009353   0.000249   0.006290   0.000001
     6  C    0.345847  -0.024136   0.006421   0.002963  -0.000000
     7  C   -0.053061   0.360710  -0.042410  -0.015703  -0.000000
     8  C   -0.019623  -0.037864   0.342764  -0.033033  -0.000000
     9  C    0.004129  -0.003994  -0.029680   0.286362  -0.000050
    10  C   -0.000771   0.000108   0.000558  -0.017008   0.001538
    11  C    0.000326   0.000000   0.000002   0.000519  -0.015029
    12  O   -0.000009   0.000000   0.000000  -0.000016   0.010676
    13  O   -0.000007   0.000000   0.000000  -0.000006   0.289895
    14  H    0.000000   0.000000   0.000000   0.000000  -0.000000
    15  H   -0.000000  -0.000000   0.000000   0.000000   0.000005
    16  H    0.000000   0.000000  -0.000000  -0.000000  -0.000002
    17  H    0.000000   0.000001  -0.000000  -0.000002  -0.000001
    18  H   -0.000147   0.000076   0.000001   0.000033  -0.000000
    19  H    0.582834   0.006948  -0.000960  -0.000634   0.000001
    20  H    0.006948   0.557778   0.002623  -0.003609  -0.000000
    21  H   -0.000960   0.002623   0.550114   0.005305   0.000000
    22  H   -0.000634  -0.003609   0.005305   0.592487   0.000001
    23  H    0.000001  -0.000000   0.000000   0.000001   0.345519
 Mulliken charges:
               1
     1  C   -0.394165
     2  C   -0.053637
     3  C    0.166885
     4  C   -0.271563
     5  C    0.292506
     6  C   -0.272212
     7  C   -0.157985
     8  C   -0.134080
     9  C   -0.280944
    10  C   -0.152811
    11  C    0.341129
    12  O   -0.272627
    13  O   -0.409145
    14  H    0.090799
    15  H    0.140585
    16  H    0.145128
    17  H    0.092293
    18  H    0.123526
    19  H    0.146191
    20  H    0.149507
    21  H    0.165101
    22  H    0.178021
    23  H    0.367498
 Sum of Mulliken charges =  -0.00000
 Mulliken charges with hydrogens summed into heavy atoms:
               1
     1  C   -0.017653
     2  C    0.038655
     3  C    0.166885
     4  C   -0.148037
     5  C    0.292506
     6  C   -0.126021
     7  C   -0.008478
     8  C    0.031020
     9  C   -0.102923
    10  C   -0.152811
    11  C    0.341129
    12  O   -0.272627
    13  O   -0.041647
 Electronic spatial extent (au):  <R**2>=           2585.6061
 Charge=             -0.0000 electrons
 Dipole moment (field-independent basis, Debye):
    X=             -1.3925    Y=              1.1282    Z=              0.3068  Tot=              1.8183
 Quadrupole moment (field-independent basis, Debye-Ang):
   XX=            -72.4856   YY=            -62.9629   ZZ=            -76.9582
   XY=              1.7567   XZ=              4.5217   YZ=              5.2102
 Traceless Quadrupole moment (field-independent basis, Debye-Ang):
   XX=             -1.6834   YY=              7.8393   ZZ=             -6.1560
   XY=              1.7567   XZ=              4.5217   YZ=              5.2102
 Octapole moment (field-independent basis, Debye-Ang**2):
  XXX=             20.6708  YYY=             47.8389  ZZZ=              4.5723  XYY=             32.6216
  XXY=             22.4870  XXZ=             -4.4172  XZZ=             12.8514  YZZ=             10.7147
  YYZ=             13.8908  XYZ=             -0.1434
 Hexadecapole moment (field-independent basis, Debye-Ang**3):
 XXXX=          -2310.0640 YYYY=           -733.5022 ZZZZ=           -211.4118 XXXY=            -13.6236
 XXXZ=             56.3566 YYYX=            148.3611 YYYZ=             72.8321 ZZZX=             21.5487
 ZZZY=             17.8993 XXYY=           -464.7007 XXZZ=           -425.8692 YYZZ=           -187.6644
 XXYZ=             31.5518 YYXZ=             28.1504 ZZXY=             18.4930
 N-N= 7.140912283827D+02 E-N=-2.767396383602D+03  KE= 5.700925730405D+02
 PrsmSu:  requested number of processors reduced to:  13 ShMem   1 Linda.
 Calling FoFJK, ICntrl=      2127 FMM=F ISym2X=0 I1Cent= 0 IOpClX= 0 NMat=1 NMatS=1 NMatT=0.
 ***** Axes restored to original set *****
 -------------------------------------------------------------------
 Center     Atomic                   Forces (Hartrees/Bohr)
 Number     Number              X              Y              Z
 -------------------------------------------------------------------
      1        6           0.021565134   -0.006222457    0.004619300
      2        6          -0.019539669   -0.004202997    0.009471344
      3        6          -0.042292521   -0.019663653    0.016619412
      4        6           0.013779074   -0.008576431   -0.020850649
      5        6           0.002518641   -0.000628041   -0.007663183
      6        6          -0.024813223    0.021462833    0.010484949
      7        6          -0.000608021   -0.037905400   -0.030384155
      8        6          -0.000585371    0.043419522    0.037119602
      9        6          -0.031501962   -0.030315870   -0.034747844
     10        6          -0.004360954   -0.001032118   -0.028263831
     11        6          -0.025914080   -0.010918383   -0.042841645
     12        8           0.046887973   -0.027733608    0.004042003
     13        8           0.003423688    0.067075560    0.075362584
     14        1           0.023117750    0.001406736    0.004319690
     15        1           0.012469437   -0.003098111    0.013324378
     16        1           0.006153516    0.009034107    0.002986170
     17        1           0.019741605    0.009692352    0.006290280
     18        1           0.000658236   -0.000708567   -0.011459125
     19        1           0.010302334    0.016478380   -0.043936481
     20        1           0.017548883    0.021663817    0.007144217
     21        1          -0.014075664   -0.032437011    0.022684360
     22        1          -0.039865773   -0.001788117    0.000417466
     23        1           0.025390966   -0.005002542    0.005261160
 -------------------------------------------------------------------
 Cartesian Forces:  Max     0.075362584 RMS     0.023971827

 GradGradGradGradGradGradGradGradGradGradGradGradGradGradGradGradGradGrad
 Berny optimization.
 FormGI is forming the generalized inverse of G from B-inverse, IUseBI=4.
 Internal  Forces:  Max     0.164364350 RMS     0.036970252
 Search for a local minimum.
 Step number   1 out of a maximum of  111
 All quantities printed in internal units (Hartrees-Bohrs-Radians)
 Mixed Optimization -- RFO/linear search
 Second derivative matrix not updated -- first step.
 ITU=  0
     Eigenvalues ---    0.00230   0.00230   0.00239   0.00240   0.00452
     Eigenvalues ---    0.00678   0.00738   0.01013   0.01215   0.01525
     Eigenvalues ---    0.01525   0.01688   0.02211   0.02337   0.02405
     Eigenvalues ---    0.03291   0.03534   0.04888   0.06017   0.06438
     Eigenvalues ---    0.07219   0.09579   0.11649   0.13316   0.13715
     Eigenvalues ---    0.15178   0.15648   0.15838   0.15991   0.16000
     Eigenvalues ---    0.16000   0.16000   0.16186   0.18330   0.19674
     Eigenvalues ---    0.20311   0.21880   0.22007   0.22785   0.23877
     Eigenvalues ---    0.24512   0.24766   0.24912   0.25000   0.25000
     Eigenvalues ---    0.25721   0.31523   0.31537   0.31734   0.32417
     Eigenvalues ---    0.32595   0.33851   0.34019   0.36220   0.36800
     Eigenvalues ---    0.37211   0.39143   0.54142   0.54947   0.63913
     Eigenvalues ---    0.66727   0.67825   0.91806
 RFO step:  Lambda=-2.74043173D-01 EMin= 2.30000000D-03
 Linear search not attempted -- first point.
 Maximum step size (   0.300) exceeded in Quadratic search.
    -- Step size scaled by   0.429
 Iteration  1 RMS(Cart)=  0.17872775 RMS(Int)=  0.00909879
 Iteration  2 RMS(Cart)=  0.02006443 RMS(Int)=  0.00026955
 Iteration  3 RMS(Cart)=  0.00030915 RMS(Int)=  0.00024427
 Iteration  4 RMS(Cart)=  0.00000011 RMS(Int)=  0.00024427
 Variable       Old X    -DE/DX   Delta X   Delta X   Delta X     New X
                                 (Linear)    (Quad)   (Total)
    R1        3.19994  -0.06699   0.00000  -0.06286  -0.06286   3.13707
    R2        2.11333  -0.00956   0.00000  -0.00694  -0.00694   2.10639
    R3        2.10087  -0.01142   0.00000  -0.00819  -0.00819   2.09268
    R4        2.07298  -0.00496   0.00000  -0.00347  -0.00347   2.06951
    R5        2.77039  -0.07276   0.00000  -0.04908  -0.04908   2.72131
    R6        2.07583  -0.00275   0.00000  -0.00193  -0.00193   2.07390
    R7        2.72041   0.04172   0.00000   0.02715   0.02710   2.74752
    R8        3.31851  -0.00887   0.00000  -0.01151  -0.01172   3.30679
    R9        2.44651   0.01408   0.00000   0.00700   0.00708   2.45359
   R10        2.02849   0.00923   0.00000   0.00617   0.00617   2.03465
   R11        2.46121   0.01105   0.00000   0.00607   0.00622   2.46743
   R12        2.74163   0.03655   0.00000   0.02635   0.02656   2.76819
   R13        2.11726  -0.02035   0.00000  -0.01482  -0.01482   2.10243
   R14        2.55035   0.04425   0.00000   0.02385   0.02402   2.57438
   R15        2.09768  -0.01299   0.00000  -0.00929  -0.00929   2.08838
   R16        3.31418  -0.00983   0.00000  -0.01162  -0.01168   3.30250
   R17        2.11698  -0.01491   0.00000  -0.01085  -0.01085   2.10613
   R18        2.99628  -0.08761   0.00000  -0.07491  -0.07511   2.92118
   R19        2.24109  -0.02766   0.00000  -0.02235  -0.02235   2.21874
   R20        3.12880  -0.04354   0.00000  -0.03916  -0.03916   3.08964
   R21        2.32112  -0.01713   0.00000  -0.00617  -0.00617   2.31495
   R22        2.45983   0.05466   0.00000   0.02492   0.02492   2.48475
   R23        1.81879  -0.01606   0.00000  -0.00837  -0.00837   1.81042
    A1        2.00490  -0.02486   0.00000  -0.02409  -0.02414   1.98076
    A2        1.99548  -0.00994   0.00000  -0.01019  -0.01025   1.98523
    A3        1.98752  -0.00034   0.00000  -0.00046  -0.00047   1.98705
    A4        1.75900   0.02018   0.00000   0.02018   0.02009   1.77909
    A5        1.78820   0.01704   0.00000   0.01750   0.01750   1.80570
    A6        1.90498   0.00277   0.00000   0.00196   0.00193   1.90691
    A7        2.55069   0.00724   0.00000   0.00629   0.00629   2.55699
    A8        1.69606   0.01920   0.00000   0.01942   0.01942   1.71548
    A9        2.03501  -0.02643   0.00000  -0.02571  -0.02571   2.00930
   A10        1.89545  -0.04520   0.00000  -0.03581  -0.03566   1.85979
   A11        2.42313   0.03886   0.00000   0.03197   0.03195   2.45507
   A12        1.92907   0.00822   0.00000   0.00612   0.00600   1.93507
   A13        2.00750   0.00683   0.00000   0.00973   0.01024   2.01774
   A14        2.04888   0.00269   0.00000   0.00068   0.00044   2.04932
   A15        2.18874  -0.00910   0.00000  -0.00907  -0.00924   2.17950
   A16        2.79278  -0.01851   0.00000  -0.01337  -0.01304   2.77974
   A17        2.00533  -0.03375   0.00000  -0.02771  -0.02800   1.97733
   A18        2.02920  -0.00245   0.00000  -0.00246  -0.00199   2.02721
   A19        1.85284   0.03648   0.00000   0.03828   0.03838   1.89122
   A20        1.80629   0.02540   0.00000   0.02896   0.02934   1.83563
   A21        1.90726   0.00285   0.00000   0.00309   0.00292   1.91018
   A22        2.04969  -0.01827   0.00000  -0.01881  -0.01880   2.03089
   A23        2.08153  -0.01590   0.00000  -0.01178  -0.01151   2.07002
   A24        1.94578   0.04065   0.00000   0.04023   0.04013   1.98591
   A25        2.18263  -0.02124   0.00000  -0.02251  -0.02280   2.15983
   A26        2.41597   0.03434   0.00000   0.02505   0.02475   2.44072
   A27        1.18157   0.02578   0.00000   0.03353   0.03377   1.21534
   A28        2.12778  -0.02476   0.00000  -0.02477  -0.02533   2.10245
   A29        2.27424  -0.01800   0.00000  -0.01723  -0.01731   2.25692
   A30        1.62072   0.16436   0.00000   0.13628   0.13639   1.75711
   A31        2.38421  -0.14638   0.00000  -0.11895  -0.11895   2.26527
   A32        2.05176   0.01036   0.00000   0.00864   0.00860   2.06036
   A33        2.45761  -0.13497   0.00000  -0.11037  -0.11041   2.34720
   A34        1.77274   0.12507   0.00000   0.10259   0.10254   1.87529
   A35        3.08738  -0.03607   0.00000  -0.05350  -0.05350   3.03388
   A36        3.18403   0.01091   0.00000   0.01618   0.01618   3.20021
    D1       -2.99847  -0.00168   0.00000  -0.00223  -0.00219  -3.00066
    D2        0.21103  -0.00097   0.00000  -0.00139  -0.00136   0.20967
    D3        1.26280  -0.00295   0.00000  -0.00388  -0.00390   1.25890
    D4       -1.81088  -0.00225   0.00000  -0.00305  -0.00308  -1.81395
    D5       -0.94381   0.00224   0.00000   0.00278   0.00278  -0.94103
    D6        2.26569   0.00294   0.00000   0.00361   0.00360   2.26930
    D7       -2.81113  -0.00841   0.00000  -0.01258  -0.01259  -2.82372
    D8        0.00347  -0.00404   0.00000  -0.00571  -0.00570  -0.00223
    D9        0.25510  -0.00801   0.00000  -0.01235  -0.01236   0.24273
   D10        3.06970  -0.00364   0.00000  -0.00548  -0.00547   3.06422
   D11        2.34375   0.00082   0.00000   0.00549   0.00594   2.34969
   D12       -0.52117   0.00088   0.00000   0.00226   0.00232  -0.51885
   D13       -0.57012  -0.01175   0.00000  -0.00714  -0.00667  -0.57679
   D14        2.84814  -0.01170   0.00000  -0.01038  -0.01029   2.83785
   D15        3.07288  -0.01462   0.00000  -0.02349  -0.02359   3.04929
   D16       -0.15380  -0.02106   0.00000  -0.02752  -0.02706  -0.18086
   D17       -0.39978  -0.01648   0.00000  -0.02145  -0.02121  -0.42099
   D18        2.65672  -0.02291   0.00000  -0.02549  -0.02467   2.63205
   D19        0.68076  -0.02184   0.00000  -0.02551  -0.02568   0.65508
   D20       -2.76296  -0.01945   0.00000  -0.01984  -0.01965  -2.78261
   D21        1.27139  -0.01091   0.00000  -0.01093  -0.01106   1.26033
   D22       -0.90736  -0.02998   0.00000  -0.03815  -0.03839  -0.94574
   D23       -1.76388   0.02329   0.00000   0.02873   0.02830  -1.73558
   D24        0.43297   0.01843   0.00000   0.02551   0.02546   0.45843
   D25        0.50456   0.02506   0.00000   0.03664   0.03620   0.54076
   D26        2.70141   0.02020   0.00000   0.03342   0.03336   2.73477
   D27        0.71091   0.00086   0.00000   0.00116   0.00085   0.71176
   D28       -2.04916  -0.00365   0.00000  -0.00899  -0.00934  -2.05850
   D29       -1.39176  -0.01098   0.00000  -0.01332  -0.01339  -1.40515
   D30        2.13136  -0.01550   0.00000  -0.02347  -0.02358   2.10778
   D31       -0.38581  -0.00265   0.00000  -0.00872  -0.00903  -0.39484
   D32        1.59501  -0.01142   0.00000  -0.00976  -0.00907   1.58593
   D33        2.31876   0.01704   0.00000   0.01787   0.01720   2.33596
   D34       -1.98360   0.00828   0.00000   0.01684   0.01715  -1.96645
   D35        0.83102   0.02926   0.00000   0.03641   0.03628   0.86730
   D36       -2.18670   0.01836   0.00000   0.02579   0.02576  -2.16094
   D37       -0.76815  -0.00723   0.00000  -0.00671  -0.00636  -0.77451
   D38        2.49731  -0.01813   0.00000  -0.01734  -0.01688   2.48043
   D39        0.20191   0.01111   0.00000   0.01894   0.01931   0.22122
   D40       -2.87840  -0.00781   0.00000  -0.01044  -0.01007  -2.88847
   D41       -3.03416   0.01718   0.00000   0.02499   0.02462  -3.00954
   D42        0.16871  -0.00174   0.00000  -0.00439  -0.00476   0.16395
         Item               Value     Threshold  Converged?
 Maximum Force            0.164364     0.000450     NO 
 RMS     Force            0.036970     0.000300     NO 
 Maximum Displacement     0.822261     0.001800     NO 
 RMS     Displacement     0.190206     0.001200     NO 
 Predicted change in Energy=-1.066573D-01
 GradGradGradGradGradGradGradGradGradGradGradGradGradGradGradGradGradGrad

                          Input orientation:                          
 ---------------------------------------------------------------------
 Center     Atomic      Atomic             Coordinates (Angstroms)
 Number     Number       Type             X           Y           Z
 ---------------------------------------------------------------------
      1          6           0        1.465439   -0.166163    0.057542
      2          6           0        3.066619    0.004680    0.461104
      3          6           0        4.016146    0.497707    1.424992
      4          6           0        5.295352    0.584600    0.739444
      5          6           0        5.964621    1.679540    0.936896
      6          6           0        6.454019    2.715535    1.563061
      7          6           0        7.506538    2.369253    2.521242
      8          6           0        6.891102    2.352867    3.736494
      9          6           0        5.295063    1.651194    3.856651
     10          6           0        4.075252    1.330246    2.962999
     11          6           0        2.514522    1.792146    3.117527
     12          8           0        1.689480    1.297086    2.359311
     13          8           0        1.878251    2.645111    3.889860
     14          1           0        1.299092   -0.808673   -0.837978
     15          1           0        0.978701    0.780924   -0.246510
     16          1           0        0.862329   -0.649349    0.833506
     17          1           0        3.505795   -0.417088   -0.451944
     18          1           0        5.477337   -0.112377   -0.060788
     19          1           0        5.716430    3.372551    2.074997
     20          1           0        7.996109    1.429834    2.206418
     21          1           0        7.291891    3.106146    4.453492
     22          1           0        6.115909    0.836328    4.058472
     23          1           0        1.506652    3.260533    4.523103
 ---------------------------------------------------------------------
                    Distance matrix (angstroms):
                    1          2          3          4          5
     1  C    0.000000
     2  C    1.660068   0.000000
     3  C    2.969301   1.440055   0.000000
     4  C    3.961927   2.319705   1.453923   0.000000
     5  C    4.941914   3.380821   2.330562   1.298385   0.000000
     6  C    5.954553   4.476329   3.298644   2.561589   1.305710
     7  C    6.999502   5.435831   4.109414   3.353973   2.315894
     8  C    7.022679   5.555973   4.129169   3.828250   3.024812
     9  C    5.692278   4.382546   2.979786   3.294632   2.995677
    10  C    4.182349   3.005652   1.749880   2.643639   2.792277
    11  C    3.781409   3.249066   2.606745   3.853110   4.083016
    12  O    2.736682   2.677688   2.631602   4.016704   4.521765
    13  O    4.770779   4.487812   3.906086   5.084034   5.133297
    14  H    1.114651   2.339511   3.769622   4.516588   5.577504
    15  H    1.107400   2.337236   3.478535   4.432169   5.202630
    16  H    1.095140   2.329234   3.407661   4.602517   5.609616
    17  H    2.117921   1.097461   2.149464   2.371771   3.517179
    18  H    4.014003   2.469339   2.171365   1.076692   2.108028
    19  H    5.887576   4.579160   3.402676   3.119885   2.055033
    20  H    7.057940   5.420061   4.161682   3.187558   2.408523
    21  H    7.998745   6.588716   5.167811   4.913097   4.020361
    22  H    6.216052   4.788619   3.385098   3.428211   3.236995
    23  H    5.628959   5.434511   4.850676   5.985895   5.935816
                    6          7          8          9         10
     6  C    0.000000
     7  C    1.464861   0.000000
     8  C    2.246415   1.362303   0.000000
     9  C    2.781467   2.681334   1.747606   0.000000
    10  C    3.088266   3.612258   3.094037   1.545820   0.000000
    11  C    4.334588   5.060517   4.455557   2.880552   1.634965
    12  O    5.034565   5.917257   5.483446   3.920159   2.461188
    13  O    5.133869   5.798864   5.023705   3.558592   2.723005
    14  H    6.690165   7.740541   7.886173   6.637641   5.170055
    15  H    6.082465   7.266079   7.300125   6.018661   4.493477
    16  H    6.566711   7.490389   7.333945   5.837896   4.333176
    17  H    4.750326   5.710471   6.056069   5.103259   3.878053
    18  H    3.404097   4.116190   4.742943   4.299969   3.631844
    19  H    1.112559   2.100055   2.276002   2.512949   2.766410
    20  H    2.108311   1.105126   2.100991   3.172999   3.994428
    21  H    3.034666   2.079105   1.114516   2.541738   3.965118
    22  H    3.142104   2.578136   1.733345   1.174107   2.368184
    23  H    5.790969   6.387524   5.516785   4.169675   3.571784
                   11         12         13         14         15
    11  C    0.000000
    12  O    1.225018   0.000000
    13  O    1.314871   2.048264   0.000000
    14  H    4.887490   3.848283   5.883579   0.000000
    15  H    3.833805   2.749897   4.625358   1.726066   0.000000
    16  H    3.729262   2.607847   4.607262   1.734937   1.796012
    17  H    4.313289   3.760391   5.556727   2.274182   2.804218
    18  H    4.744172   4.710767   6.013716   4.306575   4.590230
    19  H    3.719780   4.539242   4.307495   6.743956   5.878095
    20  H    5.568590   6.309878   6.460578   7.689558   7.462034
    21  H    5.131731   6.248624   5.462393   8.901636   8.206890
    22  H    3.843040   4.763688   4.610626   7.062789   6.702750
    23  H    2.268833   2.927550   0.958033   6.733700   5.401519
                   16         17         18         19         20
    16  H    0.000000
    17  H    2.948600   0.000000
    18  H    4.731427   2.032936   0.000000
    19  H    6.424895   5.062974   4.094321   0.000000
    20  H    7.556369   5.535425   3.723284   2.998059   0.000000
    21  H    8.279331   7.128184   5.833543   2.865360   2.890552
    22  H    6.340958   5.359814   4.275058   3.244409   2.705089
    23  H    5.414375   6.501735   6.939374   4.871140   7.129625
                   21         22         23
    21  H    0.000000
    22  H    2.586707   0.000000
    23  H    5.787718   5.228566   0.000000
 Stoichiometry    C11H10O2
 Framework group  C1[X(C11H10O2)]
 Deg. of freedom    63
 Full point group                 C1      NOp   1
 Largest Abelian subgroup         C1      NOp   1
 Largest concise Abelian subgroup C1      NOp   1
                         Standard orientation:                         
 ---------------------------------------------------------------------
 Center     Atomic      Atomic             Coordinates (Angstroms)
 Number     Number       Type             X           Y           Z
 ---------------------------------------------------------------------
      1          6           0        3.468637   -1.454271    0.039590
      2          6           0        1.836916   -1.605874   -0.225606
      3          6           0        0.583020   -0.924226   -0.417587
      4          6           0       -0.463060   -1.900407   -0.159362
      5          6           0       -1.442768   -1.488998    0.586772
      6          6           0       -2.342373   -0.686211    1.087895
      7          6           0       -3.452059   -0.415155    0.170864
      8          6           0       -3.169847    0.797617   -0.381773
      9          6           0       -1.518605    1.146444   -0.835472
     10          6           0       -0.079754    0.693288   -0.497955
     11          6           0        1.199922    1.570871    0.017204
     12          8           0        2.289213    1.014767    0.086933
     13          8           0        1.361507    2.807866    0.432681
     14          1           0        4.021772   -2.419416   -0.031018
     15          1           0        3.724701   -1.117919    1.063130
     16          1           0        3.978098   -0.814628   -0.688858
     17          1           0        1.769721   -2.700200   -0.177064
     18          1           0       -0.240685   -2.932714   -0.369503
     19          1           0       -1.968228    0.284658    1.481870
     20          1           0       -3.563461   -1.260703   -0.531945
     21          1           0       -3.928867    1.581933   -0.156195
     22          1           0       -2.097552    0.666893   -1.737347
     23          1           0        1.378569    3.732571    0.682593
 ---------------------------------------------------------------------
 Rotational constants (GHZ):           1.1677944           0.6022920           0.4281140
 Standard basis: 6-31G(2df,p) (6D, 7F)
 There are   453 symmetry adapted cartesian basis functions of A   symmetry.
 There are   414 symmetry adapted basis functions of A   symmetry.
   414 basis functions,   642 primitive gaussians,   453 cartesian basis functions
    46 alpha electrons       46 beta electrons
       nuclear repulsion energy       708.4081201581 Hartrees.
 NAtoms=   23 NActive=   23 NUniq=   23 SFac= 1.00D+00 NAtFMM=   60 NAOKFM=F Big=F
 Integral buffers will be    131072 words long.
 Raffenetti 2 integral format.
 Two-electron integral symmetry is turned on.
 One-electron integrals computed using PRISM.
 PrsmSu:  requested number of processors reduced to:  13 ShMem   1 Linda.
 NBasis=   414 RedAO= T EigKep=  4.98D-04  NBF=   414
 NBsUse=   414 1.00D-06 EigRej= -1.00D+00 NBFU=   414
 Initial guess from the checkpoint file:  "CCdC1CdCdCCdCCdC1CqdOrO.chk"
 B after Tr=     0.000000   -0.000000    0.000000
         Rot=    0.999794    0.006441    0.005568   -0.018432 Ang=   2.33 deg.
 ExpMin= 1.61D-01 ExpMax= 5.48D+03 ExpMxC= 8.25D+02 IAcc=2 IRadAn=         4 AccDes= 0.00D+00
 Harris functional with IExCor=  402 and IRadAn=       4 diagonalized for initial guess.
 HarFok:  IExCor=  402 AccDes= 0.00D+00 IRadAn=         4 IDoV= 1 UseB2=F ITyADJ=14
 ICtDFT=  3500011 ScaDFX=  1.000000  1.000000  1.000000  1.000000
 FoFCou: FMM=F IPFlag=           0 FMFlag=      100000 FMFlg1=           0
         NFxFlg=           0 DoJE=T BraDBF=F KetDBF=T FulRan=T
         wScrn=  0.000000 ICntrl=       500 IOpCl=  0 I1Cent=   200000004 NGrid=           0
         NMat0=    1 NMatS0=      1 NMatT0=    0 NMatD0=    1 NMtDS0=    0 NMtDT0=    0
 Petite list used in FoFCou.
 Requested convergence on RMS density matrix=1.00D-08 within 128 cycles.
 Requested convergence on MAX density matrix=1.00D-06.
 Requested convergence on             energy=1.00D-06.
 No special actions if energy rises.
 Integral accuracy reduced to 1.0D-05 until final iterations.
 Initial convergence to 1.0D-05 achieved.  Increase integral accuracy.
 SCF Done:  E(RB3LYP) =  -575.068902605     A.U. after   18 cycles
            NFock= 18  Conv=0.79D-08     -V/T= 2.0091
 PrsmSu:  requested number of processors reduced to:  13 ShMem   1 Linda.
 Calling FoFJK, ICntrl=      2127 FMM=F ISym2X=0 I1Cent= 0 IOpClX= 0 NMat=1 NMatS=1 NMatT=0.
 ***** Axes restored to original set *****
 -------------------------------------------------------------------
 Center     Atomic                   Forces (Hartrees/Bohr)
 Number     Number              X              Y              Z
 -------------------------------------------------------------------
      1        6           0.021106470    0.001407452    0.016113212
      2        6          -0.026893178   -0.002100595    0.011351014
      3        6          -0.035750929   -0.013736783    0.020801291
      4        6           0.015761902   -0.003460697   -0.015166699
      5        6          -0.000653673   -0.000472152   -0.006044775
      6        6          -0.019825778    0.008497306    0.012001493
      7        6          -0.011878070   -0.026604479   -0.020262844
      8        6          -0.006082648    0.042868503    0.023894526
      9        6          -0.022519064   -0.032392137   -0.035876240
     10        6          -0.001862834    0.007503076   -0.017507305
     11        6          -0.014162193   -0.008231070   -0.036737973
     12        8           0.035096185   -0.021771329   -0.004497570
     13        8           0.013734907    0.032553086    0.036075333
     14        1           0.019396763    0.002910175    0.007150608
     15        1           0.009135988   -0.001292708    0.012302829
     16        1           0.003302081    0.008676588    0.004660878
     17        1           0.013794546    0.010703230    0.008193297
     18        1           0.000550976    0.000329467   -0.008246637
     19        1           0.012698298    0.015649146   -0.036964026
     20        1           0.019343388    0.019831296    0.006491802
     21        1          -0.010186168   -0.033088978    0.020178743
     22        1          -0.036601505   -0.001010911   -0.000449111
     23        1           0.022494536   -0.006767485    0.002538152
 -------------------------------------------------------------------
 Cartesian Forces:  Max     0.042868503 RMS     0.018926374

 GradGradGradGradGradGradGradGradGradGradGradGradGradGradGradGradGradGrad
 Berny optimization.
 Using GEDIIS/GDIIS optimizer.
 FormGI is forming the generalized inverse of G from B-inverse, IUseBI=4.
 Internal  Forces:  Max     0.087760162 RMS     0.026025485
 Search for a local minimum.
 Step number   2 out of a maximum of  111
 All quantities printed in internal units (Hartrees-Bohrs-Radians)
 Mixed Optimization -- RFO/linear search
 Update second derivatives using D2CorX and points    1    2
 DE= -9.18D-02 DEPred=-1.07D-01 R= 8.61D-01
 TightC=F SS=  1.41D+00  RLast= 3.23D-01 DXNew= 5.0454D-01 9.6962D-01
 Trust test= 8.61D-01 RLast= 3.23D-01 DXMaxT set to 5.05D-01
 ITU=  1  0
 Use linear search instead of GDIIS.
 Linear search step of   0.600 exceeds DXMaxT=   0.505 but not scaled.
 Quartic linear search produced a step of  2.00000.
 Iteration  1 RMS(Cart)=  0.26507296 RMS(Int)=  0.02712399
 Iteration  2 RMS(Cart)=  0.11200745 RMS(Int)=  0.00471174
 Iteration  3 RMS(Cart)=  0.00793261 RMS(Int)=  0.00138591
 Iteration  4 RMS(Cart)=  0.00004861 RMS(Int)=  0.00138575
 Iteration  5 RMS(Cart)=  0.00000001 RMS(Int)=  0.00138575
 Variable       Old X    -DE/DX   Delta X   Delta X   Delta X     New X
                                 (Linear)    (Quad)   (Total)
    R1        3.13707  -0.06205  -0.12572   0.00000  -0.12572   3.01135
    R2        2.10639  -0.01032  -0.01388   0.00000  -0.01388   2.09250
    R3        2.09268  -0.00850  -0.01638   0.00000  -0.01638   2.07630
    R4        2.06951  -0.00234  -0.00693   0.00000  -0.00693   2.06258
    R5        2.72131  -0.07323  -0.09816   0.00000  -0.09816   2.62315
    R6        2.07390  -0.00541  -0.00386   0.00000  -0.00386   2.07004
    R7        2.74752   0.03281   0.05421   0.00000   0.05381   2.80133
    R8        3.30679  -0.05450  -0.02344   0.00000  -0.02461   3.28218
    R9        2.45359   0.01348   0.01416   0.00000   0.01450   2.46809
   R10        2.03465   0.00601   0.01233   0.00000   0.01233   2.04699
   R11        2.46743   0.01379   0.01244   0.00000   0.01318   2.48062
   R12        2.76819   0.02779   0.05311   0.00000   0.05416   2.82234
   R13        2.10243  -0.01619  -0.02965   0.00000  -0.02965   2.07278
   R14        2.57438   0.03270   0.04805   0.00000   0.04908   2.62346
   R15        2.08838  -0.01014  -0.01859   0.00000  -0.01859   2.06980
   R16        3.30250  -0.01468  -0.02336   0.00000  -0.02359   3.27891
   R17        2.10613  -0.01303  -0.02171   0.00000  -0.02171   2.08442
   R18        2.92118  -0.08591  -0.15021   0.00000  -0.15116   2.77002
   R19        2.21874  -0.02496  -0.04470   0.00000  -0.04470   2.17404
   R20        3.08964  -0.05602  -0.07832   0.00000  -0.07832   3.01131
   R21        2.31495  -0.01206  -0.01234   0.00000  -0.01234   2.30261
   R22        2.48475   0.02186   0.04984   0.00000   0.04984   2.53459
   R23        1.81042  -0.01139  -0.01673   0.00000  -0.01673   1.79369
    A1        1.98076  -0.02059  -0.04828   0.00000  -0.04859   1.93216
    A2        1.98523  -0.00861  -0.02050   0.00000  -0.02088   1.96435
    A3        1.98705  -0.00058  -0.00095   0.00000  -0.00105   1.98600
    A4        1.77909   0.01738   0.04018   0.00000   0.03960   1.81869
    A5        1.80570   0.01474   0.03500   0.00000   0.03497   1.84067
    A6        1.90691   0.00145   0.00387   0.00000   0.00372   1.91064
    A7        2.55699  -0.03274   0.01258   0.00000   0.01258   2.56957
    A8        1.71548   0.03456   0.03884   0.00000   0.03884   1.75432
    A9        2.00930  -0.00192  -0.05142   0.00000  -0.05142   1.95787
   A10        1.85979   0.02151  -0.07131   0.00000  -0.07049   1.78930
   A11        2.45507  -0.03411   0.06390   0.00000   0.06380   2.51887
   A12        1.93507   0.01153   0.01200   0.00000   0.01131   1.94638
   A13        2.01774  -0.00726   0.02048   0.00000   0.02321   2.04095
   A14        2.04932   0.01006   0.00088   0.00000  -0.00043   2.04890
   A15        2.17950  -0.00217  -0.01849   0.00000  -0.01945   2.16004
   A16        2.77974  -0.01472  -0.02608   0.00000  -0.02383   2.75591
   A17        1.97733  -0.01088  -0.05600   0.00000  -0.05747   1.91986
   A18        2.02721  -0.00395  -0.00398   0.00000  -0.00112   2.02609
   A19        1.89122   0.02252   0.07675   0.00000   0.07728   1.96850
   A20        1.83563   0.02065   0.05868   0.00000   0.06073   1.89637
   A21        1.91018   0.00332   0.00584   0.00000   0.00475   1.91493
   A22        2.03089  -0.01296  -0.03760   0.00000  -0.03745   1.99344
   A23        2.07002  -0.01574  -0.02302   0.00000  -0.02135   2.04867
   A24        1.98591   0.03667   0.08027   0.00000   0.07963   2.06554
   A25        2.15983  -0.01763  -0.04560   0.00000  -0.04737   2.11246
   A26        2.44072   0.01850   0.04950   0.00000   0.04746   2.48818
   A27        1.21534   0.02746   0.06755   0.00000   0.06860   1.28394
   A28        2.10245  -0.02485  -0.05066   0.00000  -0.05354   2.04890
   A29        2.25692   0.01307  -0.03462   0.00000  -0.03480   2.22213
   A30        1.75711   0.04779   0.27279   0.00000   0.27315   2.03026
   A31        2.26527  -0.06058  -0.23789   0.00000  -0.23793   2.02734
   A32        2.06036  -0.00252   0.01720   0.00000   0.01672   2.07708
   A33        2.34720  -0.08505  -0.22082   0.00000  -0.22130   2.12590
   A34        1.87529   0.08776   0.20509   0.00000   0.20461   2.07990
   A35        3.03388  -0.03564  -0.10701   0.00000  -0.10701   2.92687
   A36        3.20021   0.01116   0.03236   0.00000   0.03236   3.23257
    D1       -3.00066  -0.00093  -0.00438   0.00000  -0.00414  -3.00480
    D2        0.20967   0.00002  -0.00272   0.00000  -0.00251   0.20716
    D3        1.25890  -0.00302  -0.00781   0.00000  -0.00797   1.25093
    D4       -1.81395  -0.00207  -0.00615   0.00000  -0.00635  -1.82030
    D5       -0.94103   0.00293   0.00555   0.00000   0.00552  -0.93551
    D6        2.26930   0.00388   0.00721   0.00000   0.00715   2.27645
    D7       -2.82372  -0.00519  -0.02518   0.00000  -0.02523  -2.84895
    D8       -0.00223  -0.00394  -0.01140   0.00000  -0.01132  -0.01355
    D9        0.24273  -0.00579  -0.02472   0.00000  -0.02481   0.21792
   D10        3.06422  -0.00454  -0.01095   0.00000  -0.01090   3.05333
   D11        2.34969  -0.01015   0.01187   0.00000   0.01433   2.36402
   D12       -0.51885  -0.01206   0.00464   0.00000   0.00499  -0.51386
   D13       -0.57679  -0.00092  -0.01334   0.00000  -0.01066  -0.58745
   D14        2.83785  -0.00283  -0.02057   0.00000  -0.02000   2.81786
   D15        3.04929  -0.01769  -0.04719   0.00000  -0.04734   3.00195
   D16       -0.18086  -0.01748  -0.05412   0.00000  -0.05210  -0.23296
   D17       -0.42099  -0.01571  -0.04241   0.00000  -0.04049  -0.46148
   D18        2.63205  -0.01551  -0.04934   0.00000  -0.04525   2.58680
   D19        0.65508  -0.02739  -0.05136   0.00000  -0.05214   0.60294
   D20       -2.78261  -0.02326  -0.03930   0.00000  -0.03816  -2.82077
   D21        1.26033  -0.01350  -0.02212   0.00000  -0.02272   1.23761
   D22       -0.94574  -0.03208  -0.07677   0.00000  -0.07818  -1.02393
   D23       -1.73558   0.01577   0.05660   0.00000   0.05390  -1.68168
   D24        0.45843   0.01500   0.05092   0.00000   0.05047   0.50890
   D25        0.54076   0.02079   0.07239   0.00000   0.06979   0.61054
   D26        2.73477   0.02002   0.06672   0.00000   0.06636   2.80113
   D27        0.71176  -0.00000   0.00170   0.00000  -0.00028   0.71148
   D28       -2.05850  -0.00516  -0.01868   0.00000  -0.02087  -2.07937
   D29       -1.40515  -0.01160  -0.02678   0.00000  -0.02730  -1.43245
   D30        2.10778  -0.01676  -0.04716   0.00000  -0.04789   2.05988
   D31       -0.39484  -0.00216  -0.01806   0.00000  -0.01984  -0.41468
   D32        1.58593  -0.00771  -0.01815   0.00000  -0.01414   1.57179
   D33        2.33596   0.01578   0.03439   0.00000   0.03027   2.36623
   D34       -1.96645   0.01024   0.03430   0.00000   0.03597  -1.93048
   D35        0.86730   0.02311   0.07256   0.00000   0.07141   0.93871
   D36       -2.16094   0.01607   0.05152   0.00000   0.05124  -2.10970
   D37       -0.77451  -0.00521  -0.01272   0.00000  -0.01082  -0.78533
   D38        2.48043  -0.01225  -0.03376   0.00000  -0.03099   2.44945
   D39        0.22122   0.00418   0.03862   0.00000   0.04067   0.26189
   D40       -2.88847  -0.00629  -0.02014   0.00000  -0.01808  -2.90656
   D41       -3.00954   0.00986   0.04924   0.00000   0.04718  -2.96236
   D42        0.16395  -0.00061  -0.00952   0.00000  -0.01157   0.15238
         Item               Value     Threshold  Converged?
 Maximum Force            0.087760     0.000450     NO 
 RMS     Force            0.026025     0.000300     NO 
 Maximum Displacement     1.993566     0.001800     NO 
 RMS     Displacement     0.360065     0.001200     NO 
 Predicted change in Energy=-4.974071D-02
 GradGradGradGradGradGradGradGradGradGradGradGradGradGradGradGradGradGrad

                          Input orientation:                          
 ---------------------------------------------------------------------
 Center     Atomic      Atomic             Coordinates (Angstroms)
 Number     Number       Type             X           Y           Z
 ---------------------------------------------------------------------
      1          6           0        1.625883   -0.347802   -0.145543
      2          6           0        3.103030   -0.066887    0.382177
      3          6           0        3.903090    0.481684    1.375067
      4          6           0        5.224237    0.573516    0.709003
      5          6           0        5.891580    1.684742    0.869048
      6          6           0        6.334492    2.760743    1.476662
      7          6           0        7.299161    2.379949    2.551376
      8          6           0        6.619264    2.329058    3.760695
      9          6           0        5.032186    1.627769    3.754957
     10          6           0        3.888667    1.343101    2.883187
     11          6           0        2.500009    1.998153    3.309608
     12          8           0        1.481794    1.648602    2.738843
     13          8           0        2.418106    2.900107    4.298905
     14          1           0        1.646588   -1.008155   -1.034154
     15          1           0        1.124160    0.563684   -0.498645
     16          1           0        0.988389   -0.856197    0.580022
     17          1           0        3.691948   -0.455749   -0.455620
     18          1           0        5.447103   -0.157256   -0.058895
     19          1           0        5.570918    3.468250    1.822366
     20          1           0        7.804634    1.446777    2.280552
     21          1           0        6.938319    3.007404    4.569846
[...]
 041162,0.00007416,0.00019417,0.00033768,-0.00011867,-0.00004759,-0.000
 09049,-0.00006025,0.00001614,0.00006827,-0.00002009,-0.00000189,0.0000
 1710,0.00028124,0.00006930,-0.00007442,0.00000467,-0.00032628,0.000078
 52,0.00025131,0.00009363,0.00039129,-0.00042649,-0.00032150,-0.0002350
 7,-0.00007181,-0.00019468,-0.00034415,0.02678054,0.32493982,0.00096322
 ,-0.02281669,-0.05059487,-0.00085762,0.01197223,0.00121732,0.00169885,
 0.00002332,-0.00031085,-0.00012249,-0.00051242,0.00080995,0.00003191,0
 .00002508,-0.00022712,0.00006620,-0.00000867,0.00004987,-0.00003304,0.
 00009731,-0.00013800,-0.00005079,0.00005201,0.00017692,0.00041167,0.00
 011536,0.00002615,-0.00045003,0.00007613,-0.00027165,0.00133242,-0.000
 09729,0.00086642,-0.00097773,-0.00065990,-0.00021924,-0.00028916,0.000
 04997,-0.00027933,0.00018192,0.02490145,0.04795505,-0.18562491,0.08290
 356,-0.10205034,-0.02633663,0.00799147,-0.01568421,-0.00085606,0.00081
 609,0.00270158,-0.00028642,-0.00229454,0.00050230,-0.00015295,-0.00006
 339,0.00063844,-0.00013442,0.00006492,-0.00028920,0.00029987,-0.000135
 67,0.00003889,-0.00007948,-0.00004297,0.00002174,-0.00006913,-0.000084
 73,-0.00048128,-0.00014408,0.00095572,0.00022380,-0.00103884,0.0003717
 4,-0.00043404,0.00083750,-0.00003669,0.00053754,0.00036660,0.00000349,
 0.00023267,0.00234196,-0.00074208,0.00146442,0.20722687,0.08192819,-0.
 08617924,0.05751498,-0.01054126,0.00437037,-0.00727191,-0.00097520,-0.
 00066723,0.00076013,0.00013193,-0.00107619,0.00041993,-0.00009013,-0.0
 0001014,-0.00003957,-0.00006777,0.00000615,-0.00010217,0.00017737,-0.0
 0008496,0.00002148,0.00002783,0.00001651,-0.00009668,-0.00018423,-0.00
 014834,-0.00006091,-0.00020472,0.00028500,0.00002511,-0.00094855,0.000
 26053,-0.00054597,0.00062121,0.00013166,0.00054442,0.00025599,0.000059
 23,0.00024173,0.02428550,-0.01459582,0.01752416,-0.08759360,0.09423603
 ,-0.09852357,0.05711368,-0.11746596,0.00802621,-0.00692516,0.00763759,
 0.00135127,0.00116979,0.00046507,-0.00017676,0.00054781,-0.00018271,0.
 00016254,0.00031397,-0.00056273,-0.00001198,-0.00011249,0.00018597,-0.
 00018464,0.00003788,0.00003149,0.00019773,0.00005714,-0.00015938,-0.00
 009229,-0.00021680,0.00048954,-0.00022636,-0.00027093,-0.00015195,-0.0
 0045827,0.00033820,-0.00030633,0.00060296,0.00017622,0.00022042,0.0001
 1317,0.00005558,0.00029080,0.00254900,-0.00161371,0.00092022,0.1100488
 9,-0.06410545,0.12354631,-0.04980158,0.00583774,0.02585511,-0.00387727
 ,0.00867504,0.03099739,0.00132459,0.00128761,0.00038519,-0.00012004,0.
 00030917,-0.00015628,0.00012247,-0.00003456,0.00009483,-0.00000428,-0.
 00000563,-0.00006442,0.00003621,-0.00005014,0.00010664,-0.00012324,-0.
 00007182,0.00002116,-0.00055398,0.00002876,-0.00018166,0.00071710,-0.0
 0000548,-0.00070498,0.00039317,-0.00099696,-0.00002244,-0.00055871,0.0
 0009140,-0.00004343,-0.00011748,0.00005777,-0.00001766,-0.00098480,-0.
 00002973,-0.00294091,0.00294875,-0.00726021,-0.02256720,0.05486010,0.0
 0682307,-0.06555190,-0.07038879,0.00011595,0.00257357,0.01096609,-0.00
 005048,0.00012551,0.00057235,0.00025493,0.00006168,-0.00006369,0.00004
 621,-0.00003732,-0.00004040,-0.00006392,-0.00000614,-0.00000630,0.0000
 6812,-0.00010404,0.00010008,0.00010282,-0.00004257,-0.00010015,-0.0003
 4062,-0.00020088,0.00013474,0.00030996,-0.00018178,-0.00016913,-0.0023
 1426,-0.00067229,-0.00141460,0.00133973,-0.00012971,0.00003103,0.00041
 870,0.00009080,0.00064226,0.00307030,-0.00649089,-0.03031646,-0.001912
 35,0.00301419,0.01362583,-0.00533722,0.06655283,0.02900965,-0.06758938
 ,-0.29723457,0.00169637,-0.00269811,-0.01174479,-0.00123247,-0.0004350
 8,0.00096984,0.00023026,0.00010371,0.00030506,-0.00006621,-0.00003562,
 -0.00032306,0.00001020,-0.00001140,0.00012178,-0.00007365,0.00007567,-
 0.00011259,-0.00000888,0.00000243,0.00013018,0.00002518,0.00004953,0.0
 0017683,-0.00001752,0.00037351,0.00007973,0.00163100,-0.00038809,0.001
 32487,-0.00150110,-0.00117675,-0.00051084,-0.00045731,-0.00010510,-0.0
 0050240,-0.00049838,0.00028458,-0.00037225,0.00203114,-0.00484179,-0.0
 1518993,-0.03247726,0.07603467,0.32222082,-0.00306732,0.00710612,0.027
 03857,-0.06446158,0.01052964,0.05595819,0.00518273,-0.00868261,-0.0213
 3584,0.00046153,0.00139198,-0.00266274,0.00014307,0.00031678,0.0005085
 2,0.00010260,0.00000087,0.00006749,-0.00023974,0.00012931,0.00002734,0
 .00012968,0.00018310,-0.00019867,0.00093373,0.00027070,-0.00026199,-0.
 00020765,-0.00542507,0.00049341,-0.00161332,-0.00004178,-0.00116546,0.
 00055696,0.00014473,0.00020407,0.00035477,-0.00051877,-0.00023028,0.00
 083198,-0.00057259,-0.00046828,0.00095456,0.00052637,-0.00093493,-0.00
 454083,-0.00255006,0.00172694,0.06489167,-0.00293188,0.00457699,0.0088
 7647,0.00839298,-0.06401221,-0.07039413,0.00447088,-0.00037100,-0.0183
 5537,0.00269280,-0.00381802,0.00242989,-0.00082187,-0.00066542,-0.0005
 3261,0.00004696,0.00035024,-0.00004697,0.00031883,-0.00011401,-0.00048
 191,-0.00038790,0.00025270,0.00000319,-0.00111547,-0.00198964,-0.00147
 958,-0.00586796,0.00737271,-0.00320412,0.00059017,0.00090910,0.0012532
 1,0.00023570,-0.00033550,-0.00009137,-0.00016326,0.00023306,0.00013925
 ,0.00119228,0.00069855,-0.00036371,-0.00046051,0.00028371,-0.00007399,
 -0.00256867,0.00082322,0.00049793,-0.00304335,0.05590862,0.00107665,-0
 .00354972,-0.00824204,0.05175842,-0.07265956,-0.29071328,0.00495984,-0
 .00548650,-0.01474988,0.00100404,0.00239821,-0.00004793,-0.00006226,0.
 00012025,0.00016418,0.00003495,0.00001973,0.00018550,-0.00016237,0.000
 13789,-0.00008112,0.00017492,0.00022563,-0.00012182,0.00061062,0.00018
 671,-0.00023686,-0.00038119,-0.00367977,0.00220229,-0.00087692,0.00013
 165,-0.00074716,0.00012092,-0.00014949,0.00014432,0.00017261,-0.000542
 88,-0.00031588,-0.00016229,0.00022064,0.00038439,0.00063802,0.00000298
 ,0.00017398,0.00193316,0.00049281,0.00069103,-0.05968528,0.08236101,0.
 31051129,0.00005286,-0.00064165,-0.00027780,0.00214010,0.00048191,0.00
 071829,-0.00637264,0.01327161,0.01935747,-0.08848329,0.05626736,0.0806
 0537,0.01027951,-0.01095183,-0.01297360,-0.00067795,-0.00336694,0.0025
 4284,0.00255852,0.00079894,0.00014034,-0.00011865,-0.00061452,-0.00131
 010,0.00017898,0.00021688,-0.00017527,-0.00300569,-0.00118224,0.000878
 58,0.00054046,-0.00015110,0.00000970,-0.00012568,0.00015244,0.00007067
 ,0.00003967,0.00049734,0.00027201,-0.00016664,-0.00007714,0.00003841,-
 0.00002140,0.00007691,0.00007082,0.00011948,0.00006399,-0.00011355,-0.
 00032536,-0.00022271,-0.00107232,0.08640005,0.00004715,-0.00010697,0.0
 0007066,0.00056755,0.00078814,0.00161527,-0.00670588,0.00419348,0.0034
 3592,0.06134295,-0.13006497,-0.12330402,0.00471045,-0.01693033,-0.0200
 2223,-0.00165131,0.00279180,-0.00334156,-0.00479705,-0.00080930,0.0007
 9760,0.00069818,0.00010925,0.00043303,-0.00188905,0.00014824,0.0009223
 7,-0.00064234,0.00081654,0.00124564,-0.00035798,-0.00012229,0.00031998
 ,0.00010577,0.00003788,0.00010763,0.00013912,0.00027030,0.00006290,-0.
 00003444,-0.00001011,0.00000642,0.00006039,0.00001778,-0.00000851,-0.0
 0005829,0.00000371,-0.00001766,0.00033034,-0.00003837,-0.00003055,-0.0
 5525201,0.13945775,0.00011924,0.00068356,-0.00009906,-0.00181187,-0.00
 049184,-0.00038557,0.00509008,-0.00475436,-0.00359073,0.07609984,-0.12
 600082,-0.18984507,0.00394107,-0.00631684,-0.00630014,0.00269595,-0.00
 213262,0.00566296,0.00463958,0.00098102,-0.00128070,-0.00067239,-0.000
 41143,-0.00063869,0.00212234,-0.00057934,-0.00079061,0.00103586,-0.000
 78582,-0.00159603,0.00006956,0.00030112,-0.00078022,0.00008175,-0.0000
 5228,0.00007982,0.00001658,-0.00028175,0.00005401,0.00010160,0.0000022
 8,-0.00009171,-0.00015071,-0.00001889,0.00005084,-0.00007476,-0.000007
 50,-0.00001502,0.00054735,-0.00031982,0.00042092,-0.08941488,0.1388959
 8,0.19785077,-0.00056157,0.00084063,-0.00030800,0.00116973,0.00040396,
 0.00018355,0.00241142,-0.00356074,0.00308845,0.00554369,-0.00030946,-0
 .00235282,0.00086878,-0.00775767,0.00763775,-0.03845888,-0.02678651,-0
 .00657464,0.00457983,0.00350961,0.00394295,0.00211271,0.00056881,-0.00
 311345,-0.00152288,-0.00067927,0.00003359,0.00094606,-0.00015677,0.000
 39154,-0.00027363,-0.00059014,-0.00027991,0.00022234,0.00017389,0.0001
 6361,0.00037927,0.00043235,0.00020443,0.00019186,0.00007021,0.00003352
 ,-0.00016726,-0.00012660,0.00006672,-0.00000878,-0.00007550,0.00002518
 ,0.00020388,-0.00026195,0.00012949,-0.00245238,0.00284876,-0.00364788,
 0.02486942,0.00010645,-0.00038765,0.00004318,0.00000774,0.00033675,0.0
 0025348,-0.00159019,0.00066759,-0.00127269,0.00160750,0.00126812,0.001
 13646,-0.00665339,-0.02467256,-0.00325048,-0.02392205,-0.29358569,0.07
 482238,-0.00215088,-0.00402347,0.00166572,0.00128949,0.00053748,0.0006
 3124,0.00034426,0.00012604,-0.00006994,0.00010921,-0.00000471,-0.00014
 469,-0.00011382,-0.00034557,-0.00014496,0.00000048,0.00014287,0.000052
 05,0.00004837,0.00025647,0.00009274,-0.00011467,-0.00003188,0.00007390
 ,0.00002339,0.00003619,-0.00000425,-0.00002180,-0.00001076,0.00002724,
 -0.00006293,0.00013312,-0.00001853,0.00032203,-0.00030902,0.00055680,0
 .03111593,0.31955109,0.00017031,-0.00044286,0.00003193,-0.00036997,0.0
 0017155,0.00025299,-0.00088368,0.00111371,-0.00146195,-0.00100900,-0.0
 0095431,-0.00099571,-0.00217944,-0.02482422,0.00565343,0.00287675,0.07
 115274,-0.06570747,0.00354307,0.02992941,-0.00936225,-0.00171658,-0.00
 036827,-0.00390030,-0.00125687,0.00010644,0.00004820,0.00014412,-0.000
 25826,-0.00039043,-0.00028680,0.00025406,0.00014803,0.00018331,-0.0000
 2678,0.00009345,0.00014633,-0.00029633,0.00005965,-0.00014225,-0.00004
 304,0.00008109,0.00002360,0.00003067,-0.00001289,-0.00003853,-0.000016
 73,0.00002983,-0.00004665,0.00016626,0.00000145,0.00010617,-0.00034638
 ,0.00053030,-0.00087085,-0.07472430,0.07524449,-0.00002699,0.00002996,
 -0.00000626,0.00014580,0.00000135,-0.00004823,-0.00019243,-0.00045159,
 0.00031696,0.00044351,0.00087919,0.00030281,-0.00010882,-0.00128469,-0
 .00139981,0.00324294,-0.00146342,0.00374749,-0.16579185,-0.10609802,-0
 .09446712,-0.00985801,-0.01134727,-0.01041325,0.00543947,-0.00683351,0
 .00097870,0.00025098,0.00038838,0.00108855,0.00001955,-0.00062461,-0.0
 0029004,-0.00011004,0.00026302,0.00001467,-0.00015431,0.00044157,0.000
 11080,0.00001160,0.00000176,-0.00000270,-0.00001139,0.00000011,0.00000
 560,0.00001367,-0.00000010,-0.00000245,-0.00000995,-0.00001623,-0.0000
 1261,-0.00011452,0.00012890,-0.00023152,-0.00013995,-0.00009523,-0.000
 13668,0.17058045,-0.00002285,0.00004945,-0.00002112,0.00001103,-0.0000
 0865,0.00004723,0.00083394,0.00101628,-0.00072553,-0.00099854,-0.00086
 141,-0.00039559,-0.00027122,0.00175178,0.00237482,0.00262416,0.0054598
 4,0.00164945,-0.10919110,-0.13452331,-0.07205019,-0.01372380,-0.007987
 05,-0.01097158,-0.00834902,0.00453553,0.00294282,0.00032835,-0.0008774
 1,-0.00049342,0.00004507,-0.00099517,-0.00029771,-0.00005853,0.0002472
 8,0.00005057,0.00032033,0.00018179,0.00043917,-0.00000913,-0.00002265,
 -0.00000409,-0.00002340,-0.00000656,0.00000630,0.00001770,0.00001508,-
 0.00000204,0.00000912,-0.00003967,-0.00001331,0.00031389,-0.00007386,0
 .00023064,0.00004228,0.00050780,-0.00082033,0.12390619,0.13298988,0.00
 004497,-0.00017348,-0.00005042,-0.00031658,0.00009129,0.00031483,-0.00
 006947,0.00023974,-0.00077794,0.00076065,-0.00026429,-0.00087133,-0.00
 261173,0.00297809,-0.00306482,-0.01763417,-0.01756289,-0.01489433,-0.0
 9636347,-0.07703310,-0.12249458,0.01313762,0.01154719,0.00860439,0.000
 15833,0.00248892,-0.00079313,0.00046028,-0.00005492,-0.00019718,-0.000
 25584,0.00034314,-0.00015673,0.00022643,-0.00010514,0.00021751,0.00013
 325,-0.00001043,0.00005525,-0.00008042,-0.00002967,0.00006605,-0.00001
 530,-0.00000469,-0.00000842,-0.00002945,-0.00002544,0.00002879,-0.0000
 0102,0.00008903,0.00002484,0.00013523,-0.00080213,0.00061908,0.0010683
 0,0.00016447,0.00070741,0.10057863,0.07861987,0.13126540,-0.00002823,0
 .00007872,-0.00010431,0.00014057,-0.00010060,-0.00017792,-0.00073925,-
 0.00158530,-0.00172019,-0.00136720,-0.00044387,0.00001282,-0.00112964,
 0.00034093,0.00008389,0.00283072,-0.00725151,-0.00129206,0.00484299,-0
 .00556869,0.02111282,-0.04606175,0.00128567,-0.05041763,-0.00403470,0.
 00268860,-0.01667598,0.00119974,-0.00159243,-0.00128204,0.00060048,-0.
 00052979,-0.00150459,0.00004789,0.00023034,0.00043225,0.00029943,0.000
 30227,0.00127469,0.00000103,-0.00000610,0.00001875,-0.00003969,-0.0000
 1803,0.00001772,0.00001817,0.00000061,0.00003447,-0.00007634,-0.000075
 57,-0.00003510,0.00001746,0.00024306,-0.00027338,0.00031672,-0.0002364
 3,0.00177222,-0.00279820,0.00357709,0.00069227,0.04597837,0.00012367,-
 0.00010044,0.00019777,0.00017971,-0.00002527,-0.00077630,-0.00204224,0
 .00127608,0.00232388,0.00149704,0.00061246,0.00009179,0.00047697,-0.00
 141534,-0.00098908,-0.00602505,0.00424477,0.00364005,0.00235721,0.0012
 9301,0.01982531,-0.00479568,-0.05531931,0.04111787,-0.00176888,0.00975
 927,-0.01484284,-0.00256560,-0.00222742,-0.00219739,0.00137265,-0.0008
 6667,-0.00010886,-0.00070814,0.00032015,-0.00034928,-0.00021843,0.0003
 7780,0.00004242,-0.00000574,-0.00001875,-0.00006010,0.00008004,0.00002
 097,-0.00007860,0.00009500,0.00006042,-0.00006685,-0.00010226,-0.00010
 011,-0.00015833,0.00020632,-0.00030336,0.00039276,0.00009401,-0.000121
 73,-0.00041630,0.00378023,-0.00239548,-0.00091344,0.00823818,0.0467117
 4,0.00002930,-0.00000653,0.00002805,0.00027338,-0.00003069,-0.00037534
 ,-0.00095914,0.00002795,0.00041441,0.00022656,-0.00009675,-0.00030782,
 -0.00042199,-0.00041551,0.00054104,0.00022787,0.00345590,0.00216134,-0
 .00454005,0.00151201,-0.01375191,-0.04384633,0.04451961,-0.31491951,-0
 .00352604,0.00348613,-0.00778579,0.00061326,-0.00153615,-0.00072331,0.
 00078607,-0.00120692,-0.00078204,-0.00024751,0.00041294,0.00009448,-0.
 00017151,0.00069268,0.00067277,-0.00001394,-0.00002723,-0.00001942,-0.
 00000618,0.00000470,-0.00000725,0.00005752,0.00002706,-0.00001139,-0.0
 0009313,-0.00005160,-0.00009120,0.00005551,-0.00000093,0.00000733,0.00
 001365,0.00007049,-0.00090283,0.00138251,-0.00116852,0.00085789,0.0506
 9198,-0.04905549,0.33559800,0.00018942,-0.00024703,0.00018782,-0.00016
 904,-0.00061568,-0.00119584,-0.00302878,-0.00196753,0.00450757,0.00166
 410,0.00025057,0.00065961,0.00028371,-0.00047863,0.00013678,0.00090305
 ,-0.00077442,-0.00101177,-0.00036016,-0.00060948,-0.00123361,0.0048131
 8,-0.01729684,-0.00660935,-0.08637687,0.10031636,0.02170130,-0.0166433
 2,0.02766926,0.00030679,0.00723771,0.00159600,-0.00782463,-0.00353282,
 0.00004352,0.00060996,-0.00030613,0.00119058,0.00205783,-0.00006916,-0
 .00007018,-0.00013531,0.00010663,0.00003236,-0.00003771,0.00011170,0.0
 0016594,-0.00005275,-0.00030967,0.00008127,-0.00030707,-0.00020863,0.0
 0031455,-0.00029636,-0.00001355,-0.00006431,0.00022372,-0.00123434,0.0
 0113692,0.00019745,0.00022929,-0.00012656,-0.00033587,0.09788646,-0.00
 007840,0.00001567,0.00003353,0.00032207,0.00003123,-0.00000160,-0.0025
 8303,-0.00059547,0.00107361,0.00137893,0.00178533,0.00041718,-0.000198
 99,-0.00136453,-0.00143540,0.00087522,-0.00046362,0.00051181,0.0001737
 5,0.00204978,-0.00350502,0.00003752,-0.01792251,-0.00801056,0.10647630
 ,-0.25001879,-0.04967652,0.00193064,-0.00488535,-0.00557931,0.00435107
 ,0.00291761,-0.00102964,-0.00004262,-0.00102697,0.00056357,-0.00069285
 ,0.00061250,0.00067235,0.00000480,0.00000639,-0.00003228,0.00000780,-0
 .00001377,-0.00004639,0.00009032,0.00003352,-0.00002958,0.00001126,-0.
 00008724,-0.00005657,-0.00022217,0.00011680,0.00003401,0.00018032,0.00
 001678,0.00023101,-0.00092081,0.00068974,0.00032032,-0.00009037,-0.001
 48596,-0.00052205,-0.11033527,0.26975985,-0.00029452,0.00049326,-0.000
 05354,-0.00012091,0.00013206,0.00094833,0.00272742,0.00390180,-0.00385
 612,-0.00157518,0.00003839,-0.00208073,-0.00257889,-0.00001374,0.00059
 191,0.00105431,0.00064273,0.00133097,0.00017542,-0.00187109,-0.0019616
 5,0.00773086,-0.01727149,0.00117709,0.01903160,-0.06583421,-0.06260500
 ,-0.00589973,0.01384831,0.01122408,-0.00795689,-0.00418525,0.00094878,
 -0.00034146,0.00211143,-0.00057640,0.00091333,-0.00015777,-0.00062999,
 0.00014492,0.00008821,0.00001344,-0.00002679,-0.00001401,0.00003608,-0
 .00010775,-0.00005407,-0.00000981,0.00040598,-0.00039543,0.00035679,0.
 00041157,-0.00007327,0.00014146,0.00011837,-0.00002017,0.00002441,-0.0
 0141159,0.00076749,0.00051329,-0.00134495,0.00150627,-0.00021149,-0.01
 129366,0.06626835,0.05448926,-0.00011998,0.00005608,-0.00029975,-0.000
 03711,0.00001847,0.00056365,-0.00094144,0.00045352,-0.00121561,0.00004
 114,0.00048560,0.00052416,0.00167907,0.00068293,0.00004338,-0.00106356
 ,-0.00073871,-0.00018875,-0.00530303,-0.00328304,0.00427618,0.00579867
 ,0.00185031,-0.00397122,0.00263619,0.00353695,0.00230183,-0.00151508,0
 .00219253,0.00176524,-0.01363407,-0.00818945,-0.01313368,0.00649627,0.
 00176745,0.00185102,-0.39561306,0.08237221,-0.15369563,-0.00006726,0.0
 0001981,0.00008675,-0.00012006,-0.00005348,0.00000107,0.00002559,-0.00
 013581,0.00008115,0.00010458,-0.00008454,0.00014378,-0.00025429,-0.000
 14881,0.00001296,-0.00021682,0.00005085,-0.00025230,0.00040283,-0.0005
 1851,-0.00021594,-0.00024785,-0.00014245,-0.00019593,-0.00117279,-0.00
 067550,0.00023855,0.40312207,0.00004479,-0.00001185,0.00009504,-0.0002
 6084,0.00001490,0.00007566,-0.00006016,0.00042867,0.00028909,0.0003425
 5,-0.00003910,0.00003439,-0.00087711,-0.00052552,0.00008723,0.00036856
 ,0.00045364,0.00107353,0.00143688,0.00051885,-0.00274840,-0.00042796,-
 0.00038742,0.00232920,-0.00027431,-0.00455986,-0.00227575,0.00150338,-
 0.00183776,-0.00073247,-0.02997855,0.00936436,-0.00436811,-0.00193631,
 -0.00195272,-0.00951760,0.10981186,-0.05597419,0.02430655,0.00006005,0
 .00001193,-0.00004574,0.00011133,0.00004394,0.00001388,-0.00004998,0.0
 0007377,-0.00005182,0.00004911,0.00002917,0.00004771,0.00001268,0.0000
 1692,0.00007516,0.00002386,-0.00008726,0.00038229,-0.00068518,0.000346
 77,0.00009756,0.00051320,-0.00029684,-0.00009109,-0.00021141,-0.000170
 98,0.00009222,-0.07951644,0.05454057,-0.00003477,0.00004504,0.00004648
 ,-0.00019299,-0.00001176,0.00035528,-0.00014141,0.00037240,-0.00052958
 ,0.00011437,0.00015165,0.00019713,0.00036458,-0.00005503,-0.00041066,-
 0.00002788,0.00011211,-0.00122243,-0.00096742,-0.00075302,0.00082197,0
 .00206659,-0.00107153,-0.00097663,0.00136086,-0.00018101,0.00056857,-0
 .00011575,0.00058308,0.00004831,-0.03174330,0.00831311,-0.01944912,-0.
 00270339,-0.00746199,-0.00156420,-0.12772275,0.00853174,-0.07654181,0.
 00005110,0.00002851,-0.00004240,0.00003503,0.00001174,-0.00000076,-0.0
 0002425,-0.00002364,-0.00005210,0.00010641,-0.00002563,0.00008619,-0.0
 0007545,0.00003386,-0.00000393,0.00004646,0.00005987,-0.00017284,-0.00
 010448,-0.00016494,0.00003417,-0.00131571,0.00087477,-0.00048600,-0.00
 025494,-0.00020082,0.00018884,0.16127908,-0.00916850,0.09910552\\0.000
 00599,-0.00000790,0.00000599,-0.00000547,0.00000355,-0.00002040,-0.000
 00384,0.00000332,0.00001266,-0.00000196,-0.00001217,-0.00001501,0.0000
 0134,0.00000056,0.00000397,0.00000438,0.00000178,0.00002020,0.00001268
 ,0.00001596,-0.00003233,-0.00000961,-0.00001832,0.00000955,-0.00002923
 ,-0.00000339,-0.00001093,0.00003596,-0.00000186,0.00002063,0.00003662,
 0.00000669,0.00005004,-0.00000075,-0.00000115,-0.00000211,-0.00003643,
 0.00003002,-0.00001517,-0.00000301,0.00000193,-0.00000096,-0.00000427,
 0.00000021,-0.00000156,0.00000103,0.00000412,0.00000187,0.00001133,-0.
 00000604,0.00000311,-0.00000089,0.00000220,-0.00000050,-0.00000139,-0.
 00000037,-0.00000584,-0.00000491,0.00000110,0.00000602,0.00000673,0.00
 000407,-0.00000433,-0.00000296,0.00000628,-0.00000129,-0.00001134,-0.0
 0003061,-0.00002362\\\@


 HAPPINESS IS NOT HAVING WHAT YOU WANT --
 HAPPINESS IS WANTING WHAT YOU HAVE!

              -- FROM MRS. SEVERN'S DESK
 Job cpu time:       0 days  5 hours 28 minutes 10.1 seconds.
 Elapsed time:       0 days  1 hours 22 minutes  3.4 seconds.
 File lengths (MBytes):  RWF=    294 Int=      0 D2E=      0 Chk=     15 Scr=      1
 Normal termination of Gaussian 16 at Wed May 24 13:39:13 2023.
### All Done ###
