### Starting Gaussian ###
 Entering Gaussian System, Link 0=g16
 Initial command:
 /cluster/software/gaussian/gaussian-16-A.03/avx2/g16/l1.exe "/local/scratch/ks29c/Gau-22636.inp" -scrdir="/local/scratch/ks29c/"
 Entering Link 1 = /cluster/software/gaussian/gaussian-16-A.03/avx2/g16/l1.exe PID=     22638.
  
 Copyright (c) 1988,1990,1992,1993,1995,1998,2003,2009,2016,
            Gaussian, Inc.  All Rights Reserved.
  
 This is part of the Gaussian(R) 16 program.  It is based on
 the Gaussian(R) 09 system (copyright 2009, Gaussian, Inc.),
 the Gaussian(R) 03 system (copyright 2003, Gaussian, Inc.),
 the Gaussian(R) 98 system (copyright 1998, Gaussian, Inc.),
 the Gaussian(R) 94 system (copyright 1995, Gaussian, Inc.),
 the Gaussian 92(TM) system (copyright 1992, Gaussian, Inc.),
 the Gaussian 90(TM) system (copyright 1990, Gaussian, Inc.),
 the Gaussian 88(TM) system (copyright 1988, Gaussian, Inc.),
 the Gaussian 86(TM) system (copyright 1986, Carnegie Mellon
 University), and the Gaussian 82(TM) system (copyright 1983,
 Carnegie Mellon University). Gaussian is a federally registered
 trademark of Gaussian, Inc.
  
 This software contains proprietary and confidential information,
 including trade secrets, belonging to Gaussian, Inc.
  
 This software is provided under written license and may be
 used, copied, transmitted, or stored only in accord with that
 written license.
  
 The following legend is applicable only to US Government
 contracts under FAR:
  
                    RESTRICTED RIGHTS LEGEND
  
 Use, reproduction and disclosure by the US Government is
 subject to restrictions as set forth in subparagraphs (a)
 and (c) of the Commercial Computer Software - Restricted
 Rights clause in FAR 52.227-19.
  
 Gaussian, Inc.
 340 Quinnipiac St., Bldg. 40, Wallingford CT 06492
  
  
 ---------------------------------------------------------------
 Warning -- This program may not be used in any manner that
 competes with the business of Gaussian, Inc. or will provide
 assistance to any competitor of Gaussian, Inc.  The licensee
 of this program is prohibited from giving any competitor of
 Gaussian, Inc. access to this program.  By using this program,
 the user acknowledges that Gaussian, Inc. is engaged in the
 business of creating and licensing software in the field of
 computational chemistry and represents and warrants to the
 licensee that it is not a competitor of Gaussian, Inc. and that
 it will not use this program in any manner prohibited above.
 ---------------------------------------------------------------
  

 Cite this work as:
 Gaussian 16, Revision A.03,
 M. J. Frisch, G. W. Trucks, H. B. Schlegel, G. E. Scuseria, 
 M. A. Robb, J. R. Cheeseman, G. Scalmani, V. Barone, 
 G. A. Petersson, H. Nakatsuji, X. Li, M. Caricato, A. V. Marenich, 
 J. Bloino, B. G. Janesko, R. Gomperts, B. Mennucci, H. P. Hratchian, 
 J. V. Ortiz, A. F. Izmaylov, J. L. Sonnenberg, D. Williams-Young, 
 F. Ding, F. Lipparini, F. Egidi, J. Goings, B. Peng, A. Petrone, 
 T. Henderson, D. Ranasinghe, V. G. Zakrzewski, J. Gao, N. Rega, 
 G. Zheng, W. Liang, M. Hada, M. Ehara, K. Toyota, R. Fukuda, 
 J. Hasegawa, M. Ishida, T. Nakajima, Y. Honda, O. Kitao, H. Nakai, 
 T. Vreven, K. Throssell, J. A. Montgomery, Jr., J. E. Peralta, 
 F. Ogliaro, M. J. Bearpark, J. J. Heyd, E. N. Brothers, K. N. Kudin, 
 V. N. Staroverov, T. A. Keith, R. Kobayashi, J. Normand, 
 K. Raghavachari, A. P. Rendell, J. C. Burant, S. S. Iyengar, 
 J. Tomasi, M. Cossi, J. M. Millam, M. Klene, C. Adamo, R. Cammi, 
 J. W. Ochterski, R. L. Martin, K. Morokuma, O. Farkas, 
 J. B. Foresman, and D. J. Fox, Gaussian, Inc., Wallingford CT, 2016.
 
 ******************************************
 Gaussian 16:  ES64L-G16RevA.03 25-Dec-2016
                27-May-2023 
 ******************************************
 %chk=CCdC1CCqCdOrCC1OO.chk
 %NProcShared=20
 Will use up to   20 processors via shared memory.
 -----------------------------
 # opt freq b3lyp/6-31g(2df,p)
 -----------------------------
 1/18=20,19=15,26=3,38=1/1,3;
 2/9=110,12=2,17=6,18=5,40=1/2;
 3/5=1,6=6,7=104,11=2,25=1,30=1,71=1,74=-5/1,2,3;
 4//1;
 5/5=2,38=5/2;
 6/7=2,8=2,9=2,10=2,28=1/1;
 7//1,2,3,16;
 1/18=20,19=15,26=3/3(2);
 2/9=110/2;
 99//99;
 2/9=110/2;
 3/5=1,6=6,7=104,11=2,25=1,30=1,71=1,74=-5/1,2,3;
 4/5=5,16=3,69=1/1;
 5/5=2,38=5/2;
 7//1,2,3,16;
 1/18=20,19=15,26=3/3(-5);
 2/9=110/2;
 6/7=2,8=2,9=2,10=2,19=2,28=1/1;
 99/9=1/99;
 -------------------
 Title Card Required
 -------------------
 Symbolic Z-matrix:
 Charge =  0 Multiplicity = 1
 C                    -2.77442  -0.42858   0.00852 
 C                    -1.646     0.53989  -0.07663 
 C                    -0.33896   0.24143   0.02174 
 C                     0.22535  -1.14365   0.16957 
 C                     1.6895   -0.98732  -0.22911 
 C                     2.57017  -1.99977   0.46173 
 O                     3.78597  -2.06039   0.28247 
 C                     2.04293   0.43451   0.19168 
 C                     0.77826   1.26087  -0.05763 
 O                     0.67701   2.24887   0.9716 
 O                    -0.34075   3.20686   0.54856 
 H                    -3.72311   0.1154   -0.05268 
 H                    -2.76028  -0.9636    0.96231 
 H                    -2.74208  -1.13921  -0.82117 
 H                    -1.94147   1.57792  -0.21448 
 H                    -0.27369  -1.86554  -0.48593 
 H                     0.11626  -1.48053   1.20644 
 H                     1.80174  -1.11944  -1.31238 
 H                     2.07866  -2.69473   1.1628 
 H                     2.88635   0.81862  -0.3949 
 H                     2.35434   0.48098   1.24362 
 H                     0.82316   1.72976  -1.04839 
 H                    -0.46506   3.6202    1.42201 
 

 GradGradGradGradGradGradGradGradGradGradGradGradGradGradGradGradGradGrad
 Berny optimization.
 Initialization pass.
                           ----------------------------
                           !    Initial Parameters    !
                           ! (Angstroms and Degrees)  !
 --------------------------                            --------------------------
 ! Name  Definition              Value          Derivative Info.                !
 --------------------------------------------------------------------------------
 ! R1    R(1,2)                  1.4895         estimate D2E/DX2                !
 ! R2    R(1,12)                 1.0953         estimate D2E/DX2                !
 ! R3    R(1,13)                 1.0937         estimate D2E/DX2                !
 ! R4    R(1,14)                 1.0929         estimate D2E/DX2                !
 ! R5    R(2,3)                  1.3443         estimate D2E/DX2                !
 ! R6    R(2,15)                 1.088          estimate D2E/DX2                !
 ! R7    R(3,4)                  1.5029         estimate D2E/DX2                !
 ! R8    R(3,9)                  1.5145         estimate D2E/DX2                !
 ! R9    R(4,5)                  1.5255         estimate D2E/DX2                !
 ! R10   R(4,16)                 1.0954         estimate D2E/DX2                !
 ! R11   R(4,17)                 1.0957         estimate D2E/DX2                !
 ! R12   R(5,6)                  1.5093         estimate D2E/DX2                !
 ! R13   R(5,8)                  1.5243         estimate D2E/DX2                !
 ! R14   R(5,18)                 1.0971         estimate D2E/DX2                !
 ! R15   R(6,7)                  1.2304         estimate D2E/DX2                !
 ! R16   R(6,19)                 1.1027         estimate D2E/DX2                !
 ! R17   R(8,9)                  1.5311         estimate D2E/DX2                !
 ! R18   R(8,20)                 1.0968         estimate D2E/DX2                !
 ! R19   R(8,21)                 1.098          estimate D2E/DX2                !
 ! R20   R(9,10)                 1.4303         estimate D2E/DX2                !
 ! R21   R(9,22)                 1.097          estimate D2E/DX2                !
 ! R22   R(10,11)                1.4603         estimate D2E/DX2                !
 ! R23   R(11,23)                0.9743         estimate D2E/DX2                !
 ! A1    A(2,1,12)             109.2731         estimate D2E/DX2                !
 ! A2    A(2,1,13)             110.9858         estimate D2E/DX2                !
 ! A3    A(2,1,14)             110.914          estimate D2E/DX2                !
 ! A4    A(12,1,13)            107.6308         estimate D2E/DX2                !
 ! A5    A(12,1,14)            107.8272         estimate D2E/DX2                !
 ! A6    A(13,1,14)            110.0958         estimate D2E/DX2                !
 ! A7    A(1,2,3)              126.0197         estimate D2E/DX2                !
 ! A8    A(1,2,15)             114.9506         estimate D2E/DX2                !
 ! A9    A(3,2,15)             119.0209         estimate D2E/DX2                !
 ! A10   A(2,3,4)              125.2318         estimate D2E/DX2                !
 ! A11   A(2,3,9)              124.3299         estimate D2E/DX2                !
 ! A12   A(4,3,9)              110.3965         estimate D2E/DX2                !
 ! A13   A(3,4,5)              103.9001         estimate D2E/DX2                !
 ! A14   A(3,4,16)             112.1751         estimate D2E/DX2                !
 ! A15   A(3,4,17)             109.8195         estimate D2E/DX2                !
 ! A16   A(5,4,16)             110.3901         estimate D2E/DX2                !
 ! A17   A(5,4,17)             111.9867         estimate D2E/DX2                !
 ! A18   A(16,4,17)            108.5614         estimate D2E/DX2                !
 ! A19   A(4,5,6)              111.8189         estimate D2E/DX2                !
 ! A20   A(4,5,8)              104.2397         estimate D2E/DX2                !
 ! A21   A(4,5,18)             110.1157         estimate D2E/DX2                !
 ! A22   A(6,5,8)              111.3501         estimate D2E/DX2                !
 ! A23   A(6,5,18)             108.1492         estimate D2E/DX2                !
 ! A24   A(8,5,18)             111.1735         estimate D2E/DX2                !
 ! A25   A(5,6,7)              122.8832         estimate D2E/DX2                !
 ! A26   A(5,6,19)             116.9801         estimate D2E/DX2                !
 ! A27   A(7,6,19)             120.1314         estimate D2E/DX2                !
 ! A28   A(5,8,9)              105.4831         estimate D2E/DX2                !
 ! A29   A(5,8,20)             110.9358         estimate D2E/DX2                !
 ! A30   A(5,8,21)             111.6964         estimate D2E/DX2                !
 ! A31   A(9,8,20)             111.0425         estimate D2E/DX2                !
 ! A32   A(9,8,21)             111.5549         estimate D2E/DX2                !
 ! A33   A(20,8,21)            106.2271         estimate D2E/DX2                !
 ! A34   A(3,9,8)              103.7379         estimate D2E/DX2                !
 ! A35   A(3,9,10)             112.0266         estimate D2E/DX2                !
 ! A36   A(3,9,22)             111.4213         estimate D2E/DX2                !
 ! A37   A(8,9,10)             108.3071         estimate D2E/DX2                !
 ! A38   A(8,9,22)             110.1161         estimate D2E/DX2                !
 ! A39   A(10,9,22)            110.9491         estimate D2E/DX2                !
 ! A40   A(9,10,11)            107.0995         estimate D2E/DX2                !
 ! A41   A(10,11,23)            96.1729         estimate D2E/DX2                !
 ! D1    D(12,1,2,3)           176.9491         estimate D2E/DX2                !
 ! D2    D(12,1,2,15)           -1.958          estimate D2E/DX2                !
 ! D3    D(13,1,2,3)            58.4083         estimate D2E/DX2                !
 ! D4    D(13,1,2,15)         -120.4988         estimate D2E/DX2                !
 ! D5    D(14,1,2,3)           -64.3119         estimate D2E/DX2                !
 ! D6    D(14,1,2,15)          116.781          estimate D2E/DX2                !
 ! D7    D(1,2,3,4)              3.1834         estimate D2E/DX2                !
 ! D8    D(1,2,3,9)           -179.3953         estimate D2E/DX2                !
 ! D9    D(15,2,3,4)          -177.9497         estimate D2E/DX2                !
 ! D10   D(15,2,3,9)            -0.5284         estimate D2E/DX2                !
 ! D11   D(2,3,4,5)            161.684          estimate D2E/DX2                !
 ! D12   D(2,3,4,16)            42.4448         estimate D2E/DX2                !
 ! D13   D(2,3,4,17)           -78.3715         estimate D2E/DX2                !
 ! D14   D(9,3,4,5)            -16.0442         estimate D2E/DX2                !
 ! D15   D(9,3,4,16)          -135.2834         estimate D2E/DX2                !
 ! D16   D(9,3,4,17)           103.9003         estimate D2E/DX2                !
 ! D17   D(2,3,9,8)            176.7467         estimate D2E/DX2                !
 ! D18   D(2,3,9,10)            60.1487         estimate D2E/DX2                !
 ! D19   D(2,3,9,22)           -64.8134         estimate D2E/DX2                !
 ! D20   D(4,3,9,8)             -5.5004         estimate D2E/DX2                !
 ! D21   D(4,3,9,10)          -122.0984         estimate D2E/DX2                !
 ! D22   D(4,3,9,22)           112.9395         estimate D2E/DX2                !
 ! D23   D(3,4,5,6)            151.6452         estimate D2E/DX2                !
 ! D24   D(3,4,5,8)             31.2348         estimate D2E/DX2                !
 ! D25   D(3,4,5,18)           -88.0925         estimate D2E/DX2                !
 ! D26   D(16,4,5,6)           -87.9036         estimate D2E/DX2                !
 ! D27   D(16,4,5,8)           151.686          estimate D2E/DX2                !
 ! D28   D(16,4,5,18)           32.3587         estimate D2E/DX2                !
 ! D29   D(17,4,5,6)            33.1815         estimate D2E/DX2                !
 ! D30   D(17,4,5,8)           -87.2289         estimate D2E/DX2                !
 ! D31   D(17,4,5,18)          153.4438         estimate D2E/DX2                !
 ! D32   D(4,5,6,7)            179.648          estimate D2E/DX2                !
 ! D33   D(4,5,6,19)            -1.1868         estimate D2E/DX2                !
 ! D34   D(8,5,6,7)            -64.1856         estimate D2E/DX2                !
 ! D35   D(8,5,6,19)           114.9795         estimate D2E/DX2                !
 ! D36   D(18,5,6,7)            58.2428         estimate D2E/DX2                !
 ! D37   D(18,5,6,19)         -122.592          estimate D2E/DX2                !
 ! D38   D(4,5,8,9)            -35.4906         estimate D2E/DX2                !
 ! D39   D(4,5,8,20)          -155.815          estimate D2E/DX2                !
 ! D40   D(4,5,8,21)            85.8758         estimate D2E/DX2                !
 ! D41   D(6,5,8,9)           -156.215          estimate D2E/DX2                !
 ! D42   D(6,5,8,20)            83.4606         estimate D2E/DX2                !
 ! D43   D(6,5,8,21)           -34.8486         estimate D2E/DX2                !
 ! D44   D(18,5,8,9)            83.1167         estimate D2E/DX2                !
 ! D45   D(18,5,8,20)          -37.2077         estimate D2E/DX2                !
 ! D46   D(18,5,8,21)         -155.5169         estimate D2E/DX2                !
 ! D47   D(5,8,9,3)             25.0881         estimate D2E/DX2                !
 ! D48   D(5,8,9,10)           144.2679         estimate D2E/DX2                !
 ! D49   D(5,8,9,22)           -94.249          estimate D2E/DX2                !
 ! D50   D(20,8,9,3)           145.3424         estimate D2E/DX2                !
 ! D51   D(20,8,9,10)          -95.4778         estimate D2E/DX2                !
 ! D52   D(20,8,9,22)           26.0053         estimate D2E/DX2                !
 ! D53   D(21,8,9,3)           -96.3701         estimate D2E/DX2                !
 ! D54   D(21,8,9,10)           22.8096         estimate D2E/DX2                !
 ! D55   D(21,8,9,22)          144.2928         estimate D2E/DX2                !
 ! D56   D(3,9,10,11)          -79.0939         estimate D2E/DX2                !
 ! D57   D(8,9,10,11)          167.0971         estimate D2E/DX2                !
 ! D58   D(22,9,10,11)          46.1286         estimate D2E/DX2                !
 ! D59   D(9,10,11,23)         164.4799         estimate D2E/DX2                !
 --------------------------------------------------------------------------------
 Trust Radius=3.00D-01 FncErr=1.00D-07 GrdErr=1.00D-06 EigMax=2.50D+02 EigMin=1.00D-04
 Number of steps in this run=    133 maximum allowed number of steps=    138.
 GradGradGradGradGradGradGradGradGradGradGradGradGradGradGradGradGradGrad

                          Input orientation:                          
 ---------------------------------------------------------------------
 Center     Atomic      Atomic             Coordinates (Angstroms)
 Number     Number       Type             X           Y           Z
 ---------------------------------------------------------------------
      1          6           0       -2.774420   -0.428580    0.008520
      2          6           0       -1.646000    0.539890   -0.076630
      3          6           0       -0.338960    0.241430    0.021740
      4          6           0        0.225350   -1.143650    0.169570
      5          6           0        1.689500   -0.987320   -0.229110
      6          6           0        2.570170   -1.999770    0.461730
      7          8           0        3.785970   -2.060390    0.282470
      8          6           0        2.042930    0.434510    0.191680
      9          6           0        0.778260    1.260870   -0.057630
     10          8           0        0.677010    2.248870    0.971600
     11          8           0       -0.340750    3.206860    0.548560
     12          1           0       -3.723110    0.115400   -0.052680
     13          1           0       -2.760280   -0.963600    0.962310
     14          1           0       -2.742080   -1.139210   -0.821170
     15          1           0       -1.941470    1.577920   -0.214480
     16          1           0       -0.273690   -1.865540   -0.485930
     17          1           0        0.116260   -1.480530    1.206440
     18          1           0        1.801740   -1.119440   -1.312380
     19          1           0        2.078660   -2.694730    1.162800
     20          1           0        2.886350    0.818620   -0.394900
     21          1           0        2.354340    0.480980    1.243620
     22          1           0        0.823160    1.729760   -1.048390
     23          1           0       -0.465060    3.620200    1.422010
 ---------------------------------------------------------------------
                    Distance matrix (angstroms):
                    1          2          3          4          5
     1  C    0.000000
     2  C    1.489468   0.000000
     3  C    2.525976   1.344287   0.000000
     4  C    3.088022   2.529204   1.502913   0.000000
     5  C    4.505024   3.671673   2.384828   1.525490   0.000000
     6  C    5.589157   4.951343   3.698595   2.513261   1.509270
     7  O    6.765838   6.032968   4.730899   3.678474   2.410058
     8  C    4.897482   3.700176   2.395738   2.407213   1.524329
     9  C    3.934482   2.529271   1.514509   2.477710   2.431897
    10  O    4.473101   3.068513   2.442180   3.515173   3.597189
    11  O    4.408040   3.034348   3.011863   4.403526   4.724175
    12  H    1.095296   2.120177   3.387314   4.150294   5.526614
    13  H    1.093692   2.140444   2.863487   3.094324   4.606581
    14  H    1.092898   2.138950   2.896834   3.128454   4.473534
    15  H    2.183936   1.088031   2.100010   3.499935   4.445741
    16  H    2.926258   2.799438   2.168251   1.095375   2.165951
    17  H    3.301158   2.972192   2.139132   1.095668   2.186125
    18  H    4.812827   4.020866   2.866084   2.163739   1.097054
    19  H    5.479068   5.086457   3.970887   2.612874   2.236986
    20  H    5.810557   4.552053   3.302932   3.354110   2.172868
    21  H    5.353219   4.212986   2.967194   2.885412   2.183312
    22  H    4.326439   2.908068   2.170444   3.177623   2.967202
    23  H    4.870700   3.623376   3.659610   4.973886   5.347669
                    6          7          8          9         10
     6  C    0.000000
     7  O    1.230438   0.000000
     8  C    2.505320   3.044825   0.000000
     9  C    3.756654   4.493635   1.531149   0.000000
    10  O    4.679205   5.358195   2.401232   1.430283   0.000000
    11  O    5.965735   6.696607   3.673584   2.325194   1.460323
    12  H    6.659124   7.825131   5.780031   4.644831   4.996189
    13  H    5.453249   6.672220   5.061562   4.302303   4.704786
    14  H    5.532305   6.684462   5.137974   4.328530   5.136466
    15  H    5.797588   6.803516   4.165069   2.742636   2.951846
    16  H    3.000603   4.136332   3.334084   3.326331   4.467280
    17  H    2.616463   3.828411   2.899857   3.090532   3.778626
    18  H    2.124366   2.714056   2.176035   2.878851   4.222214
    19  H    1.102747   2.022937   3.276659   4.339039   5.142019
    20  H    2.962618   3.091415   1.096802   2.180225   2.965488
    21  H    2.609991   3.071146   1.098050   2.187580   2.452115
    22  H    4.386559   4.991460   2.168706   1.097032   2.090740
    23  H    6.459011   7.186022   4.237021   3.049855   1.840581
                   11         12         13         14         15
    11  O    0.000000
    12  H    4.621577   0.000000
    13  H    4.839220   1.766773   0.000000
    14  H    5.150813   1.768345   1.792197   0.000000
    15  H    2.407900   2.310711   2.917980   2.896868   0.000000
    16  H    5.177249   4.001291   3.015630   2.594781   3.835700
    17  H    4.755343   4.344322   2.932797   3.521052   3.950618
    18  H    5.173996   5.799624   5.100052   4.570337   4.742653
    19  H    6.407777   6.560088   5.143185   5.440157   6.026100
    20  H    4.124073   6.655569   6.074764   5.974448   4.890494
    21  H    3.895772   6.224905   5.322150   5.732527   4.667260
    22  H    2.467136   4.926070   4.913059   4.581872   2.891650
    23  H    0.974278   5.007317   5.146900   5.733120   3.004795
                   16         17         18         19         20
    16  H    0.000000
    17  H    1.778879   0.000000
    18  H    2.355227   3.052160   0.000000
    19  H    2.989886   2.308073   2.946988   0.000000
    20  H    4.147150   3.940023   2.402962   3.927139   0.000000
    21  H    3.924798   2.976223   3.065917   3.188678   1.755501
    22  H    3.800740   3.986217   3.024111   5.103112   2.348186
    23  H    5.811213   5.138273   5.922791   6.812932   4.730958
                   21         22         23
    21  H    0.000000
    22  H    3.026099   0.000000
    23  H    4.223215   3.366920   0.000000
 Stoichiometry    C8H12O3
 Framework group  C1[X(C8H12O3)]
 Deg. of freedom    63
 Full point group                 C1      NOp   1
 Largest Abelian subgroup         C1      NOp   1
 Largest concise Abelian subgroup C1      NOp   1
                         Standard orientation:                         
 ---------------------------------------------------------------------
 Center     Atomic      Atomic             Coordinates (Angstroms)
 Number     Number       Type             X           Y           Z
 ---------------------------------------------------------------------
      1          6           0       -2.292903    2.489471   -0.109882
      2          6           0       -1.977053    1.061971    0.174718
      3          6           0       -0.755791    0.501050    0.143143
      4          6           0        0.528752    1.234879   -0.121791
      5          6           0        1.605365    0.290707    0.404102
      6          6           0        2.912177    0.465331   -0.330502
      7          8           0        3.919712   -0.189724   -0.066391
      8          6           0        1.025032   -1.101070    0.181062
      9          6           0       -0.479688   -0.960751    0.427120
     10          8           0       -1.166290   -1.823218   -0.484164
     11          8           0       -2.552005   -1.910252   -0.031657
     12          1           0       -3.377012    2.637012   -0.058762
     13          1           0       -1.967532    2.769613   -1.115772
     14          1           0       -1.830505    3.146549    0.630972
     15          1           0       -2.837882    0.439492    0.409886
     16          1           0        0.572696    2.194633    0.404316
     17          1           0        0.635514    1.420921   -1.196257
     18          1           0        1.784628    0.479149    1.469880
     19          1           0        2.933303    1.209686   -1.143853
     20          1           0        1.471028   -1.826971    0.871807
     21          1           0        1.235508   -1.471231   -0.831062
     22          1           0       -0.717733   -1.218918    1.466429
     23          1           0       -2.908689   -2.283921   -0.857711
 ---------------------------------------------------------------------
 Rotational constants (GHZ):           1.5913096           0.7075022           0.5114632
 Standard basis: 6-31G(2df,p) (6D, 7F)
 There are   401 symmetry adapted cartesian basis functions of A   symmetry.
 There are   368 symmetry adapted basis functions of A   symmetry.
   368 basis functions,   568 primitive gaussians,   401 cartesian basis functions
    42 alpha electrons       42 beta electrons
       nuclear repulsion energy       623.8753973060 Hartrees.
 NAtoms=   23 NActive=   23 NUniq=   23 SFac= 1.00D+00 NAtFMM=   60 NAOKFM=F Big=F
 Integral buffers will be    131072 words long.
 Raffenetti 2 integral format.
 Two-electron integral symmetry is turned on.
 One-electron integrals computed using PRISM.
 PrsmSu:  requested number of processors reduced to:  13 ShMem   1 Linda.
 NBasis=   368 RedAO= T EigKep=  3.86D-04  NBF=   368
 NBsUse=   368 1.00D-06 EigRej= -1.00D+00 NBFU=   368
 ExpMin= 1.61D-01 ExpMax= 5.48D+03 ExpMxC= 8.25D+02 IAcc=3 IRadAn=         5 AccDes= 0.00D+00
 Harris functional with IExCor=  402 and IRadAn=       5 diagonalized for initial guess.
 HarFok:  IExCor=  402 AccDes= 0.00D+00 IRadAn=         5 IDoV= 1 UseB2=F ITyADJ=14
 ICtDFT=  3500011 ScaDFX=  1.000000  1.000000  1.000000  1.000000
 FoFCou: FMM=F IPFlag=           0 FMFlag=      100000 FMFlg1=           0
         NFxFlg=           0 DoJE=T BraDBF=F KetDBF=T FulRan=T
         wScrn=  0.000000 ICntrl=       500 IOpCl=  0 I1Cent=   200000004 NGrid=           0
         NMat0=    1 NMatS0=      1 NMatT0=    0 NMatD0=    1 NMtDS0=    0 NMtDT0=    0
 Petite list used in FoFCou.
 Requested convergence on RMS density matrix=1.00D-08 within 128 cycles.
 Requested convergence on MAX density matrix=1.00D-06.
 Requested convergence on             energy=1.00D-06.
 No special actions if energy rises.
 Integral accuracy reduced to 1.0D-05 until final iterations.
 Initial convergence to 1.0D-05 achieved.  Increase integral accuracy.
 SCF Done:  E(RB3LYP) =  -537.645008894     A.U. after   14 cycles
            NFock= 14  Conv=0.55D-08     -V/T= 2.0071

 **********************************************************************

            Population analysis using the SCF density.

 **********************************************************************

 Orbital symmetries:
       Occupied  (A) (A) (A) (A) (A) (A) (A) (A) (A) (A) (A) (A)
                 (A) (A) (A) (A) (A) (A) (A) (A) (A) (A) (A) (A)
                 (A) (A) (A) (A) (A) (A) (A) (A) (A) (A) (A) (A)
                 (A) (A) (A) (A) (A) (A)
       Virtual   (A) (A) (A) (A) (A) (A) (A) (A) (A) (A) (A) (A)
                 (A) (A) (A) (A) (A) (A) (A) (A) (A) (A) (A) (A)
                 (A) (A) (A) (A) (A) (A) (A) (A) (A) (A) (A) (A)
                 (A) (A) (A) (A) (A) (A) (A) (A) (A) (A) (A) (A)
                 (A) (A) (A) (A) (A) (A) (A) (A) (A) (A) (A) (A)
                 (A) (A) (A) (A) (A) (A) (A) (A) (A) (A) (A) (A)
                 (A) (A) (A) (A) (A) (A) (A) (A) (A) (A) (A) (A)
                 (A) (A) (A) (A) (A) (A) (A) (A) (A) (A) (A) (A)
                 (A) (A) (A) (A) (A) (A) (A) (A) (A) (A) (A) (A)
                 (A) (A) (A) (A) (A) (A) (A) (A) (A) (A) (A) (A)
                 (A) (A) (A) (A) (A) (A) (A) (A) (A) (A) (A) (A)
                 (A) (A) (A) (A) (A) (A) (A) (A) (A) (A) (A) (A)
                 (A) (A) (A) (A) (A) (A) (A) (A) (A) (A) (A) (A)
                 (A) (A) (A) (A) (A) (A) (A) (A) (A) (A) (A) (A)
                 (A) (A) (A) (A) (A) (A) (A) (A) (A) (A) (A) (A)
                 (A) (A) (A) (A) (A) (A) (A) (A) (A) (A) (A) (A)
                 (A) (A) (A) (A) (A) (A) (A) (A) (A) (A) (A) (A)
                 (A) (A) (A) (A) (A) (A) (A) (A) (A) (A) (A) (A)
                 (A) (A) (A) (A) (A) (A) (A) (A) (A) (A) (A) (A)
                 (A) (A) (A) (A) (A) (A) (A) (A) (A) (A) (A) (A)
                 (A) (A) (A) (A) (A) (A) (A) (A) (A) (A) (A) (A)
                 (A) (A) (A) (A) (A) (A) (A) (A) (A) (A) (A) (A)
                 (A) (A) (A) (A) (A) (A) (A) (A) (A) (A) (A) (A)
                 (A) (A) (A) (A) (A) (A) (A) (A) (A) (A) (A) (A)
                 (A) (A) (A) (A) (A) (A) (A) (A) (A) (A) (A) (A)
                 (A) (A) (A) (A) (A) (A) (A) (A) (A) (A) (A) (A)
                 (A) (A) (A) (A) (A) (A) (A) (A) (A) (A) (A) (A)
                 (A) (A)
 The electronic state is 1-A.
 Alpha  occ. eigenvalues --  -19.19230 -19.19207 -19.14043 -10.27364 -10.23918
 Alpha  occ. eigenvalues --  -10.20279 -10.19591 -10.19113 -10.17927 -10.17902
 Alpha  occ. eigenvalues --  -10.17521  -1.11036  -1.03372  -0.91874  -0.84949
 Alpha  occ. eigenvalues --   -0.78141  -0.72182  -0.70971  -0.63807  -0.60153
 Alpha  occ. eigenvalues --   -0.57430  -0.53128  -0.51780  -0.49751  -0.49029
 Alpha  occ. eigenvalues --   -0.45742  -0.44142  -0.43818  -0.42474  -0.40666
 Alpha  occ. eigenvalues --   -0.40188  -0.39699  -0.38643  -0.36827  -0.35387
 Alpha  occ. eigenvalues --   -0.34598  -0.34263  -0.33812  -0.32784  -0.25382
 Alpha  occ. eigenvalues --   -0.24095  -0.23079
 Alpha virt. eigenvalues --   -0.03518   0.00431   0.02753   0.08286   0.08556
 Alpha virt. eigenvalues --    0.10400   0.11529   0.12324   0.13239   0.14960
 Alpha virt. eigenvalues --    0.15775   0.16082   0.16891   0.19825   0.20765
 Alpha virt. eigenvalues --    0.21350   0.22569   0.23170   0.25534   0.26316
 Alpha virt. eigenvalues --    0.28096   0.30629   0.31583   0.35197   0.37557
 Alpha virt. eigenvalues --    0.43199   0.45107   0.46204   0.47214   0.48907
 Alpha virt. eigenvalues --    0.50306   0.50980   0.52027   0.52388   0.53217
 Alpha virt. eigenvalues --    0.56416   0.57504   0.57807   0.59415   0.60077
 Alpha virt. eigenvalues --    0.60747   0.62416   0.64798   0.66602   0.67216
 Alpha virt. eigenvalues --    0.67633   0.68737   0.70297   0.70919   0.72641
 Alpha virt. eigenvalues --    0.72952   0.73166   0.74470   0.75552   0.75672
 Alpha virt. eigenvalues --    0.76837   0.77277   0.79590   0.79937   0.80603
 Alpha virt. eigenvalues --    0.81791   0.82860   0.83609   0.84103   0.87075
 Alpha virt. eigenvalues --    0.87921   0.88439   0.90952   0.93437   0.93964
 Alpha virt. eigenvalues --    0.94350   0.96311   0.97475   0.97952   0.99180
 Alpha virt. eigenvalues --    1.00153   1.01708   1.02075   1.04062   1.07337
 Alpha virt. eigenvalues --    1.10646   1.13183   1.13934   1.17371   1.17942
 Alpha virt. eigenvalues --    1.19379   1.21906   1.22522   1.25002   1.26697
 Alpha virt. eigenvalues --    1.28471   1.30670   1.31156   1.32480   1.34729
 Alpha virt. eigenvalues --    1.37175   1.38680   1.39525   1.41029   1.45335
 Alpha virt. eigenvalues --    1.46839   1.49926   1.51726   1.52026   1.53909
 Alpha virt. eigenvalues --    1.54957   1.55794   1.58709   1.59548   1.60742
 Alpha virt. eigenvalues --    1.62071   1.64092   1.64869   1.66044   1.66411
 Alpha virt. eigenvalues --    1.69226   1.72785   1.75357   1.77126   1.79465
 Alpha virt. eigenvalues --    1.82581   1.84658   1.86775   1.87184   1.90052
 Alpha virt. eigenvalues --    1.93935   1.95193   1.95607   1.97712   1.99820
 Alpha virt. eigenvalues --    2.02103   2.04216   2.09331   2.10635   2.14001
 Alpha virt. eigenvalues --    2.14400   2.16721   2.19675   2.21487   2.24090
 Alpha virt. eigenvalues --    2.28454   2.29639   2.35359   2.35596   2.38510
 Alpha virt. eigenvalues --    2.40165   2.44742   2.47629   2.51168   2.51478
 Alpha virt. eigenvalues --    2.53180   2.57468   2.61301   2.62653   2.63984
 Alpha virt. eigenvalues --    2.68731   2.70391   2.71477   2.72623   2.74475
 Alpha virt. eigenvalues --    2.79145   2.79347   2.83837   2.84403   2.87255
 Alpha virt. eigenvalues --    2.88860   2.89288   2.90714   2.93032   2.94319
 Alpha virt. eigenvalues --    2.94493   2.95752   2.96400   3.00924   3.02672
 Alpha virt. eigenvalues --    3.03449   3.04737   3.05740   3.09857   3.11777
 Alpha virt. eigenvalues --    3.14095   3.16901   3.18977   3.20543   3.21635
 Alpha virt. eigenvalues --    3.23803   3.24519   3.29696   3.31915   3.33574
 Alpha virt. eigenvalues --    3.34679   3.36507   3.37252   3.40042   3.42881
 Alpha virt. eigenvalues --    3.44473   3.45548   3.47462   3.50244   3.52676
 Alpha virt. eigenvalues --    3.54577   3.57056   3.58438   3.62680   3.65576
 Alpha virt. eigenvalues --    3.66016   3.69907   3.71526   3.72140   3.76305
 Alpha virt. eigenvalues --    3.76970   3.81706   3.86957   3.90927   3.91316
 Alpha virt. eigenvalues --    3.95898   3.96210   3.99491   4.01567   4.06357
 Alpha virt. eigenvalues --    4.09581   4.11366   4.12894   4.13253   4.15201
 Alpha virt. eigenvalues --    4.16988   4.18202   4.20166   4.23622   4.24354
 Alpha virt. eigenvalues --    4.27513   4.29321   4.30725   4.33019   4.36368
 Alpha virt. eigenvalues --    4.39338   4.40251   4.41296   4.43352   4.46698
 Alpha virt. eigenvalues --    4.47718   4.49089   4.52744   4.53900   4.54450
 Alpha virt. eigenvalues --    4.56340   4.56716   4.59815   4.61150   4.62428
 Alpha virt. eigenvalues --    4.62816   4.65118   4.65888   4.68435   4.70034
 Alpha virt. eigenvalues --    4.71591   4.72243   4.72750   4.73494   4.75550
 Alpha virt. eigenvalues --    4.77617   4.78130   4.78350   4.80081   4.82637
 Alpha virt. eigenvalues --    4.84430   4.85251   4.88221   4.89427   4.90897
 Alpha virt. eigenvalues --    4.92688   4.94165   4.95121   4.96334   4.98609
 Alpha virt. eigenvalues --    5.01363   5.03763   5.08068   5.08760   5.08852
 Alpha virt. eigenvalues --    5.12950   5.14977   5.21680   5.23208   5.27637
 Alpha virt. eigenvalues --    5.32001   5.39077   5.40580   5.41587   5.45150
 Alpha virt. eigenvalues --    5.46791   5.47909   5.50386   5.52630   5.53295
 Alpha virt. eigenvalues --    5.57427   5.62181   5.65957   5.68185   5.75315
 Alpha virt. eigenvalues --    5.76515   5.83504   5.88537   5.97341   6.01177
 Alpha virt. eigenvalues --    6.12038   6.17579   6.23410   6.31668   6.36104
 Alpha virt. eigenvalues --    6.66657   6.67728   6.87555   7.07655   7.33294
 Alpha virt. eigenvalues --   10.30150  10.79717  11.31687  11.67817  11.97341
 Alpha virt. eigenvalues --   12.11184  12.72737  12.75795  12.98981  13.11432
 Alpha virt. eigenvalues --   13.58016
          Condensed to atoms (all electrons):
               1          2          3          4          5          6
     1  C    5.073681   0.328398   0.009509  -0.027914   0.000366  -0.000001
     2  C    0.328398   5.041450   0.633837  -0.055342   0.002340  -0.000084
     3  C    0.009509   0.633837   4.499742   0.367136  -0.023593  -0.000715
     4  C   -0.027914  -0.055342   0.367136   5.195727   0.315627  -0.003009
     5  C    0.000366   0.002340  -0.023593   0.315627   5.120166   0.281423
     6  C   -0.000001  -0.000084  -0.000715  -0.003009   0.281423   4.515562
     7  O   -0.000000   0.000001  -0.000088   0.002100  -0.060216   0.731835
     8  C   -0.000261   0.007064  -0.041320  -0.061707   0.375606  -0.016074
     9  C    0.007182  -0.047299   0.397415  -0.078890  -0.049894   0.004272
    10  O   -0.000104  -0.004892  -0.050133   0.002681   0.000572  -0.000010
    11  O    0.000287   0.000253  -0.008100  -0.000082  -0.000057   0.000000
    12  H    0.375474  -0.017029   0.000524   0.000160  -0.000010   0.000000
    13  H    0.369442  -0.020031  -0.010931   0.002937   0.000008   0.000002
    14  H    0.365108  -0.018474  -0.010154   0.002332   0.000072  -0.000001
    15  H   -0.069925   0.347604  -0.003740   0.008174  -0.000063   0.000002
    16  H    0.003455  -0.012141  -0.006845   0.341454  -0.016555  -0.000018
    17  H    0.001248  -0.001022  -0.022464   0.350475  -0.038998  -0.007230
    18  H    0.000001   0.000299   0.001428  -0.042254   0.350363  -0.019243
    19  H    0.000005  -0.000010  -0.000231   0.006943  -0.126427   0.361321
    20  H    0.000003  -0.000158   0.003213   0.005460  -0.023286   0.001459
    21  H   -0.000000   0.000075  -0.002758   0.000202  -0.033597  -0.002033
    22  H   -0.000249  -0.006857  -0.050729   0.008877   0.000508  -0.000038
    23  H   -0.000033  -0.000010   0.001534   0.000026   0.000003  -0.000000
               7          8          9         10         11         12
     1  C   -0.000000  -0.000261   0.007182  -0.000104   0.000287   0.375474
     2  C    0.000001   0.007064  -0.047299  -0.004892   0.000253  -0.017029
     3  C   -0.000088  -0.041320   0.397415  -0.050133  -0.008100   0.000524
     4  C    0.002100  -0.061707  -0.078890   0.002681  -0.000082   0.000160
     5  C   -0.060216   0.375606  -0.049894   0.000572  -0.000057  -0.000010
     6  C    0.731835  -0.016074   0.004272  -0.000010   0.000000   0.000000
     7  O    7.661393  -0.000463   0.000312  -0.000000   0.000000  -0.000000
     8  C   -0.000463   5.010103   0.338976  -0.007751   0.001960   0.000004
     9  C    0.000312   0.338976   4.773022   0.322893  -0.046251  -0.000124
    10  O   -0.000000  -0.007751   0.322893   7.888362   0.114849   0.000003
    11  O    0.000000   0.001960  -0.046251   0.114849   7.951605  -0.000008
    12  H   -0.000000   0.000004  -0.000124   0.000003  -0.000008   0.591445
    13  H   -0.000000   0.000005   0.000009   0.000018  -0.000005  -0.031807
    14  H    0.000000   0.000008  -0.000325  -0.000005  -0.000001  -0.031176
    15  H   -0.000000   0.000102  -0.016021  -0.001750   0.018469  -0.007346
    16  H   -0.000057   0.004874   0.003425  -0.000058  -0.000000  -0.000037
    17  H    0.000063  -0.000190   0.002742   0.000217   0.000003   0.000002
    18  H   -0.002669  -0.028562   0.001501  -0.000021   0.000002  -0.000000
    19  H   -0.052325   0.003484   0.000370  -0.000001  -0.000000   0.000000
    20  H    0.001984   0.358308  -0.016375   0.000721  -0.000043  -0.000000
    21  H    0.000298   0.354485  -0.018373   0.000159  -0.000065  -0.000000
    22  H    0.000000  -0.039051   0.352157  -0.033303   0.003199   0.000001
    23  H   -0.000000  -0.000434   0.000292  -0.030431   0.290013  -0.000001
              13         14         15         16         17         18
     1  C    0.369442   0.365108  -0.069925   0.003455   0.001248   0.000001
     2  C   -0.020031  -0.018474   0.347604  -0.012141  -0.001022   0.000299
     3  C   -0.010931  -0.010154  -0.003740  -0.006845  -0.022464   0.001428
     4  C    0.002937   0.002332   0.008174   0.341454   0.350475  -0.042254
     5  C    0.000008   0.000072  -0.000063  -0.016555  -0.038998   0.350363
     6  C    0.000002  -0.000001   0.000002  -0.000018  -0.007230  -0.019243
     7  O   -0.000000   0.000000  -0.000000  -0.000057   0.000063  -0.002669
     8  C    0.000005   0.000008   0.000102   0.004874  -0.000190  -0.028562
     9  C    0.000009  -0.000325  -0.016021   0.003425   0.002742   0.001501
    10  O    0.000018  -0.000005  -0.001750  -0.000058   0.000217  -0.000021
    11  O   -0.000005  -0.000001   0.018469  -0.000000   0.000003   0.000002
    12  H   -0.031807  -0.031176  -0.007346  -0.000037   0.000002  -0.000000
    13  H    0.589012  -0.030569   0.004291  -0.001356   0.002581   0.000004
    14  H   -0.030569   0.588051   0.004318   0.004809  -0.000776  -0.000012
    15  H    0.004291   0.004318   0.611095  -0.000061  -0.000157   0.000002
    16  H   -0.001356   0.004809  -0.000061   0.618087  -0.042116  -0.008093
    17  H    0.002581  -0.000776  -0.000157  -0.042116   0.626941   0.005736
    18  H    0.000004  -0.000012   0.000002  -0.008093   0.005736   0.625843
    19  H   -0.000000  -0.000000  -0.000000   0.000770   0.009920   0.005797
    20  H   -0.000000   0.000000  -0.000006  -0.000187  -0.000148  -0.008119
    21  H   -0.000000   0.000000   0.000008  -0.000096   0.001527   0.005600
    22  H   -0.000010   0.000038   0.001971  -0.000233  -0.000114   0.001073
    23  H   -0.000001   0.000000  -0.000487   0.000000  -0.000002  -0.000000
              19         20         21         22         23
     1  C    0.000005   0.000003  -0.000000  -0.000249  -0.000033
     2  C   -0.000010  -0.000158   0.000075  -0.006857  -0.000010
     3  C   -0.000231   0.003213  -0.002758  -0.050729   0.001534
     4  C    0.006943   0.005460   0.000202   0.008877   0.000026
     5  C   -0.126427  -0.023286  -0.033597   0.000508   0.000003
     6  C    0.361321   0.001459  -0.002033  -0.000038  -0.000000
     7  O   -0.052325   0.001984   0.000298   0.000000  -0.000000
     8  C    0.003484   0.358308   0.354485  -0.039051  -0.000434
     9  C    0.000370  -0.016375  -0.018373   0.352157   0.000292
    10  O   -0.000001   0.000721   0.000159  -0.033303  -0.030431
    11  O   -0.000000  -0.000043  -0.000065   0.003199   0.290013
    12  H    0.000000  -0.000000  -0.000000   0.000001  -0.000001
    13  H   -0.000000  -0.000000  -0.000000  -0.000010  -0.000001
    14  H   -0.000000   0.000000   0.000000   0.000038   0.000000
    15  H   -0.000000  -0.000006   0.000008   0.001971  -0.000487
    16  H    0.000770  -0.000187  -0.000096  -0.000233   0.000000
    17  H    0.009920  -0.000148   0.001527  -0.000114  -0.000002
    18  H    0.005797  -0.008119   0.005600   0.001073  -0.000000
    19  H    0.701136  -0.000022   0.001519   0.000004   0.000000
    20  H   -0.000022   0.594930  -0.035619  -0.007490   0.000007
    21  H    0.001519  -0.035619   0.599728   0.005932   0.000008
    22  H    0.000004  -0.007490   0.005932   0.666617   0.000239
    23  H    0.000000   0.000007   0.000008   0.000239   0.424064
 Mulliken charges:
               1
     1  C   -0.435670
     2  C   -0.177972
     3  C    0.317465
     4  C   -0.341112
     5  C   -0.074358
     6  C    0.152582
     7  O   -0.282167
     8  C   -0.259165
     9  C    0.068982
    10  O   -0.202018
    11  O   -0.326029
    12  H    0.119925
    13  H    0.126402
    14  H    0.126756
    15  H    0.103524
    16  H    0.110980
    17  H    0.111761
    18  H    0.111326
    19  H    0.087749
    20  H    0.125367
    21  H    0.123002
    22  H    0.097458
    23  H    0.315212
 Sum of Mulliken charges =  -0.00000
 Mulliken charges with hydrogens summed into heavy atoms:
               1
     1  C   -0.062587
     2  C   -0.074448
     3  C    0.317465
     4  C   -0.118370
     5  C    0.036967
     6  C    0.240331
     7  O   -0.282167
     8  C   -0.010797
     9  C    0.166440
    10  O   -0.202018
    11  O   -0.010816
 Electronic spatial extent (au):  <R**2>=           2146.0254
 Charge=             -0.0000 electrons
 Dipole moment (field-independent basis, Debye):
    X=             -2.3585    Y=              1.4018    Z=             -0.5458  Tot=              2.7974
 Quadrupole moment (field-independent basis, Debye-Ang):
   XX=            -75.4059   YY=            -63.0069   ZZ=            -62.2285
   XY=              4.2999   XZ=              2.6223   YZ=              1.4540
 Traceless Quadrupole moment (field-independent basis, Debye-Ang):
   XX=             -8.5254   YY=              3.8735   ZZ=              4.6519
   XY=              4.2999   XZ=              2.6223   YZ=              1.4540
 Octapole moment (field-independent basis, Debye-Ang**2):
  XXX=            -95.1434  YYY=            -17.2581  ZZZ=             -3.5161  XYY=             -4.7398
  XXY=             -2.4913  XXZ=            -13.3633  XZZ=              0.2593  YZZ=             -8.4531
  YYZ=             -5.7081  XYZ=             -8.9033
 Hexadecapole moment (field-independent basis, Debye-Ang**3):
 XXXX=          -1947.5192 YYYY=           -832.9009 ZZZZ=           -128.3557 XXXY=            108.4044
 XXXZ=             38.1931 YYYX=             50.8578 YYYZ=             24.1919 ZZZX=              9.0564
 ZZZY=              4.7214 XXYY=           -380.7044 XXZZ=           -289.6955 YYZZ=           -149.6629
 XXYZ=             30.3640 YYXZ=             23.1648 ZZXY=             20.7954
 N-N= 6.238753973060D+02 E-N=-2.503495674234D+03  KE= 5.338677741055D+02
 PrsmSu:  requested number of processors reduced to:  13 ShMem   1 Linda.
 Calling FoFJK, ICntrl=      2127 FMM=F ISym2X=0 I1Cent= 0 IOpClX= 0 NMat=1 NMatS=1 NMatT=0.
 ***** Axes restored to original set *****
 -------------------------------------------------------------------
 Center     Atomic                   Forces (Hartrees/Bohr)
 Number     Number              X              Y              Z
 -------------------------------------------------------------------
      1        6          -0.005248069    0.002710026    0.001466264
      2        6           0.015322432    0.007994077   -0.000635428
      3        6          -0.027458885    0.004988481   -0.008380073
      4        6          -0.007767946    0.001217453   -0.008208663
      5        6          -0.002158823   -0.013154461    0.009316733
      6        6           0.049392228    0.000088713   -0.014143621
      7        8          -0.036471753    0.000061751    0.006789671
      8        6           0.019948535    0.015998174   -0.005578420
      9        6          -0.008423848   -0.004532627    0.007991614
     10        8           0.010088950   -0.000923226   -0.007292274
     11        8           0.003534968    0.002289598    0.009779886
     12        1          -0.000402986   -0.003537054    0.000003895
     13        1          -0.001354786   -0.005161004   -0.001018901
     14        1          -0.001443674   -0.005210553    0.000986828
     15        1           0.004744732   -0.000938064    0.000235195
     16        1          -0.003294038   -0.001681630    0.004437502
     17        1           0.001882122   -0.004099831    0.001530430
     18        1           0.001440781    0.001960792    0.001134216
     19        1          -0.003179126   -0.002157999    0.003628199
     20        1          -0.000397578   -0.000660030    0.003957596
     21        1          -0.004850979   -0.000018854   -0.000444254
     22        1          -0.001046655    0.005433544    0.002695895
     23        1          -0.002855601   -0.000667276   -0.008252288
 -------------------------------------------------------------------
 Cartesian Forces:  Max     0.049392228 RMS     0.010105280

 GradGradGradGradGradGradGradGradGradGradGradGradGradGradGradGradGradGrad
 Berny optimization.
 FormGI is forming the generalized inverse of G from B-inverse, IUseBI=4.
 Internal  Forces:  Max     0.037030522 RMS     0.005128249
 Search for a local minimum.
 Step number   1 out of a maximum of  133
 All quantities printed in internal units (Hartrees-Bohrs-Radians)
 Mixed Optimization -- RFO/linear search
 Second derivative matrix not updated -- first step.
 ITU=  0
     Eigenvalues ---    0.00497   0.00520   0.00626   0.00643   0.00644
     Eigenvalues ---    0.00905   0.01142   0.01291   0.01708   0.02710
     Eigenvalues ---    0.02826   0.03275   0.04611   0.05084   0.05101
     Eigenvalues ---    0.05480   0.05688   0.06111   0.06338   0.06570
     Eigenvalues ---    0.07244   0.07265   0.07595   0.07837   0.08215
     Eigenvalues ---    0.09631   0.13000   0.13917   0.15998   0.16000
     Eigenvalues ---    0.16000   0.16000   0.16000   0.16000   0.19463
     Eigenvalues ---    0.21372   0.22000   0.22000   0.24960   0.25000
     Eigenvalues ---    0.27464   0.28358   0.28998   0.30514   0.31404
     Eigenvalues ---    0.31424   0.33380   0.33508   0.33899   0.34010
     Eigenvalues ---    0.34012   0.34038   0.34166   0.34199   0.34208
     Eigenvalues ---    0.34389   0.34480   0.35041   0.36924   0.40949
     Eigenvalues ---    0.52512   0.56255   0.90904
 RFO step:  Lambda=-1.20076840D-02 EMin= 4.96848067D-03
 Linear search not attempted -- first point.
 Iteration  1 RMS(Cart)=  0.05535361 RMS(Int)=  0.00135356
 Iteration  2 RMS(Cart)=  0.00214613 RMS(Int)=  0.00043776
 Iteration  3 RMS(Cart)=  0.00000490 RMS(Int)=  0.00043773
 Iteration  4 RMS(Cart)=  0.00000000 RMS(Int)=  0.00043773
 Variable       Old X    -DE/DX   Delta X   Delta X   Delta X     New X
                                 (Linear)    (Quad)   (Total)
    R1        2.81469   0.01376   0.00000   0.03965   0.03965   2.85434
    R2        2.06981  -0.00141   0.00000  -0.00397  -0.00397   2.06583
    R3        2.06678   0.00162   0.00000   0.00455   0.00455   2.07132
    R4        2.06528   0.00260   0.00000   0.00728   0.00728   2.07255
    R5        2.54034  -0.01229   0.00000  -0.02139  -0.02139   2.51894
    R6        2.05608  -0.00221   0.00000  -0.00611  -0.00611   2.04997
    R7        2.84009   0.00794   0.00000   0.02408   0.02406   2.86415
    R8        2.86201   0.01145   0.00000   0.03398   0.03375   2.89576
    R9        2.88276   0.01206   0.00000   0.04140   0.04172   2.92448
   R10        2.06996  -0.00005   0.00000  -0.00013  -0.00013   2.06983
   R11        2.07051   0.00252   0.00000   0.00713   0.00713   2.07764
   R12        2.85211   0.00533   0.00000   0.01632   0.01632   2.86843
   R13        2.88056   0.01146   0.00000   0.03678   0.03678   2.91734
   R14        2.07313  -0.00121   0.00000  -0.00343  -0.00343   2.06970
   R15        2.32519  -0.03703   0.00000  -0.04020  -0.04020   2.28499
   R16        2.08389   0.00508   0.00000   0.01470   0.01470   2.09859
   R17        2.89345   0.00577   0.00000   0.01782   0.01774   2.91119
   R18        2.07265  -0.00265   0.00000  -0.00753  -0.00753   2.06512
   R19        2.07501  -0.00180   0.00000  -0.00513  -0.00513   2.06988
   R20        2.70284  -0.00443   0.00000  -0.01050  -0.01050   2.69234
   R21        2.07309  -0.00016   0.00000  -0.00044  -0.00044   2.07265
   R22        2.75961   0.00015   0.00000   0.00039   0.00039   2.76000
   R23        1.84112  -0.00732   0.00000  -0.01362  -0.01362   1.82750
    A1        1.90718   0.00415   0.00000   0.03032   0.02984   1.93702
    A2        1.93707   0.00369   0.00000   0.01884   0.01858   1.95565
    A3        1.93581   0.00323   0.00000   0.01500   0.01482   1.95064
    A4        1.87851  -0.00238   0.00000  -0.00659  -0.00710   1.87141
    A5        1.88194  -0.00269   0.00000  -0.01070  -0.01107   1.87087
    A6        1.92153  -0.00626   0.00000  -0.04768  -0.04764   1.87389
    A7        2.19946  -0.00472   0.00000  -0.02035  -0.02035   2.17911
    A8        2.00627   0.00679   0.00000   0.03592   0.03592   2.04218
    A9        2.07731  -0.00207   0.00000  -0.01557  -0.01557   2.06174
   A10        2.18571  -0.00110   0.00000  -0.00155  -0.00157   2.18414
   A11        2.16997   0.00515   0.00000   0.02262   0.02263   2.19259
   A12        1.92678  -0.00400   0.00000  -0.02042  -0.02056   1.90622
   A13        1.81340   0.00265   0.00000   0.01404   0.01397   1.82737
   A14        1.95783  -0.00110   0.00000   0.00111   0.00030   1.95813
   A15        1.91671   0.00105   0.00000   0.01554   0.01575   1.93247
   A16        1.92667   0.00322   0.00000   0.03382   0.03353   1.96020
   A17        1.95454  -0.00395   0.00000  -0.03250  -0.03240   1.92214
   A18        1.89475  -0.00178   0.00000  -0.03027  -0.02999   1.86477
   A19        1.95161   0.00467   0.00000   0.04814   0.04777   1.99938
   A20        1.81933  -0.00004   0.00000   0.00933   0.00881   1.82814
   A21        1.92188  -0.00096   0.00000  -0.00748  -0.00718   1.91470
   A22        1.94343  -0.00037   0.00000   0.00469   0.00350   1.94693
   A23        1.88756  -0.00165   0.00000  -0.02285  -0.02294   1.86462
   A24        1.94034  -0.00157   0.00000  -0.03074  -0.03078   1.90956
   A25        2.14472   0.00431   0.00000   0.01850   0.01840   2.16312
   A26        2.04169  -0.00339   0.00000  -0.01657  -0.01666   2.02502
   A27        2.09669  -0.00093   0.00000  -0.00225  -0.00234   2.09434
   A28        1.84103  -0.00148   0.00000  -0.00792  -0.00832   1.83271
   A29        1.93620   0.00055   0.00000   0.02767   0.02767   1.96387
   A30        1.94947   0.00104   0.00000  -0.01629  -0.01746   1.93201
   A31        1.93806   0.00206   0.00000   0.02884   0.02853   1.96659
   A32        1.94700  -0.00216   0.00000  -0.03727  -0.03765   1.90935
   A33        1.85401   0.00004   0.00000   0.00561   0.00615   1.86017
   A34        1.81057   0.00491   0.00000   0.03220   0.03224   1.84281
   A35        1.95523   0.00679   0.00000   0.06210   0.06328   2.01851
   A36        1.94467  -0.00172   0.00000   0.00413   0.00403   1.94870
   A37        1.89032  -0.00826   0.00000  -0.04832  -0.05007   1.84025
   A38        1.92189   0.00120   0.00000   0.00666   0.00540   1.92728
   A39        1.93643  -0.00272   0.00000  -0.05307  -0.05394   1.88248
   A40        1.86924  -0.00233   0.00000  -0.00890  -0.00890   1.86034
   A41        1.67853   0.00876   0.00000   0.05092   0.05092   1.72945
    D1        3.08834   0.00019   0.00000   0.00206   0.00212   3.09046
    D2       -0.03417   0.00022   0.00000   0.00198   0.00203  -0.03214
    D3        1.01942  -0.00171   0.00000  -0.02026  -0.02048   0.99893
    D4       -2.10310  -0.00168   0.00000  -0.02035  -0.02056  -2.12367
    D5       -1.12245   0.00145   0.00000   0.01704   0.01720  -1.10525
    D6        2.03821   0.00148   0.00000   0.01696   0.01712   2.05534
    D7        0.05556  -0.00068   0.00000  -0.00947  -0.00946   0.04610
    D8       -3.13104   0.00066   0.00000   0.00985   0.00984  -3.12120
    D9       -3.10581  -0.00062   0.00000  -0.00888  -0.00887  -3.11468
   D10       -0.00922   0.00071   0.00000   0.01044   0.01043   0.00121
   D11        2.82192   0.00287   0.00000   0.02174   0.02139   2.84330
   D12        0.74080  -0.00203   0.00000  -0.02774  -0.02797   0.71283
   D13       -1.36784   0.00024   0.00000  -0.00084  -0.00097  -1.36881
   D14       -0.28002   0.00150   0.00000   0.00381   0.00387  -0.27616
   D15       -2.36114  -0.00340   0.00000  -0.04567  -0.04549  -2.40663
   D16        1.81340  -0.00114   0.00000  -0.01876  -0.01849   1.79492
   D17        3.08481  -0.00151   0.00000   0.00125   0.00153   3.08634
   D18        1.04979   0.00217   0.00000   0.01016   0.00955   1.05934
   D19       -1.13121   0.00191   0.00000   0.02978   0.02938  -1.10183
   D20       -0.09600  -0.00032   0.00000   0.01833   0.01848  -0.07752
   D21       -2.13102   0.00336   0.00000   0.02725   0.02651  -2.10451
   D22        1.97117   0.00310   0.00000   0.04686   0.04633   2.01750
   D23        2.64671  -0.00019   0.00000   0.01390   0.01400   2.66071
   D24        0.54515  -0.00219   0.00000  -0.02293  -0.02312   0.52203
   D25       -1.53750   0.00016   0.00000   0.01166   0.01157  -1.52594
   D26       -1.53421   0.00168   0.00000   0.04040   0.04085  -1.49336
   D27        2.64742  -0.00032   0.00000   0.00357   0.00373   2.65115
   D28        0.56477   0.00202   0.00000   0.03816   0.03842   0.60318
   D29        0.57913  -0.00103   0.00000   0.00336   0.00353   0.58266
   D30       -1.52243  -0.00303   0.00000  -0.03347  -0.03359  -1.55602
   D31        2.67810  -0.00069   0.00000   0.00112   0.00110   2.67920
   D32        3.13545  -0.00072   0.00000  -0.01529  -0.01554   3.11991
   D33       -0.02071  -0.00118   0.00000  -0.04090  -0.04115  -0.06187
   D34       -1.12025   0.00194   0.00000   0.02980   0.02990  -1.09035
   D35        2.00677   0.00148   0.00000   0.00419   0.00429   2.01107
   D36        1.01653  -0.00135   0.00000  -0.02092  -0.02078   0.99575
   D37       -2.13963  -0.00182   0.00000  -0.04654  -0.04639  -2.18602
   D38       -0.61943   0.00368   0.00000   0.04529   0.04503  -0.57440
   D39       -2.71949   0.00180   0.00000   0.00036  -0.00003  -2.71952
   D40        1.49882   0.00071   0.00000  -0.01431  -0.01444   1.48437
   D41       -2.72647  -0.00168   0.00000  -0.02043  -0.02034  -2.74681
   D42        1.45666  -0.00356   0.00000  -0.06535  -0.06540   1.39126
   D43       -0.60822  -0.00465   0.00000  -0.08003  -0.07981  -0.68803
   D44        1.45066   0.00174   0.00000   0.02647   0.02642   1.47708
   D45       -0.64940  -0.00014   0.00000  -0.01846  -0.01864  -0.66803
   D46       -2.71428  -0.00123   0.00000  -0.03314  -0.03305  -2.74733
   D47        0.43787  -0.00144   0.00000  -0.03599  -0.03604   0.40183
   D48        2.51795   0.00507   0.00000   0.02964   0.02903   2.54698
   D49       -1.64496  -0.00275   0.00000  -0.06202  -0.06226  -1.70721
   D50        2.53670  -0.00056   0.00000   0.00819   0.00849   2.54519
   D51       -1.66640   0.00595   0.00000   0.07382   0.07355  -1.59285
   D52        0.45388  -0.00187   0.00000  -0.01784  -0.01773   0.43615
   D53       -1.68198  -0.00056   0.00000   0.00993   0.00973  -1.67225
   D54        0.39810   0.00596   0.00000   0.07556   0.07480   0.47290
   D55        2.51838  -0.00187   0.00000  -0.01610  -0.01649   2.50190
   D56       -1.38045  -0.00010   0.00000  -0.04626  -0.04629  -1.42673
   D57        2.91639  -0.00484   0.00000  -0.09022  -0.08838   2.82802
   D58        0.80510   0.00068   0.00000  -0.03461  -0.03644   0.76866
   D59        2.87072  -0.00133   0.00000  -0.07833  -0.07833   2.79238
         Item               Value     Threshold  Converged?
 Maximum Force            0.037031     0.000450     NO 
 RMS     Force            0.005128     0.000300     NO 
 Maximum Displacement     0.293766     0.001800     NO 
 RMS     Displacement     0.055623     0.001200     NO 
 Predicted change in Energy=-6.632796D-03
 GradGradGradGradGradGradGradGradGradGradGradGradGradGradGradGradGradGrad

                          Input orientation:                          
 ---------------------------------------------------------------------
 Center     Atomic      Atomic             Coordinates (Angstroms)
 Number     Number       Type             X           Y           Z
 ---------------------------------------------------------------------
      1          6           0       -2.802959   -0.472024   -0.005364
      2          6           0       -1.684765    0.540313   -0.084628
      3          6           0       -0.387118    0.251116    0.011705
      4          6           0        0.187210   -1.143675    0.159644
      5          6           0        1.682138   -0.994247   -0.211609
      6          6           0        2.600344   -2.006634    0.448704
      7          8           0        3.793840   -2.058292    0.261692
      8          6           0        2.045339    0.450228    0.194430
      9          6           0        0.759850    1.265931   -0.040931
     10          8           0        0.750153    2.261102    0.978569
     11          8           0       -0.185296    3.294859    0.543341
     12          1           0       -3.778859    0.017552   -0.060160
     13          1           0       -2.777376   -1.040932    0.931182
     14          1           0       -2.756200   -1.194881   -0.828862
     15          1           0       -1.969057    1.579334   -0.212710
     16          1           0       -0.327991   -1.872699   -0.475011
     17          1           0        0.088206   -1.497254    1.195959
     18          1           0        1.807397   -1.110643   -1.293417
     19          1           0        2.120587   -2.702531    1.169003
     20          1           0        2.899805    0.839836   -0.364445
     21          1           0        2.317290    0.497611    1.254408
     22          1           0        0.803290    1.777650   -1.010066
     23          1           0       -0.361947    3.710829    1.398318
 ---------------------------------------------------------------------
                    Distance matrix (angstroms):
                    1          2          3          4          5
     1  C    0.000000
     2  C    1.510453   0.000000
     3  C    2.521806   1.332968   0.000000
     4  C    3.069112   2.529778   1.515645   0.000000
     5  C    4.520104   3.702301   2.425411   1.547568   0.000000
     6  C    5.635325   5.013337   3.770058   2.579045   1.517908
     7  O    6.790090   6.073533   4.782915   3.722193   2.411534
     8  C    4.939277   3.741613   2.447424   2.448343   1.543791
     9  C    3.964260   2.550406   1.532369   2.484823   2.447069
    10  O    4.589412   3.165490   2.503648   3.546837   3.589208
    11  O    4.619810   3.198480   3.096408   4.470634   4.738532
    12  H    1.093192   2.158497   3.400533   4.138413   5.556002
    13  H    1.096097   2.173938   2.868476   3.065061   4.603848
    14  H    1.096748   2.170888   2.900001   3.105387   4.485543
    15  H    2.224063   1.084800   2.077753   3.493267   4.467051
    16  H    2.882347   2.795687   2.179674   1.095306   2.209452
    17  H    3.294405   2.989149   2.164529   1.099441   2.185151
    18  H    4.829316   4.047472   2.893723   2.176576   1.095237
    19  H    5.531329   5.154448   4.043754   2.680817   2.239768
    20  H    5.862716   4.602858   3.360350   3.401053   2.206792
    21  H    5.361359   4.220342   2.986452   2.903373   2.185924
    22  H    4.367550   2.928798   2.188926   3.206543   3.015513
    23  H    5.042333   3.741810   3.727324   5.040049   5.376605
                    6          7          8          9         10
     6  C    0.000000
     7  O    1.209163   0.000000
     8  C    2.531572   3.058506   0.000000
     9  C    3.786402   4.510780   1.540535   0.000000
    10  O    4.681617   5.332459   2.360433   1.424725   0.000000
    11  O    5.989539   6.676007   3.631720   2.313271   1.460527
    12  H    6.711968   7.858657   5.845794   4.707302   5.159886
    13  H    5.485002   6.683123   5.101465   4.333427   4.832094
    14  H    5.566299   6.696105   5.177672   4.363374   5.244534
    15  H    5.846030   6.831425   4.189991   2.752210   3.045990
    16  H    3.073489   4.191262   3.387749   3.350048   4.512605
    17  H    2.669963   3.862557   2.937026   3.100999   3.822391
    18  H    2.113421   2.694876   2.169476   2.883432   4.200994
    19  H    1.110527   2.009486   3.300810   4.366260   5.152864
    20  H    2.975446   3.096852   1.092817   2.205817   2.905975
    21  H    2.645850   3.114214   1.095333   2.166527   2.375270
    22  H    4.436014   5.027446   2.180722   1.096798   2.047247
    23  H    6.508941   7.200364   4.227989   3.050802   1.874743
                   11         12         13         14         15
    11  O    0.000000
    12  H    4.900883   0.000000
    13  H    5.066397   1.762417   0.000000
    14  H    5.352593   1.762591   1.766891   0.000000
    15  H    2.587748   2.395374   2.971138   2.948814   0.000000
    16  H    5.268876   3.956468   2.944266   2.545750   3.831244
    17  H    4.844074   4.338970   2.913743   3.504565   3.960060
    18  H    5.172325   5.830953   5.096455   4.587955   4.760831
    19  H    6.455790   6.611592   5.177597   5.481562   6.080188
    20  H    4.045869   6.735971   6.119341   6.028777   4.927038
    21  H    3.820098   6.254725   5.331718   5.739760   4.657825
    22  H    2.385853   4.999636   4.953183   4.640985   2.891542
    23  H    0.967070   5.238582   5.350864   5.895656   3.117929
                   16         17         18         19         20
    16  H    0.000000
    17  H    1.762476   0.000000
    18  H    2.410478   3.049931   0.000000
    19  H    3.063811   2.363047   2.948848   0.000000
    20  H    4.217671   3.975166   2.420891   3.937894   0.000000
    21  H    3.950541   2.991943   3.055795   3.207319   1.754174
    22  H    3.858903   4.012841   3.070954   5.153216   2.385728
    23  H    5.889508   5.231416   5.932797   6.880897   4.689239
                   21         22         23
    21  H    0.000000
    22  H    3.009741   0.000000
    23  H    4.186142   3.300799   0.000000
 Stoichiometry    C8H12O3
 Framework group  C1[X(C8H12O3)]
 Deg. of freedom    63
 Full point group                 C1      NOp   1
 Largest Abelian subgroup         C1      NOp   1
 Largest concise Abelian subgroup C1      NOp   1
                         Standard orientation:                         
 ---------------------------------------------------------------------
 Center     Atomic      Atomic             Coordinates (Angstroms)
 Number     Number       Type             X           Y           Z
 ---------------------------------------------------------------------
      1          6           0       -2.292894    2.555096   -0.112999
      2          6           0       -2.012683    1.098345    0.171298
      3          6           0       -0.804604    0.535645    0.144524
      4          6           0        0.494485    1.270599   -0.118897
      5          6           0        1.598355    0.309503    0.383830
      6          6           0        2.936640    0.465136   -0.315324
      7          8           0        3.920370   -0.182724   -0.042145
      8          6           0        1.012215   -1.103838    0.178405
      9          6           0       -0.503159   -0.944028    0.405012
     10          8           0       -1.119691   -1.865832   -0.489419
     11          8           0       -2.486319   -2.059558   -0.011991
     12          1           0       -3.365917    2.761283   -0.078701
     13          1           0       -1.935917    2.856953   -1.104402
     14          1           0       -1.812793    3.212512    0.621960
     15          1           0       -2.865887    0.467392    0.396536
     16          1           0        0.529054    2.242964    0.384100
     17          1           0        0.621358    1.463311   -1.193855
     18          1           0        1.776633    0.477986    1.451245
     19          1           0        2.969237    1.200108   -1.147204
     20          1           0        1.462024   -1.844390    0.844365
     21          1           0        1.192332   -1.452749   -0.844128
     22          1           0       -0.770341   -1.237566    1.427468
     23          1           0       -2.884799   -2.401636   -0.824038
 ---------------------------------------------------------------------
 Rotational constants (GHZ):           1.4977177           0.7117709           0.5026968
 Standard basis: 6-31G(2df,p) (6D, 7F)
 There are   401 symmetry adapted cartesian basis functions of A   symmetry.
 There are   368 symmetry adapted basis functions of A   symmetry.
   368 basis functions,   568 primitive gaussians,   401 cartesian basis functions
    42 alpha electrons       42 beta electrons
       nuclear repulsion energy       619.7992338478 Hartrees.
 NAtoms=   23 NActive=   23 NUniq=   23 SFac= 1.00D+00 NAtFMM=   60 NAOKFM=F Big=F
 Integral buffers will be    131072 words long.
 Raffenetti 2 integral format.
 Two-electron integral symmetry is turned on.
 One-electron integrals computed using PRISM.
 PrsmSu:  requested number of processors reduced to:  13 ShMem   1 Linda.
 NBasis=   368 RedAO= T EigKep=  4.17D-04  NBF=   368
 NBsUse=   368 1.00D-06 EigRej= -1.00D+00 NBFU=   368
 Initial guess from the checkpoint file:  "CCdC1CCqCdOrCC1OO.chk"
 B after Tr=    -0.000000    0.000000   -0.000000
         Rot=    0.999992    0.001230    0.001397   -0.003515 Ang=   0.46 deg.
 ExpMin= 1.61D-01 ExpMax= 5.48D+03 ExpMxC= 8.25D+02 IAcc=2 IRadAn=         4 AccDes= 0.00D+00
 Harris functional with IExCor=  402 and IRadAn=       4 diagonalized for initial guess.
 HarFok:  IExCor=  402 AccDes= 0.00D+00 IRadAn=         4 IDoV= 1 UseB2=F ITyADJ=14
 ICtDFT=  3500011 ScaDFX=  1.000000  1.000000  1.000000  1.000000
 FoFCou: FMM=F IPFlag=           0 FMFlag=      100000 FMFlg1=           0
         NFxFlg=           0 DoJE=T BraDBF=F KetDBF=T FulRan=T
         wScrn=  0.000000 ICntrl=       500 IOpCl=  0 I1Cent=   200000004 NGrid=           0
         NMat0=    1 NMatS0=      1 NMatT0=    0 NMatD0=    1 NMtDS0=    0 NMtDT0=    0
 Petite list used in FoFCou.
 Requested convergence on RMS density matrix=1.00D-08 within 128 cycles.
 Requested convergence on MAX density matrix=1.00D-06.
 Requested convergence on             energy=1.00D-06.
 No special actions if energy rises.
 Integral accuracy reduced to 1.0D-05 until final iterations.
 Initial convergence to 1.0D-05 achieved.  Increase integral accuracy.
 SCF Done:  E(RB3LYP) =  -537.651153078     A.U. after   12 cycles
            NFock= 12  Conv=0.54D-08     -V/T= 2.0073
 PrsmSu:  requested number of processors reduced to:  13 ShMem   1 Linda.
 Calling FoFJK, ICntrl=      2127 FMM=F ISym2X=0 I1Cent= 0 IOpClX= 0 NMat=1 NMatS=1 NMatT=0.
 ***** Axes restored to original set *****
 -------------------------------------------------------------------
 Center     Atomic                   Forces (Hartrees/Bohr)
 Number     Number              X              Y              Z
 -------------------------------------------------------------------
      1        6           0.000092908    0.002739764   -0.000169386
      2        6           0.000289184    0.000470666    0.000279854
      3        6           0.000416788    0.000404703   -0.000250775
      4        6           0.002939799    0.002273639   -0.002294908
      5        6          -0.003453090   -0.004601025    0.002571041
      6        6           0.011168250    0.001764878   -0.001430013
      7        8          -0.007755525    0.000231135   -0.000368660
      8        6           0.002406123    0.001752407   -0.002441348
      9        6          -0.000321787   -0.001308594    0.001408026
     10        8          -0.000728652    0.001039280   -0.000736432
     11        8           0.000780085   -0.001191885   -0.000491100
     12        1           0.000187572   -0.000099858   -0.000164757
     13        1           0.000682757   -0.000778997   -0.000278046
     14        1           0.000417281   -0.000874581    0.000211601
     15        1           0.000001286    0.000888239    0.000240598
     16        1           0.000132648   -0.000486433    0.001270803
     17        1           0.000277115   -0.000727080    0.000683430
     18        1           0.000470759    0.001129782   -0.000975366
     19        1          -0.002725871   -0.001224637    0.001227543
     20        1          -0.001105934   -0.000690197    0.000651668
     21        1          -0.002362104   -0.000058645    0.001108803
     22        1          -0.001549782    0.000588359   -0.000043911
     23        1          -0.000259811   -0.001240920   -0.000008664
 -------------------------------------------------------------------
 Cartesian Forces:  Max     0.011168250 RMS     0.002128327

 GradGradGradGradGradGradGradGradGradGradGradGradGradGradGradGradGradGrad
 Berny optimization.
 Using GEDIIS/GDIIS optimizer.
 FormGI is forming the generalized inverse of G from B-inverse, IUseBI=4.
 Internal  Forces:  Max     0.007608478 RMS     0.001182110
 Search for a local minimum.
 Step number   2 out of a maximum of  133
 All quantities printed in internal units (Hartrees-Bohrs-Radians)
 Mixed Optimization -- RFO/linear search
 Update second derivatives using D2CorX and points    1    2
 DE= -6.14D-03 DEPred=-6.63D-03 R= 9.26D-01
 TightC=F SS=  1.41D+00  RLast= 3.35D-01 DXNew= 5.0454D-01 1.0043D+00
 Trust test= 9.26D-01 RLast= 3.35D-01 DXMaxT set to 5.05D-01
 ITU=  1  0
 Use linear search instead of GDIIS.
     Eigenvalues ---    0.00490   0.00508   0.00618   0.00642   0.00654
     Eigenvalues ---    0.00905   0.01148   0.01333   0.01683   0.02635
     Eigenvalues ---    0.02825   0.03174   0.04505   0.04963   0.05102
     Eigenvalues ---    0.05212   0.05693   0.06151   0.06319   0.06856
     Eigenvalues ---    0.07071   0.07167   0.07263   0.07928   0.08331
     Eigenvalues ---    0.09681   0.13632   0.14282   0.15729   0.15999
     Eigenvalues ---    0.16000   0.16000   0.16000   0.16436   0.19897
     Eigenvalues ---    0.21371   0.21901   0.22033   0.24893   0.25324
     Eigenvalues ---    0.27474   0.28295   0.29172   0.31198   0.31363
     Eigenvalues ---    0.31902   0.33100   0.33861   0.33930   0.34010
     Eigenvalues ---    0.34013   0.34147   0.34192   0.34205   0.34384
     Eigenvalues ---    0.34468   0.34670   0.35252   0.37085   0.40847
     Eigenvalues ---    0.52433   0.55974   0.86165
 RFO step:  Lambda=-1.65961310D-03 EMin= 4.90323471D-03
 Quartic linear search produced a step of  0.03444.
 Iteration  1 RMS(Cart)=  0.05065064 RMS(Int)=  0.00797642
 Iteration  2 RMS(Cart)=  0.01322283 RMS(Int)=  0.00064638
 Iteration  3 RMS(Cart)=  0.00051323 RMS(Int)=  0.00034943
 Iteration  4 RMS(Cart)=  0.00000063 RMS(Int)=  0.00034943
 Variable       Old X    -DE/DX   Delta X   Delta X   Delta X     New X
                                 (Linear)    (Quad)   (Total)
    R1        2.85434  -0.00171   0.00137  -0.00217  -0.00080   2.85354
    R2        2.06583  -0.00020  -0.00014  -0.00092  -0.00105   2.06478
    R3        2.07132   0.00018   0.00016   0.00089   0.00105   2.07237
    R4        2.07255   0.00043   0.00025   0.00185   0.00210   2.07466
    R5        2.51894  -0.00113  -0.00074  -0.00371  -0.00445   2.51450
    R6        2.04997   0.00082  -0.00021   0.00194   0.00173   2.05170
    R7        2.86415   0.00056   0.00083   0.00351   0.00434   2.86849
    R8        2.89576  -0.00396   0.00116  -0.01053  -0.00938   2.88637
    R9        2.92448  -0.00254   0.00144  -0.00606  -0.00461   2.91987
   R10        2.06983  -0.00047  -0.00000  -0.00143  -0.00144   2.06839
   R11        2.07764   0.00085   0.00025   0.00311   0.00335   2.08100
   R12        2.86843  -0.00035   0.00056   0.00012   0.00068   2.86912
   R13        2.91734   0.00116   0.00127   0.00744   0.00871   2.92605
   R14        2.06970   0.00090  -0.00012   0.00244   0.00232   2.07202
   R15        2.28499  -0.00761  -0.00138  -0.01173  -0.01312   2.27187
   R16        2.09859   0.00274   0.00051   0.00955   0.01006   2.10865
   R17        2.91119  -0.00058   0.00061  -0.00066  -0.00005   2.91114
   R18        2.06512  -0.00144  -0.00026  -0.00493  -0.00519   2.05994
   R19        2.06988   0.00048  -0.00018   0.00107   0.00089   2.07077
   R20        2.69234  -0.00186  -0.00036  -0.00546  -0.00582   2.68652
   R21        2.07265   0.00025  -0.00002   0.00072   0.00071   2.07336
   R22        2.76000  -0.00191   0.00001  -0.00527  -0.00526   2.75474
   R23        1.82750  -0.00049  -0.00047  -0.00202  -0.00249   1.82501
    A1        1.93702   0.00033   0.00103   0.00699   0.00797   1.94499
    A2        1.95565  -0.00028   0.00064  -0.00152  -0.00092   1.95473
    A3        1.95064   0.00000   0.00051  -0.00045   0.00003   1.95067
    A4        1.87141   0.00046  -0.00024   0.00527   0.00498   1.87639
    A5        1.87087   0.00018  -0.00038   0.00239   0.00198   1.87285
    A6        1.87389  -0.00068  -0.00164  -0.01285  -0.01452   1.85937
    A7        2.17911  -0.00094  -0.00070  -0.00590  -0.00660   2.17251
    A8        2.04218   0.00072   0.00124   0.00649   0.00773   2.04991
    A9        2.06174   0.00022  -0.00054  -0.00058  -0.00111   2.06063
   A10        2.18414   0.00252  -0.00005   0.01155   0.01149   2.19563
   A11        2.19259  -0.00297   0.00078  -0.00913  -0.00836   2.18423
   A12        1.90622   0.00046  -0.00071  -0.00221  -0.00295   1.90327
   A13        1.82737   0.00044   0.00048   0.00089   0.00131   1.82868
   A14        1.95813   0.00023   0.00001   0.00594   0.00588   1.96401
   A15        1.93247   0.00011   0.00054   0.00475   0.00533   1.93780
   A16        1.96020  -0.00001   0.00115   0.00599   0.00712   1.96732
   A17        1.92214  -0.00042  -0.00112  -0.00814  -0.00924   1.91290
   A18        1.86477  -0.00035  -0.00103  -0.00922  -0.01024   1.85453
   A19        1.99938   0.00042   0.00165   0.01005   0.01169   2.01107
   A20        1.82814  -0.00102   0.00030  -0.00781  -0.00755   1.82059
   A21        1.91470   0.00058  -0.00025   0.00396   0.00363   1.91834
   A22        1.94693   0.00068   0.00012   0.00355   0.00363   1.95056
   A23        1.86462  -0.00032  -0.00079  -0.00087  -0.00170   1.86293
   A24        1.90956  -0.00035  -0.00106  -0.00968  -0.01073   1.89883
   A25        2.16312  -0.00021   0.00063   0.00142  -0.00016   2.16297
   A26        2.02502  -0.00163  -0.00057  -0.01028  -0.01307   2.01196
   A27        2.09434   0.00188  -0.00008   0.01316   0.01086   2.10520
   A28        1.83271   0.00031  -0.00029  -0.00367  -0.00406   1.82865
   A29        1.96387   0.00003   0.00095   0.00702   0.00796   1.97182
   A30        1.93201  -0.00023  -0.00060  -0.00623  -0.00709   1.92492
   A31        1.96659   0.00007   0.00098   0.00852   0.00951   1.97610
   A32        1.90935  -0.00101  -0.00130  -0.01998  -0.02140   1.88794
   A33        1.86017   0.00075   0.00021   0.01283   0.01315   1.87331
   A34        1.84281  -0.00009   0.00111   0.00084   0.00195   1.84476
   A35        2.01851  -0.00119   0.00218  -0.00738  -0.00518   2.01333
   A36        1.94870  -0.00040   0.00014  -0.00611  -0.00609   1.94261
   A37        1.84025   0.00109  -0.00172   0.00528   0.00350   1.84375
   A38        1.92728   0.00109   0.00019   0.01825   0.01842   1.94570
   A39        1.88248  -0.00028  -0.00186  -0.00821  -0.01019   1.87229
   A40        1.86034  -0.00336  -0.00031  -0.01444  -0.01475   1.84559
   A41        1.72945  -0.00117   0.00175  -0.00360  -0.00185   1.72760
    D1        3.09046   0.00006   0.00007   0.00151   0.00159   3.09205
    D2       -0.03214   0.00005   0.00007   0.00073   0.00081  -0.03133
    D3        0.99893  -0.00056  -0.00071  -0.00897  -0.00968   0.98926
    D4       -2.12367  -0.00057  -0.00071  -0.00974  -0.01046  -2.13412
    D5       -1.10525   0.00052   0.00059   0.00897   0.00957  -1.09568
    D6        2.05534   0.00050   0.00059   0.00820   0.00879   2.06412
    D7        0.04610  -0.00042  -0.00033  -0.01751  -0.01783   0.02827
    D8       -3.12120  -0.00024   0.00034  -0.00557  -0.00523  -3.12643
    D9       -3.11468  -0.00041  -0.00031  -0.01665  -0.01696  -3.13164
   D10        0.00121  -0.00023   0.00036  -0.00472  -0.00436  -0.00315
   D11        2.84330   0.00002   0.00074   0.00113   0.00189   2.84519
   D12        0.71283  -0.00039  -0.00096  -0.01011  -0.01105   0.70178
   D13       -1.36881  -0.00017  -0.00003  -0.00559  -0.00560  -1.37441
   D14       -0.27616  -0.00009   0.00013  -0.00902  -0.00890  -0.28506
   D15       -2.40663  -0.00049  -0.00157  -0.02025  -0.02184  -2.42847
   D16        1.79492  -0.00028  -0.00064  -0.01574  -0.01639   1.77853
   D17        3.08634  -0.00039   0.00005  -0.01410  -0.01401   3.07233
   D18        1.05934  -0.00103   0.00033  -0.01717  -0.01680   1.04255
   D19       -1.10183   0.00065   0.00101   0.00511   0.00611  -1.09571
   D20       -0.07752  -0.00020   0.00064  -0.00357  -0.00299  -0.08051
   D21       -2.10451  -0.00084   0.00091  -0.00664  -0.00578  -2.11029
   D22        2.01750   0.00084   0.00160   0.01564   0.01713   2.03463
   D23        2.66071  -0.00005   0.00048   0.02028   0.02075   2.68146
   D24        0.52203  -0.00044  -0.00080   0.01530   0.01452   0.53655
   D25       -1.52594   0.00025   0.00040   0.02890   0.02933  -1.49661
   D26       -1.49336   0.00051   0.00141   0.03149   0.03290  -1.46046
   D27        2.65115   0.00012   0.00013   0.02651   0.02667   2.67781
   D28        0.60318   0.00081   0.00132   0.04011   0.04147   0.64465
   D29        0.58266  -0.00022   0.00012   0.01828   0.01839   0.60105
   D30       -1.55602  -0.00061  -0.00116   0.01330   0.01216  -1.54387
[...]
 0224762,0.00061848,0.00004566,-0.00088514,-0.00058628,-0.00017322,0.00
 014917,-0.00010224,0.00007869,-0.00017753,0.00009061,-0.00009523,0.000
 15277,0.00000712,-0.00011859,-0.00011090,-0.00016408,0.00007965,0.0012
 3171,0.00118165,0.00002435,-0.00009305,-0.00005432,-0.00000714,-0.0000
 5608,-0.00003362,-0.00452605,-0.00173919,-0.01230410,0.01060977,0.0041
 5193,0.02734283,0.01325653,0.04955356,-0.09228024,-0.01977333,-0.26160
 843,-0.00081420,-0.00011489,0.00427323,0.00149503,-0.00058020,0.000293
 32,0.00005019,0.00016341,-0.00007457,0.00001162,-0.00001024,-0.0000465
 1,0.00007714,-0.00010011,0.00001552,-0.00004516,0.00007889,0.00002158,
 0.00001558,-0.00002324,0.00004598,0.00010602,-0.00001964,-0.00027012,-
 0.00008190,-0.00006514,-0.00001911,0.00000774,-0.00000635,-0.00000994,
 -0.00720345,-0.00134298,-0.01906797,-0.00253819,-0.00146073,-0.0089019
 7,0.10184514,0.02385516,0.28494725,0.00551593,-0.02389151,0.00881342,-
 0.06202161,0.03976389,-0.01906457,-0.00677970,0.02972570,-0.01283524,-
 0.00305432,-0.00171537,-0.00341682,-0.00013486,0.00044133,-0.00040807,
 -0.00009995,-0.00024173,0.00036050,-0.00004929,0.00026063,-0.00005159,
 0.00021288,-0.00016711,0.00010197,0.00076495,0.00278175,0.00058415,0.0
 0011368,-0.00008154,0.00027822,0.00007803,0.00006446,0.00028251,0.0008
 1799,0.00103556,0.00028117,-0.00405701,-0.00328210,-0.00017070,0.00079
 449,0.00061210,-0.00055693,0.06848018,0.00404531,-0.01529297,0.0068349
 2,0.04456074,-0.27769694,0.09411746,0.00182878,-0.00610579,0.00415365,
 -0.00050541,0.00230658,0.00324059,-0.00038403,0.00040216,0.00005404,-0
 .00002894,-0.00000115,0.00006568,-0.00001873,0.00005537,-0.00001553,0.
 00018127,0.00007383,-0.00025071,-0.00078340,-0.00043015,-0.00327826,-0
 .00093431,-0.00010668,0.00020492,-0.00025103,-0.00025071,-0.00079146,-
 0.00041336,0.00038758,0.00027877,-0.00320865,-0.00083417,0.00011449,0.
 00022352,0.00047199,-0.00043895,-0.04532674,0.29696686,-0.00074920,0.0
 0119324,0.00185203,-0.02083114,0.09330464,-0.07606328,-0.00158696,0.01
 127020,0.00045705,-0.00279168,0.00174052,0.01072275,-0.00128951,0.0018
 4053,-0.00100781,-0.00013649,-0.00061282,0.00085453,-0.00015262,0.0004
 2891,-0.00014963,0.00049678,0.00042441,0.00033001,0.00221117,-0.002268
 28,-0.00570718,-0.00282195,-0.00138129,-0.00097212,0.00138103,0.000377
 93,0.00071208,-0.00050100,-0.00035638,0.00024593,0.00020670,-0.0002378
 5,0.00179038,0.00086051,0.00039753,0.00042547,0.02557990,-0.10449555,0
 .06818751,-0.00076742,0.00066262,-0.00044363,-0.00018260,-0.00030663,0
 .00016222,0.00983584,0.01044449,0.00573835,-0.12534702,-0.11594327,-0.
 03644223,-0.01438796,-0.02041271,-0.00840372,0.00048524,-0.00292943,0.
 00059367,-0.00018294,0.00160446,0.00031031,-0.00386612,0.00034970,0.00
 259624,-0.00198781,0.00232203,-0.00148680,0.00004646,-0.00009526,0.000
 14150,0.00018587,-0.00007170,0.00000369,0.00016095,-0.00041790,0.00025
 160,-0.00176378,0.00053849,-0.00009557,-0.00007919,0.00019784,-0.00006
 336,0.00027427,-0.00036930,-0.00059730,0.13705958,0.00022702,-0.000644
 35,-0.00013256,-0.00182008,0.00062711,0.00019863,-0.01518198,-0.018495
 63,-0.00658983,-0.11585233,-0.22047126,-0.05361524,0.00310773,0.003089
 61,0.00116358,-0.00000738,0.00061776,0.00016885,-0.00024372,-0.0000672
 6,-0.00011569,0.00138929,-0.00059505,-0.00007580,0.00181297,-0.0031744
 4,0.00240140,-0.00008856,0.00004963,-0.00050473,-0.00001179,-0.0000026
 2,-0.00010876,0.00005230,0.00050012,-0.00013966,0.00092865,0.00096247,
 -0.00025013,-0.00009931,0.00044362,-0.00015284,-0.00006434,0.00031866,
 0.00049483,0.12765935,0.23716882,-0.00013074,-0.00039096,-0.00006009,0
 .00047488,-0.00050779,0.00043974,0.00642986,0.00923269,0.00180474,-0.0
 3812951,-0.05616556,-0.06266304,0.00742790,0.01096623,0.00255002,-0.00
 047710,0.00015344,-0.00071035,0.00005729,0.00008214,0.00011563,0.00237
 007,0.00105433,-0.00060816,0.00026259,0.00197057,-0.00106673,0.0001141
 0,0.00024864,0.00060828,0.00002027,-0.00008547,0.00009013,0.00006757,0
 .00001161,-0.00002088,-0.00026495,0.00026529,0.00032186,-0.00008414,0.
 00014826,-0.00006098,0.00017944,-0.00009840,-0.00026355,0.03902094,0.0
 5699185,0.06634734,0.00027519,0.00000918,-0.00059745,0.00077027,0.0019
 4168,-0.00007948,-0.00406298,0.00196299,-0.01602069,-0.04672050,-0.004
 99227,-0.02658680,0.00159858,0.00224715,0.03181661,0.00174509,0.001473
 66,0.00296369,-0.00017283,-0.00091440,-0.00110846,0.00056126,0.0006703
 3,-0.00030821,-0.00029106,-0.00037493,-0.00053015,0.00024090,0.0001905
 9,0.00042959,0.00014262,-0.00008315,0.00003723,-0.00000656,-0.00003320
 ,0.00006426,0.00013957,-0.00020797,-0.00016310,-0.00015928,-0.00007366
 ,-0.00000851,-0.00062963,0.00057134,0.00125143,-0.00157954,-0.00030208
 ,-0.01778055,0.05422812,-0.00003065,0.00014897,0.00102583,-0.00134108,
 -0.00215462,0.00037528,0.00576527,-0.00030378,0.02943902,-0.00385781,-
 0.04631957,-0.00435436,0.00034250,-0.00096128,-0.00272375,-0.00021418,
 0.00009180,-0.00124227,0.00011677,0.00003935,0.00028011,-0.00014623,0.
 00022304,0.00021194,0.00040819,0.00043715,-0.00046365,-0.00012004,-0.0
 0009953,-0.00083018,-0.00003975,-0.00019908,-0.00028217,0.00002690,0.0
 0008852,-0.00003345,0.00026849,0.00021442,0.00002070,0.00017844,0.0003
 4365,-0.00004288,0.00100297,-0.00087918,-0.00209119,-0.00228630,-0.000
 36900,-0.02581818,-0.00118213,0.04881440,-0.00017781,0.00003006,-0.000
 30941,0.00179622,0.00076096,0.00046179,-0.00462841,0.00329866,-0.00873
 929,-0.02562306,-0.00902406,-0.28823258,0.00251077,-0.00287701,-0.0146
 8620,-0.00266050,0.00176484,-0.00060630,0.00060991,-0.00045412,0.00018
 874,-0.00020597,-0.00020914,0.00024265,-0.00037400,0.00022644,-0.00081
 791,0.00008498,-0.00029968,0.00050549,0.00015602,0.00008922,0.00026216
 ,-0.00002288,-0.00006917,-0.00000228,0.00005505,-0.00006402,-0.0000505
 2,-0.00004796,-0.00001835,0.00000592,-0.00032767,0.00022836,0.00032400
 ,-0.00085038,-0.00027043,-0.00779974,0.02600745,0.00612178,0.31830860,
 0.00005497,-0.00006308,-0.00003663,-0.00016849,0.00021962,-0.00050305,
 0.00106208,-0.00141539,0.00055681,-0.00037345,0.00867737,0.02984870,-0
 .04777083,-0.00331927,-0.01679543,-0.00230294,-0.00688177,-0.02384162,
 0.00138739,-0.00195107,0.00338369,-0.00202231,-0.00478632,-0.00939390,
 -0.00070833,0.00004046,-0.00006876,0.00011693,-0.00001633,-0.00004522,
 0.00020337,-0.00003332,-0.00009292,0.00002704,-0.00001192,0.00000574,0
 .00000653,0.00002342,0.00005466,-0.00005326,0.00002957,-0.00001521,-0.
 00009566,0.00005286,0.00001619,0.00182320,-0.00028533,-0.00054338,-0.0
 0545103,0.00114879,0.00248744,0.05521596,0.00004496,0.00000673,-0.0000
 3669,0.00017829,0.00021546,0.00013129,-0.00002861,-0.00015499,-0.00014
 235,-0.00083547,0.00035106,0.00183250,-0.00445577,-0.07475476,-0.08177
 393,0.00252429,0.00580278,0.02109341,-0.00245698,0.00126222,-0.0017760
 3,-0.00461100,-0.01088531,-0.02740942,-0.00138448,-0.00036674,-0.00021
 291,0.00001376,0.00009749,0.00015701,0.00062957,-0.00019401,-0.0001425
 3,0.00000494,-0.00001791,0.00001636,-0.00000139,-0.00000953,0.00000862
 ,0.00002347,-0.00000040,-0.00000054,-0.00002232,-0.00000785,0.00000875
 ,0.00035600,0.00045203,0.00046252,-0.00060599,0.00078141,0.00078508,0.
 00767226,0.08239863,-0.00005105,0.00001628,0.00009333,0.00028159,-0.00
 028891,0.00023676,-0.00045120,0.00053091,0.00020411,0.00005014,-0.0029
 1950,-0.01178215,-0.01912802,-0.07890455,-0.28189332,-0.00098239,-0.00
 761498,-0.02033376,0.00180495,0.00021897,0.00456988,0.00030337,0.00189
 726,0.00217837,0.00024133,-0.00021203,-0.00018484,0.00008560,-0.000083
 66,0.00010257,-0.00015519,0.00007359,0.00005124,-0.00001610,0.00001151
 ,-0.00000778,-0.00000272,-0.00001073,-0.00004401,0.00005687,-0.0000042
 2,0.00001743,0.00005997,-0.00002829,-0.00001836,-0.00008086,0.00041204
 ,0.00075850,0.00217605,-0.00009128,-0.00011918,0.01811458,0.08492380,0
 .30530977,-0.00001303,0.00000777,-0.00001532,-0.00000534,-0.00020752,0
 .00005053,0.00073487,0.00019565,0.00001934,0.00275590,-0.00189059,-0.0
 0026125,0.00633167,0.00205739,-0.02213501,-0.06876680,-0.00708587,-0.0
 3790463,0.01565891,0.01525619,0.02102043,-0.00111164,0.00026153,-0.000
 49073,0.00032258,0.00035324,0.00022440,-0.00011294,-0.00000654,-0.0000
 8648,-0.00008388,0.00008590,0.00011505,-0.00000670,-0.00000894,0.00000
 617,-0.00000629,-0.00000241,-0.00000510,0.00000318,-0.00000483,0.00000
 021,0.00005327,-0.00002012,0.00004748,-0.00006092,-0.00003443,0.000068
 46,-0.00032577,0.00002289,0.00088222,-0.00164977,0.00302368,-0.0023137
 9,0.04602624,0.00001484,-0.00001531,-0.00000030,-0.00010225,-0.0000735
 7,-0.00008513,0.00028543,-0.00008447,-0.00031649,0.00002521,-0.0004895
 6,0.00082351,0.00980844,0.00843671,0.01420626,-0.00986153,-0.06209441,
 -0.03099216,0.01047783,-0.01382924,-0.04355508,-0.00043578,0.00287014,
 0.00020844,0.00022938,0.00049009,-0.00022908,-0.00005293,-0.00002593,-
 0.00005946,-0.00005940,0.00002896,0.00004932,0.00000604,0.00000981,-0.
 00000382,0.00000304,0.00000283,-0.00000259,0.00000075,0.00001660,0.000
 00078,-0.00001145,0.00001411,0.00005319,-0.00010658,0.00000092,0.00000
 199,-0.00012767,-0.00006714,-0.00048716,0.00288746,-0.00140151,0.00167
 953,-0.01241852,0.06599053,-0.00003844,0.00004666,0.00007855,0.0000905
 2,0.00013113,0.00001309,-0.00053991,0.00001999,0.00086968,0.00019085,0
 .00057032,-0.00073606,-0.00437636,-0.00844209,-0.01553041,-0.04279411,
 -0.02389067,-0.23454516,0.01035180,-0.02977703,-0.01523271,-0.00013095
 ,-0.00169955,0.00007398,0.00006844,0.00009382,0.00005918,-0.00004389,0
 .00009030,0.00010802,-0.00004836,0.00011124,0.00020609,-0.00004482,0.0
 0000991,0.00000020,0.00002359,0.00000780,-0.00001690,0.00001722,-0.000
 01828,0.00000356,-0.00001718,-0.00003693,-0.00021315,0.00000329,0.0000
 3890,0.00019647,-0.00107202,0.00025057,0.00090263,-0.00248510,0.001878
 25,-0.00123324,0.04008786,0.05923115,0.26455434,-0.00018140,0.00010647
 ,-0.00014464,-0.00038837,-0.00077490,0.00002481,-0.00255435,0.00121401
 ,-0.00005414,-0.00099364,-0.00110199,-0.00029919,-0.00396680,-0.002152
 06,0.00522924,-0.00026564,-0.00014749,-0.00091151,-0.00005488,-0.00007
 672,0.00036591,-0.13288275,-0.03455363,0.12195263,-0.01209600,-0.00676
 664,0.02034179,-0.00200112,0.00034444,-0.00131094,-0.00036737,0.000720
 81,0.00088929,-0.00005371,-0.00002749,0.00000130,0.00002754,0.00002924
 ,0.00000615,-0.00010966,-0.00003183,-0.00002529,-0.00004107,0.00004852
 ,-0.00001593,-0.00033216,-0.00007170,0.00034236,-0.00002555,-0.0000176
 0,0.00009233,0.00058043,0.00019581,-0.00011050,0.00009733,0.00000949,0
 .00017017,0.14350622,0.00006093,-0.00017791,0.00011776,0.00016517,0.00
 076938,-0.00016800,0.00127883,-0.00166033,0.00019565,-0.00097858,-0.00
 514108,-0.00055293,-0.01598433,-0.00885269,0.02447461,-0.00342637,0.00
 053282,-0.00030161,0.00144140,-0.00073688,-0.00060403,-0.03536059,-0.0
 5970915,0.05077414,0.00934390,0.00419685,-0.01516580,0.00165201,-0.000
 04190,0.00051217,0.00127104,-0.00162148,-0.00079124,0.00001185,0.00005
 262,-0.00001799,0.00002899,0.00008867,-0.00003114,0.00003598,0.0000380
 8,-0.00000384,-0.00008897,0.00000673,-0.00003090,-0.00132751,0.0002649
 4,0.00056944,0.00005981,0.00006170,0.00008814,0.00041190,0.00192699,-0
 .00028070,-0.00005452,0.00016585,0.00009944,0.03848086,0.06775672,-0.0
 0001947,-0.00001328,-0.00002382,-0.00011483,-0.00009685,-0.00002146,-0
 .00093597,-0.00004186,0.00008444,-0.00063212,-0.00064262,0.00068823,-0
 .00287804,-0.00258884,0.00244030,0.00017169,-0.00004207,-0.00058761,-0
 .00036792,0.00026524,0.00028324,0.12424253,0.05114163,-0.21653812,-0.0
 0338406,0.00068588,0.00100807,0.00029510,-0.00052850,0.00008925,0.0003
 7673,-0.00037815,0.00007895,0.00000504,0.00000724,-0.00000390,-0.00000
 198,0.00001067,-0.00000117,-0.00000297,0.00000789,-0.00000077,0.000001
 30,0.00001354,-0.00001438,-0.00011482,-0.00007872,0.00011977,-0.000256
 89,-0.00006775,0.00019526,-0.00028820,0.00019812,0.00127928,0.00019083
 ,0.00003427,0.00023424,-0.13182827,-0.05421195,0.23058562,-0.00006520,
 -0.00005729,-0.00048981,-0.00046722,-0.00067076,0.00039824,-0.00225082
 ,0.00226255,0.00090681,-0.00003603,0.00001116,-0.00035778,-0.00325101,
 -0.00169917,-0.00603396,0.00003203,0.00162725,-0.00049016,0.00004219,-
 0.00028289,0.00020750,-0.11604340,-0.02456757,-0.11137362,-0.01627633,
 -0.00294075,-0.02289230,0.00039626,-0.00049884,-0.00103926,0.00200879,
 -0.00070578,0.00026913,0.00000557,0.00001658,0.00002206,-0.00000403,-0
 .00002659,0.00000684,-0.00012856,-0.00009909,0.00000922,0.00000078,0.0
 0000124,0.00013937,0.00000318,-0.00010848,0.00032410,-0.00017929,-0.00
 023225,0.00030521,-0.00003217,-0.00048929,0.00013378,0.00018122,-0.000
 45175,0.00054764,0.01059098,0.00351693,0.01561187,0.12773848,-0.000009
 68,0.00005947,0.00022953,0.00028234,0.00030095,-0.00016229,0.00040055,
 -0.00181428,-0.00003224,0.00024346,-0.00003437,-0.00016215,-0.01431286
 ,-0.00720213,-0.02760840,-0.00022398,0.00033636,-0.00397096,-0.0003986
 4,0.00038399,0.00137784,-0.02567308,-0.05294926,-0.03788615,0.01059145
 ,0.00229306,0.01670074,0.00087709,-0.00044488,-0.00024492,-0.00103372,
 0.00043103,-0.00018619,-0.00001184,-0.00001537,-0.00000270,0.00003691,
 0.00003778,-0.00000198,0.00006010,0.00005887,-0.00000783,0.00000745,0.
 00001592,-0.00017188,-0.00013032,0.00002859,0.00042913,-0.00034082,0.0
 0013924,0.00036151,-0.00236556,-0.00513071,0.00073083,0.00046334,-0.00
 005615,0.00131579,0.00455044,0.00165498,0.00675796,0.02505939,0.062882
 36,0.00000583,0.00002131,0.00007675,0.00008357,0.00003240,0.00006566,0
 .00008905,-0.00015120,-0.00057886,-0.00007787,0.00020372,-0.00015091,0
 .00183002,-0.00347868,0.00063841,-0.00170716,0.00252001,0.00083933,0.0
 0058277,-0.00093636,-0.00043235,-0.11132188,-0.03661938,-0.22434595,-0
 .00001229,0.00241395,0.00089895,0.00141337,-0.00182539,-0.00003168,0.0
 0036463,-0.00023499,-0.00021860,-0.00002283,-0.00000639,0.00000121,0.0
 0000519,-0.00000033,-0.00000403,0.00001998,0.00001129,0.00000107,0.000
 01816,-0.00002822,-0.00002689,-0.00004521,-0.00003997,0.00002440,-0.00
 007291,0.00008779,0.00012109,-0.00038248,0.00002821,0.00082023,0.00053
 310,-0.00059951,0.00031470,-0.01411951,-0.00447098,-0.02082177,0.12326
 919,0.04332411,0.24258298,-0.00007270,0.00019008,-0.00065864,0.0022449
 7,-0.00116177,0.00048182,0.00171690,-0.01816406,0.01719581,-0.00403334
 ,-0.00219488,-0.00002596,-0.00161970,0.00138804,-0.00094567,0.00075650
 ,0.00052783,0.00016242,-0.00052254,0.00014998,0.00008975,-0.00279382,0
 .01530865,-0.01778499,-0.05297071,0.01434422,-0.01666344,0.00189044,0.
 00446570,-0.00369216,0.00139150,-0.00179410,0.00152063,0.00002448,-0.0
 0003139,0.00005296,0.00007730,0.00008071,0.00002216,-0.00018531,-0.000
 12213,-0.00001305,-0.00032437,0.00081883,-0.00017717,0.00067539,-0.000
 94622,0.00030631,0.00001977,0.00005860,0.00005513,0.00012954,0.0002234
 6,-0.00000935,-0.00001726,-0.00013256,0.00006506,0.00147959,-0.0004124
 0,0.00001489,-0.00225762,0.00195230,-0.00048778,0.05469038,-0.00037357
 ,0.00008024,-0.00067660,0.00210975,0.00012046,-0.00049025,0.00087412,-
 0.01238974,0.01361593,-0.00200096,-0.00223514,-0.00019207,0.00003706,-
 0.00080999,0.00061382,-0.00031270,-0.00025036,-0.00037073,0.00029602,-
 0.00019963,0.00004986,0.00062301,-0.00574153,0.00909924,0.01607967,-0.
 16581711,0.13530835,-0.00065395,0.00963230,-0.02417532,-0.00279811,0.0
 0283153,0.00026694,0.00002853,-0.00002606,0.00002899,0.00013214,0.0000
 9311,-0.00001303,-0.00016841,-0.00016597,0.00000517,-0.00084004,0.0007
 6624,0.00037871,0.00032145,-0.00072262,0.00043154,0.00006801,0.0000960
 7,0.00013135,0.00005011,-0.00022536,-0.00009346,-0.00000816,0.00008220
 ,-0.00000974,0.00000268,0.00057196,-0.00037869,0.00074429,-0.00113849,
 -0.00017444,-0.01439957,0.17571857,0.00018533,-0.00005929,0.00015002,-
 0.00015006,-0.00076884,0.00048176,-0.00289059,0.00229779,0.00145678,0.
 00061759,-0.00010361,0.00031249,0.00012718,-0.00055488,0.00004047,-0.0
 0011882,-0.00015459,-0.00000384,0.00012529,0.00002922,-0.00001983,0.00
 196171,-0.00207461,0.00457400,-0.01355836,0.12932975,-0.18104552,-0.00
 615570,0.00545448,-0.04432270,-0.00108430,0.00189334,0.00434777,-0.000
 02520,-0.00003116,0.00000422,-0.00007302,-0.00005603,0.00002053,0.0000
 0230,0.00002049,-0.00001076,0.00055656,-0.00013248,-0.00016973,-0.0001
 4326,0.00008754,-0.00008582,0.00005022,-0.00014064,0.00005405,-0.00001
 353,-0.00001117,0.00001875,-0.00001335,0.00003075,-0.00000653,-0.00048
 584,-0.00025694,0.00091341,0.00069798,-0.00079714,0.00021019,0.0206272
 0,-0.13359810,0.21312356,-0.00021482,-0.00021428,-0.00027328,-0.001029
 52,0.00051207,0.00078525,0.00188089,0.00044197,0.00123557,-0.00010409,
 -0.00010015,0.00005046,-0.00000623,-0.00002538,0.00012113,-0.00010065,
 0.00005457,0.00006697,0.00006383,-0.00007607,-0.00005351,0.00013207,0.
 00040251,-0.00030238,-0.00029697,-0.00005714,0.00137552,-0.03672508,-0
 .00451146,0.00880100,-0.25072778,-0.17155633,0.11836105,-0.00012126,-0
 .00018009,-0.00005790,-0.00001932,0.00004410,0.00002095,-0.00006390,-0
 .00005913,0.00002760,0.00018101,-0.00008838,-0.00053961,-0.00001250,-0
 .00005958,-0.00005577,-0.00011736,0.00012820,-0.00012407,0.00002080,0.
 00000081,-0.00000708,-0.00000484,0.00001250,-0.00002530,0.00003237,-0.
 00012633,-0.00008444,-0.00000779,-0.00002432,0.00003506,-0.00029941,0.
 00018864,-0.00023933,0.28754055,-0.00024776,-0.00038261,0.00006877,-0.
 00294993,0.00089056,0.00061150,0.00178375,-0.00054606,0.00164089,0.000
 10618,-0.00040642,-0.00004486,0.00027051,0.00006409,-0.00032651,-0.000
 04094,-0.00021535,0.00005224,-0.00002408,0.00013284,0.00000242,-0.0002
 0331,-0.00097522,-0.00060237,0.00513746,0.00279266,0.00136279,0.038458
 46,0.00782384,-0.01646493,-0.21723762,-0.21722630,0.11991189,0.0000976
 3,0.00005561,-0.00019275,0.00001047,0.00000666,-0.00003223,0.00013305,
 0.00011980,0.00004032,0.00003735,-0.00018044,-0.00026724,-0.00005951,0
 .00001793,0.00004672,0.00004354,-0.00012655,-0.00011328,-0.00008445,-0
 .00014573,0.00003758,0.00001485,0.00002854,-0.00002097,0.00001929,-0.0
 0014689,-0.00005312,-0.00040889,0.00016305,-0.00007694,-0.00014933,-0.
 00027068,-0.00040388,0.17529328,0.20852665,-0.00055204,0.00005532,0.00
 004511,-0.00109902,0.00003358,0.00040082,0.00084435,-0.00064258,0.0009
 9673,0.00003744,-0.00020061,0.00014535,-0.00007542,0.00013862,-0.00034
 312,0.00022996,-0.00033887,0.00039013,-0.00018426,0.00026741,-0.000070
 98,-0.00006936,-0.00047619,-0.00012935,0.00453544,0.00145607,-0.000886
 74,-0.00390131,-0.00225388,0.00058360,0.12988547,0.10584932,-0.0682428
 6,0.00013047,-0.00006365,-0.00003475,0.00009576,0.00021765,-0.00001270
 ,0.00015585,0.00006019,0.00002079,-0.00024848,0.00028836,-0.00129566,-
 0.00005465,0.00011674,-0.00003755,-0.00021131,0.00036872,-0.00020899,0
 .00003763,-0.00001836,-0.00002356,-0.00002043,0.00001159,-0.00010058,-
 0.00011023,0.00005668,0.00001296,-0.00017205,0.00000739,0.00001609,-0.
 00013593,0.00024253,-0.00004324,-0.12911787,-0.10517602,0.06881852\\-0
 .00000754,-0.00000065,0.00001050,-0.00001950,0.00000242,-0.00001445,0.
 00001945,-0.00002166,0.00001112,-0.00000446,0.00000107,-0.00001069,-0.
 00002169,-0.00001981,0.00000440,-0.00000192,0.00000847,0.00001056,0.00
 000677,-0.00001005,-0.00000075,0.00000903,0.00001635,-0.00000371,0.000
 00983,0.00004290,0.00005792,0.00001121,-0.00003342,-0.00004499,-0.0000
 0915,0.00001764,0.00000115,0.00000216,-0.00000253,-0.00000216,0.000002
 36,0.00000186,-0.00000082,0.00000214,0.00000132,-0.00000260,0.00000119
 ,0.00000061,0.00000031,0.00000614,0.00000458,-0.00000264,0.00000162,0.
 00000432,0.00000100,0.00000189,0.00000277,-0.00000300,0.00000024,0.000
 00159,-0.00000489,-0.00000664,0.00000223,-0.00000176,0.00000182,-0.000
 00596,0.00000262,0.00000064,-0.00000945,-0.00000768,-0.00000558,-0.000
 00462,0.00000057\\\@


 MYSTERY IS THE WISDOM OF BLOCKHEADS... HORACE WALPOLE 
 Job cpu time:       0 days  3 hours 28 minutes 54.8 seconds.
 Elapsed time:       0 days  0 hours 52 minutes 15.0 seconds.
 File lengths (MBytes):  RWF=    238 Int=      0 D2E=      0 Chk=     12 Scr=      1
 Normal termination of Gaussian 16 at Sat May 27 21:45:11 2023.
### All Done ###
