### Starting Gaussian ###
 Entering Gaussian System, Link 0=g16
 Initial command:
 /cluster/software/gaussian/gaussian-16-A.03/avx2/g16/l1.exe "/local/scratch/ks29c/Gau-23405.inp" -scrdir="/local/scratch/ks29c/"
 Entering Link 1 = /cluster/software/gaussian/gaussian-16-A.03/avx2/g16/l1.exe PID=     23406.
  
 Copyright (c) 1988,1990,1992,1993,1995,1998,2003,2009,2016,
            Gaussian, Inc.  All Rights Reserved.
  
 This is part of the Gaussian(R) 16 program.  It is based on
 the Gaussian(R) 09 system (copyright 2009, Gaussian, Inc.),
 the Gaussian(R) 03 system (copyright 2003, Gaussian, Inc.),
 the Gaussian(R) 98 system (copyright 1998, Gaussian, Inc.),
 the Gaussian(R) 94 system (copyright 1995, Gaussian, Inc.),
 the Gaussian 92(TM) system (copyright 1992, Gaussian, Inc.),
 the Gaussian 90(TM) system (copyright 1990, Gaussian, Inc.),
 the Gaussian 88(TM) system (copyright 1988, Gaussian, Inc.),
 the Gaussian 86(TM) system (copyright 1986, Carnegie Mellon
 University), and the Gaussian 82(TM) system (copyright 1983,
 Carnegie Mellon University). Gaussian is a federally registered
 trademark of Gaussian, Inc.
  
 This software contains proprietary and confidential information,
 including trade secrets, belonging to Gaussian, Inc.
  
 This software is provided under written license and may be
 used, copied, transmitted, or stored only in accord with that
 written license.
  
 The following legend is applicable only to US Government
 contracts under FAR:
  
                    RESTRICTED RIGHTS LEGEND
  
 Use, reproduction and disclosure by the US Government is
 subject to restrictions as set forth in subparagraphs (a)
 and (c) of the Commercial Computer Software - Restricted
 Rights clause in FAR 52.227-19.
  
 Gaussian, Inc.
 340 Quinnipiac St., Bldg. 40, Wallingford CT 06492
  
  
 ---------------------------------------------------------------
 Warning -- This program may not be used in any manner that
 competes with the business of Gaussian, Inc. or will provide
 assistance to any competitor of Gaussian, Inc.  The licensee
 of this program is prohibited from giving any competitor of
 Gaussian, Inc. access to this program.  By using this program,
 the user acknowledges that Gaussian, Inc. is engaged in the
 business of creating and licensing software in the field of
 computational chemistry and represents and warrants to the
 licensee that it is not a competitor of Gaussian, Inc. and that
 it will not use this program in any manner prohibited above.
 ---------------------------------------------------------------
  

 Cite this work as:
 Gaussian 16, Revision A.03,
 M. J. Frisch, G. W. Trucks, H. B. Schlegel, G. E. Scuseria, 
 M. A. Robb, J. R. Cheeseman, G. Scalmani, V. Barone, 
 G. A. Petersson, H. Nakatsuji, X. Li, M. Caricato, A. V. Marenich, 
 J. Bloino, B. G. Janesko, R. Gomperts, B. Mennucci, H. P. Hratchian, 
 J. V. Ortiz, A. F. Izmaylov, J. L. Sonnenberg, D. Williams-Young, 
 F. Ding, F. Lipparini, F. Egidi, J. Goings, B. Peng, A. Petrone, 
 T. Henderson, D. Ranasinghe, V. G. Zakrzewski, J. Gao, N. Rega, 
 G. Zheng, W. Liang, M. Hada, M. Ehara, K. Toyota, R. Fukuda, 
 J. Hasegawa, M. Ishida, T. Nakajima, Y. Honda, O. Kitao, H. Nakai, 
 T. Vreven, K. Throssell, J. A. Montgomery, Jr., J. E. Peralta, 
 F. Ogliaro, M. J. Bearpark, J. J. Heyd, E. N. Brothers, K. N. Kudin, 
 V. N. Staroverov, T. A. Keith, R. Kobayashi, J. Normand, 
 K. Raghavachari, A. P. Rendell, J. C. Burant, S. S. Iyengar, 
 J. Tomasi, M. Cossi, J. M. Millam, M. Klene, C. Adamo, R. Cammi, 
 J. W. Ochterski, R. L. Martin, K. Morokuma, O. Farkas, 
 J. B. Foresman, and D. J. Fox, Gaussian, Inc., Wallingford CT, 2016.
 
 ******************************************
 Gaussian 16:  ES64L-G16RevA.03 25-Dec-2016
                23-May-2023 
 ******************************************
 %chk=CCdCCCqCCCrCqCrCCOC.chk
 %NProcShared=20
 Will use up to   20 processors via shared memory.
 -----------------------------
 # opt freq b3lyp/6-31g(2df,p)
 -----------------------------
 1/18=20,19=15,26=3,38=1/1,3;
 2/9=110,12=2,17=6,18=5,40=1/2;
 3/5=1,6=6,7=104,11=2,25=1,30=1,71=1,74=-5/1,2,3;
 4//1;
 5/5=2,38=5/2;
 6/7=2,8=2,9=2,10=2,28=1/1;
 7//1,2,3,16;
 1/18=20,19=15,26=3/3(2);
 2/9=110/2;
 99//99;
 2/9=110/2;
 3/5=1,6=6,7=104,11=2,25=1,30=1,71=1,74=-5/1,2,3;
 4/5=5,16=3,69=1/1;
 5/5=2,38=5/2;
 7//1,2,3,16;
 1/18=20,19=15,26=3/3(-5);
 2/9=110/2;
 6/7=2,8=2,9=2,10=2,19=2,28=1/1;
 99/9=1/99;
 -------------------
 Title Card Required
 -------------------
 Symbolic Z-matrix:
 Charge =  0 Multiplicity = 1
 C                     0.91592   0.05246  -0.09425 
 C                     2.40527   0.0905   -0.12221 
 C                     3.11607  -0.43927   0.88645 
 C                     4.59075  -0.67654   0.84707 
 C                     5.11626  -1.68243   1.91439 
 C                     4.60728  -3.13658   1.67467 
 C                     3.09053  -3.28145   1.67156 
 C                     2.61031  -4.69802   1.48206 
 C                     6.67943  -1.65493   1.95651 
 C                     7.21139  -0.22654   2.17633 
 C                     7.238    -2.59004   3.05253 
 C                     8.75663  -2.61746   3.05808 
 O                     9.21559  -3.50682   4.06945 
 C                     10.63739  -3.49873   4.09609 
 H                     0.50718   0.69772  -0.87456 
 H                     0.52605   0.38289   0.87328 
 H                     0.5696   -0.97091  -0.28198 
 H                     2.90591   0.50166  -0.99178 
 H                     2.57232  -0.80477   1.75159 
 H                     5.02278   0.31228   1.00038 
 H                     4.90479  -1.02848  -0.14496 
 H                     4.75252  -1.35559   2.89901 
 H                     4.97301  -3.79662   2.46745 
 H                     5.01916  -3.51486   0.73116 
 H                     2.66917  -2.74548   0.82326 
 H                     2.68173  -2.87427   2.60426 
 H                     2.95267  -5.07758   0.51528 
 H                     1.51527  -4.69638   1.47814 
 H                     2.96285  -5.35331   2.27981 
 H                     7.0527   -2.00799   0.98492 
 H                     6.86047   0.16897   3.13513 
 H                     6.9133    0.46038   1.38338 
 H                     8.30212  -0.18408   2.16146 
 H                     6.90836  -3.62374   2.90849 
 H                     6.85967  -2.29157   4.0387 
 H                     9.16279  -1.6271    3.27325 
 H                     9.11892  -2.95658   2.08053 
 H                     10.9757  -4.1598    4.89498 
 H                     11.00774  -2.48656   4.29153 
 H                     11.02815  -3.85881   3.13944 
 

 GradGradGradGradGradGradGradGradGradGradGradGradGradGradGradGradGradGrad
 Berny optimization.
 Initialization pass.
                           ----------------------------
                           !    Initial Parameters    !
                           ! (Angstroms and Degrees)  !
 --------------------------                            --------------------------
 ! Name  Definition              Value          Derivative Info.                !
 --------------------------------------------------------------------------------
 ! R1    R(1,2)                  1.4901         estimate D2E/DX2                !
 ! R2    R(1,15)                 1.0919         estimate D2E/DX2                !
 ! R3    R(1,16)                 1.0942         estimate D2E/DX2                !
 ! R4    R(1,17)                 1.0966         estimate D2E/DX2                !
 ! R5    R(2,3)                  1.3429         estimate D2E/DX2                !
 ! R6    R(2,18)                 1.0844         estimate D2E/DX2                !
 ! R7    R(3,4)                  1.4942         estimate D2E/DX2                !
 ! R8    R(3,19)                 1.0852         estimate D2E/DX2                !
 ! R9    R(4,5)                  1.5579         estimate D2E/DX2                !
 ! R10   R(4,20)                 1.0899         estimate D2E/DX2                !
 ! R11   R(4,21)                 1.0985         estimate D2E/DX2                !
 ! R12   R(5,6)                  1.5592         estimate D2E/DX2                !
 ! R13   R(5,9)                  1.564          estimate D2E/DX2                !
 ! R14   R(5,22)                 1.0994         estimate D2E/DX2                !
 ! R15   R(6,7)                  1.5237         estimate D2E/DX2                !
 ! R16   R(6,23)                 1.0945         estimate D2E/DX2                !
 ! R17   R(6,24)                 1.0968         estimate D2E/DX2                !
 ! R18   R(7,8)                  1.5077         estimate D2E/DX2                !
 ! R19   R(7,25)                 1.0883         estimate D2E/DX2                !
 ! R20   R(7,26)                 1.0967         estimate D2E/DX2                !
 ! R21   R(8,27)                 1.0936         estimate D2E/DX2                !
 ! R22   R(8,28)                 1.095          estimate D2E/DX2                !
 ! R23   R(8,29)                 1.0909         estimate D2E/DX2                !
 ! R24   R(9,10)                 1.54           estimate D2E/DX2                !
 ! R25   R(9,11)                 1.5452         estimate D2E/DX2                !
 ! R26   R(9,30)                 1.0991         estimate D2E/DX2                !
 ! R27   R(10,31)                1.0949         estimate D2E/DX2                !
 ! R28   R(10,32)                1.0906         estimate D2E/DX2                !
 ! R29   R(10,33)                1.0917         estimate D2E/DX2                !
 ! R30   R(11,12)                1.5189         estimate D2E/DX2                !
 ! R31   R(11,34)                1.0945         estimate D2E/DX2                !
 ! R32   R(11,35)                1.0976         estimate D2E/DX2                !
 ! R33   R(12,13)                1.4228         estimate D2E/DX2                !
 ! R34   R(12,36)                1.0918         estimate D2E/DX2                !
 ! R35   R(12,37)                1.0963         estimate D2E/DX2                !
 ! R36   R(13,14)                1.4221         estimate D2E/DX2                !
 ! R37   R(14,38)                1.0907         estimate D2E/DX2                !
 ! R38   R(14,39)                1.0954         estimate D2E/DX2                !
 ! R39   R(14,40)                1.0943         estimate D2E/DX2                !
 ! A1    A(2,1,15)             110.2212         estimate D2E/DX2                !
 ! A2    A(2,1,16)             111.408          estimate D2E/DX2                !
 ! A3    A(2,1,17)             109.6501         estimate D2E/DX2                !
 ! A4    A(15,1,16)            108.6664         estimate D2E/DX2                !
 ! A5    A(15,1,17)            108.1151         estimate D2E/DX2                !
 ! A6    A(16,1,17)            108.7035         estimate D2E/DX2                !
 ! A7    A(1,2,3)              120.3237         estimate D2E/DX2                !
 ! A8    A(1,2,18)             119.0901         estimate D2E/DX2                !
 ! A9    A(3,2,18)             120.5005         estimate D2E/DX2                !
 ! A10   A(2,3,4)              124.4206         estimate D2E/DX2                !
 ! A11   A(2,3,19)             117.8041         estimate D2E/DX2                !
 ! A12   A(4,3,19)             117.5189         estimate D2E/DX2                !
 ! A13   A(3,4,5)              114.6697         estimate D2E/DX2                !
 ! A14   A(3,4,20)             104.0899         estimate D2E/DX2                !
 ! A15   A(3,4,21)             110.9065         estimate D2E/DX2                !
 ! A16   A(5,4,20)             110.8361         estimate D2E/DX2                !
 ! A17   A(5,4,21)             108.3856         estimate D2E/DX2                !
 ! A18   A(20,4,21)            107.7212         estimate D2E/DX2                !
 ! A19   A(4,5,6)              112.7505         estimate D2E/DX2                !
 ! A20   A(4,5,9)              110.1352         estimate D2E/DX2                !
 ! A21   A(4,5,22)             108.0607         estimate D2E/DX2                !
 ! A22   A(6,5,9)              110.2923         estimate D2E/DX2                !
 ! A23   A(6,5,22)             107.8763         estimate D2E/DX2                !
 ! A24   A(9,5,22)             107.5384         estimate D2E/DX2                !
 ! A25   A(5,6,7)              114.4531         estimate D2E/DX2                !
 ! A26   A(5,6,23)             109.9978         estimate D2E/DX2                !
 ! A27   A(5,6,24)             109.3497         estimate D2E/DX2                !
 ! A28   A(7,6,23)             106.0681         estimate D2E/DX2                !
 ! A29   A(7,6,24)             109.8331         estimate D2E/DX2                !
 ! A30   A(23,6,24)            106.8357         estimate D2E/DX2                !
 ! A31   A(6,7,8)              113.9949         estimate D2E/DX2                !
 ! A32   A(6,7,25)             109.8878         estimate D2E/DX2                !
 ! A33   A(6,7,26)             109.5127         estimate D2E/DX2                !
 ! A34   A(8,7,25)             103.9705         estimate D2E/DX2                !
 ! A35   A(8,7,26)             109.6934         estimate D2E/DX2                !
 ! A36   A(25,7,26)            109.6167         estimate D2E/DX2                !
 ! A37   A(7,8,27)             109.7244         estimate D2E/DX2                !
 ! A38   A(7,8,28)             108.5148         estimate D2E/DX2                !
 ! A39   A(7,8,29)             111.6865         estimate D2E/DX2                !
 ! A40   A(27,8,28)            108.0841         estimate D2E/DX2                !
 ! A41   A(27,8,29)            109.6833         estimate D2E/DX2                !
 ! A42   A(28,8,29)            109.0671         estimate D2E/DX2                !
 ! A43   A(5,9,10)             111.4324         estimate D2E/DX2                !
 ! A44   A(5,9,11)             111.7007         estimate D2E/DX2                !
 ! A45   A(5,9,30)             108.0586         estimate D2E/DX2                !
 ! A46   A(10,9,11)            109.5843         estimate D2E/DX2                !
 ! A47   A(10,9,30)            107.8677         estimate D2E/DX2                !
 ! A48   A(11,9,30)            108.0507         estimate D2E/DX2                !
 ! A49   A(9,10,31)            110.4461         estimate D2E/DX2                !
 ! A50   A(9,10,32)            112.7056         estimate D2E/DX2                !
 ! A51   A(9,10,33)            112.2883         estimate D2E/DX2                !
 ! A52   A(31,10,32)           108.757          estimate D2E/DX2                !
 ! A53   A(31,10,33)           108.5482         estimate D2E/DX2                !
 ! A54   A(32,10,33)           103.8089         estimate D2E/DX2                !
 ! A55   A(9,11,12)            112.0205         estimate D2E/DX2                !
 ! A56   A(9,11,34)            111.6742         estimate D2E/DX2                !
 ! A57   A(9,11,35)            110.3727         estimate D2E/DX2                !
 ! A58   A(12,11,34)           106.5324         estimate D2E/DX2                !
 ! A59   A(12,11,35)           110.2583         estimate D2E/DX2                !
 ! A60   A(34,11,35)           105.7386         estimate D2E/DX2                !
 ! A61   A(11,12,13)           109.6572         estimate D2E/DX2                !
 ! A62   A(11,12,36)           110.8721         estimate D2E/DX2                !
 ! A63   A(11,12,37)           109.435          estimate D2E/DX2                !
 ! A64   A(13,12,36)           107.8722         estimate D2E/DX2                !
 ! A65   A(13,12,37)           109.5039         estimate D2E/DX2                !
 ! A66   A(36,12,37)           109.4741         estimate D2E/DX2                !
 ! A67   A(12,13,14)           109.4063         estimate D2E/DX2                !
 ! A68   A(13,14,38)           108.686          estimate D2E/DX2                !
 ! A69   A(13,14,39)           110.2818         estimate D2E/DX2                !
 ! A70   A(13,14,40)           109.8016         estimate D2E/DX2                !
 ! A71   A(38,14,39)           108.9347         estimate D2E/DX2                !
 ! A72   A(38,14,40)           109.2755         estimate D2E/DX2                !
 ! A73   A(39,14,40)           109.8341         estimate D2E/DX2                !
 ! D1    D(15,1,2,3)           168.4279         estimate D2E/DX2                !
 ! D2    D(15,1,2,18)          -14.9197         estimate D2E/DX2                !
 ! D3    D(16,1,2,3)            47.7128         estimate D2E/DX2                !
 ! D4    D(16,1,2,18)         -135.6348         estimate D2E/DX2                !
 ! D5    D(17,1,2,3)           -72.6667         estimate D2E/DX2                !
 ! D6    D(17,1,2,18)          103.9857         estimate D2E/DX2                !
 ! D7    D(1,2,3,4)            168.4013         estimate D2E/DX2                !
 ! D8    D(1,2,3,19)            -5.6235         estimate D2E/DX2                !
 ! D9    D(18,2,3,4)            -8.2035         estimate D2E/DX2                !
 ! D10   D(18,2,3,19)          177.7717         estimate D2E/DX2                !
 ! D11   D(2,3,4,5)           -161.7504         estimate D2E/DX2                !
 ! D12   D(2,3,4,20)            76.9947         estimate D2E/DX2                !
 ! D13   D(2,3,4,21)           -38.5886         estimate D2E/DX2                !
 ! D14   D(19,3,4,5)            12.29           estimate D2E/DX2                !
 ! D15   D(19,3,4,20)         -108.9649         estimate D2E/DX2                !
 ! D16   D(19,3,4,21)          135.4518         estimate D2E/DX2                !
 ! D17   D(3,4,5,6)             66.7028         estimate D2E/DX2                !
 ! D18   D(3,4,5,9)           -169.6349         estimate D2E/DX2                !
 ! D19   D(3,4,5,22)           -52.4313         estimate D2E/DX2                !
 ! D20   D(20,4,5,6)          -175.8167         estimate D2E/DX2                !
 ! D21   D(20,4,5,9)           -52.1544         estimate D2E/DX2                !
 ! D22   D(20,4,5,22)           65.0492         estimate D2E/DX2                !
 ! D23   D(21,4,5,6)           -57.8018         estimate D2E/DX2                !
 ! D24   D(21,4,5,9)            65.8606         estimate D2E/DX2                !
 ! D25   D(21,4,5,22)         -176.9358         estimate D2E/DX2                !
 ! D26   D(4,5,6,7)            -58.72           estimate D2E/DX2                !
 ! D27   D(4,5,6,23)          -177.9984         estimate D2E/DX2                !
 ! D28   D(4,5,6,24)            64.9712         estimate D2E/DX2                !
 ! D29   D(9,5,6,7)            177.7046         estimate D2E/DX2                !
 ! D30   D(9,5,6,23)            58.4262         estimate D2E/DX2                !
 ! D31   D(9,5,6,24)           -58.6042         estimate D2E/DX2                !
 ! D32   D(22,5,6,7)            60.5211         estimate D2E/DX2                !
 ! D33   D(22,5,6,23)          -58.7572         estimate D2E/DX2                !
 ! D34   D(22,5,6,24)         -175.7877         estimate D2E/DX2                !
 ! D35   D(4,5,9,10)            54.2717         estimate D2E/DX2                !
 ! D36   D(4,5,9,11)           177.2131         estimate D2E/DX2                !
 ! D37   D(4,5,9,30)           -64.067          estimate D2E/DX2                !
 ! D38   D(6,5,9,10)           179.3515         estimate D2E/DX2                !
 ! D39   D(6,5,9,11)           -57.7071         estimate D2E/DX2                !
 ! D40   D(6,5,9,30)            61.0128         estimate D2E/DX2                !
 ! D41   D(22,5,9,10)          -63.2559         estimate D2E/DX2                !
 ! D42   D(22,5,9,11)           59.6855         estimate D2E/DX2                !
 ! D43   D(22,5,9,30)          178.4054         estimate D2E/DX2                !
 ! D44   D(5,6,7,8)           -178.1854         estimate D2E/DX2                !
 ! D45   D(5,6,7,25)            65.5802         estimate D2E/DX2                !
 ! D46   D(5,6,7,26)           -54.8817         estimate D2E/DX2                !
 ! D47   D(23,6,7,8)           -56.7233         estimate D2E/DX2                !
 ! D48   D(23,6,7,25)         -172.9576         estimate D2E/DX2                !
 ! D49   D(23,6,7,26)           66.5804         estimate D2E/DX2                !
 ! D50   D(24,6,7,8)            58.3828         estimate D2E/DX2                !
 ! D51   D(24,6,7,25)          -57.8516         estimate D2E/DX2                !
 ! D52   D(24,6,7,26)         -178.3136         estimate D2E/DX2                !
 ! D53   D(6,7,8,27)           -61.2165         estimate D2E/DX2                !
 ! D54   D(6,7,8,28)          -179.1098         estimate D2E/DX2                !
 ! D55   D(6,7,8,29)            60.6303         estimate D2E/DX2                !
 ! D56   D(25,7,8,27)           58.4168         estimate D2E/DX2                !
 ! D57   D(25,7,8,28)          -59.4766         estimate D2E/DX2                !
 ! D58   D(25,7,8,29)         -179.7364         estimate D2E/DX2                !
 ! D59   D(26,7,8,27)          175.5781         estimate D2E/DX2                !
 ! D60   D(26,7,8,28)           57.6847         estimate D2E/DX2                !
 ! D61   D(26,7,8,29)          -62.5751         estimate D2E/DX2                !
 ! D62   D(5,9,10,31)           61.361          estimate D2E/DX2                !
 ! D63   D(5,9,10,32)          -60.5094         estimate D2E/DX2                !
 ! D64   D(5,9,10,33)         -177.326          estimate D2E/DX2                !
 ! D65   D(11,9,10,31)         -62.7832         estimate D2E/DX2                !
 ! D66   D(11,9,10,32)         175.3465         estimate D2E/DX2                !
 ! D67   D(11,9,10,33)          58.5299         estimate D2E/DX2                !
 ! D68   D(30,9,10,31)         179.8141         estimate D2E/DX2                !
 ! D69   D(30,9,10,32)          57.9438         estimate D2E/DX2                !
 ! D70   D(30,9,10,33)         -58.8728         estimate D2E/DX2                !
 ! D71   D(5,9,11,12)          177.3946         estimate D2E/DX2                !
 ! D72   D(5,9,11,34)           57.9858         estimate D2E/DX2                !
 ! D73   D(5,9,11,35)          -59.3334         estimate D2E/DX2                !
 ! D74   D(10,9,11,12)         -58.6181         estimate D2E/DX2                !
 ! D75   D(10,9,11,34)        -178.0269         estimate D2E/DX2                !
 ! D76   D(10,9,11,35)          64.6538         estimate D2E/DX2                !
 ! D77   D(30,9,11,12)          58.67           estimate D2E/DX2                !
 ! D78   D(30,9,11,34)         -60.7388         estimate D2E/DX2                !
 ! D79   D(30,9,11,35)        -178.0581         estimate D2E/DX2                !
 ! D80   D(9,11,12,13)        -179.108          estimate D2E/DX2                !
 ! D81   D(9,11,12,36)          61.8807         estimate D2E/DX2                !
 ! D82   D(9,11,12,37)         -58.9761         estimate D2E/DX2                !
 ! D83   D(34,11,12,13)        -56.722          estimate D2E/DX2                !
 ! D84   D(34,11,12,36)       -175.7333         estimate D2E/DX2                !
 ! D85   D(34,11,12,37)         63.4099         estimate D2E/DX2                !
 ! D86   D(35,11,12,13)         57.5556         estimate D2E/DX2                !
 ! D87   D(35,11,12,36)        -61.4557         estimate D2E/DX2                !
 ! D88   D(35,11,12,37)        177.6875         estimate D2E/DX2                !
 ! D89   D(11,12,13,14)       -178.3109         estimate D2E/DX2                !
 ! D90   D(36,12,13,14)        -57.4671         estimate D2E/DX2                !
 ! D91   D(37,12,13,14)         61.5991         estimate D2E/DX2                !
 ! D92   D(12,13,14,38)        178.2604         estimate D2E/DX2                !
 ! D93   D(12,13,14,39)         58.9084         estimate D2E/DX2                !
 ! D94   D(12,13,14,40)        -62.2574         estimate D2E/DX2                !
 --------------------------------------------------------------------------------
 Trust Radius=3.00D-01 FncErr=1.00D-07 GrdErr=1.00D-06 EigMax=2.50D+02 EigMin=1.00D-04
 Number of steps in this run=    216 maximum allowed number of steps=    240.
 GradGradGradGradGradGradGradGradGradGradGradGradGradGradGradGradGradGrad

                          Input orientation:                          
 ---------------------------------------------------------------------
 Center     Atomic      Atomic             Coordinates (Angstroms)
 Number     Number       Type             X           Y           Z
 ---------------------------------------------------------------------
      1          6           0        0.915920    0.052460   -0.094250
      2          6           0        2.405270    0.090500   -0.122210
      3          6           0        3.116070   -0.439270    0.886450
      4          6           0        4.590750   -0.676540    0.847070
      5          6           0        5.116260   -1.682430    1.914390
      6          6           0        4.607280   -3.136580    1.674670
      7          6           0        3.090530   -3.281450    1.671560
      8          6           0        2.610310   -4.698020    1.482060
      9          6           0        6.679430   -1.654930    1.956510
     10          6           0        7.211390   -0.226540    2.176330
     11          6           0        7.238000   -2.590040    3.052530
     12          6           0        8.756630   -2.617460    3.058080
     13          8           0        9.215590   -3.506820    4.069450
     14          6           0       10.637390   -3.498730    4.096090
     15          1           0        0.507180    0.697720   -0.874560
     16          1           0        0.526050    0.382890    0.873280
     17          1           0        0.569600   -0.970910   -0.281980
     18          1           0        2.905910    0.501660   -0.991780
     19          1           0        2.572320   -0.804770    1.751590
     20          1           0        5.022780    0.312280    1.000380
     21          1           0        4.904790   -1.028480   -0.144960
     22          1           0        4.752520   -1.355590    2.899010
     23          1           0        4.973010   -3.796620    2.467450
     24          1           0        5.019160   -3.514860    0.731160
     25          1           0        2.669170   -2.745480    0.823260
     26          1           0        2.681730   -2.874270    2.604260
     27          1           0        2.952670   -5.077580    0.515280
     28          1           0        1.515270   -4.696380    1.478140
     29          1           0        2.962850   -5.353310    2.279810
     30          1           0        7.052700   -2.007990    0.984920
     31          1           0        6.860470    0.168970    3.135130
     32          1           0        6.913300    0.460380    1.383380
     33          1           0        8.302120   -0.184080    2.161460
     34          1           0        6.908360   -3.623740    2.908490
     35          1           0        6.859670   -2.291570    4.038700
     36          1           0        9.162790   -1.627100    3.273250
     37          1           0        9.118920   -2.956580    2.080530
     38          1           0       10.975700   -4.159800    4.894980
     39          1           0       11.007740   -2.486560    4.291530
     40          1           0       11.028150   -3.858810    3.139440
 ---------------------------------------------------------------------
                    Distance matrix (angstroms):
                    1          2          3          4          5
     1  C    0.000000
     2  C    1.490098   0.000000
     3  C    2.458502   1.342866   0.000000
     4  C    3.862888   2.510812   1.494165   0.000000
     5  C    4.968635   3.826289   2.569605   1.557930   0.000000
     6  C    5.188949   4.300194   3.181270   2.595572   1.559192
     7  C    4.354534   3.880366   2.948735   3.117050   2.592183
     8  C    5.284200   5.054270   4.329838   4.527434   3.944677
     9  C    6.351287   5.063205   3.914127   2.559431   1.563979
    10  C    6.698232   5.336908   4.298917   2.972741   2.564722
    11  C    7.540141   6.373347   5.129135   3.941252   2.573111
    12  C    8.862414   7.601780   6.424672   5.100029   3.928690
    13  O    9.944315   8.768762   7.532961   6.307405   4.977669
    14  C   11.165880   9.921916   8.731113   7.421775   6.208191
    15  H    1.091931   2.130139   3.346671   4.639843   5.889565
    16  H    1.094211   2.146616   2.717411   4.200579   5.139989
    17  H    1.096570   2.126453   2.851733   4.187010   5.099257
    18  H    2.228767   1.084364   2.111223   2.758298   4.254612
    19  H    2.624048   2.083396   1.085229   2.215549   2.696001
    20  H    4.258171   2.856703   2.052645   1.089917   2.196138
    21  H    4.133048   2.738656   2.147206   1.098456   2.171012
    22  H    5.065739   4.090052   2.751001   2.167426   1.099367
    23  H    6.151236   5.330040   4.149649   3.536475   2.190022
    24  H    5.499423   4.534234   3.620099   2.872809   2.183406
    25  H    3.426978   3.001056   2.349961   2.823747   2.882514
    26  H    4.354973   4.037317   3.011436   3.400308   2.797023
    27  H    5.553124   5.235942   4.656005   4.707711   4.262121
    28  H    5.038166   5.125177   4.586463   5.100582   4.716072
    29  H    6.248875   5.976258   5.110060   5.155093   4.271541
    30  H    6.562784   5.218046   4.238825   2.802313   2.172488
    31  H    6.766103   5.519532   4.409881   3.331927   2.821375
    32  H    6.190182   4.767174   3.933861   2.640919   2.846570
    33  H    7.726586   6.329564   5.346577   3.967922   3.529278
    34  H    7.644621   6.577123   5.348921   4.278640   2.822861
    35  H    7.609462   6.544395   5.232804   4.235897   2.814822
    36  H    9.064869   7.755216   6.608372   5.262458   4.268954
    37  H    9.004066   7.694794   6.617921   5.217694   4.203849
    38  H   11.993112  10.802292   9.575199   8.323837   7.025263
    39  H   11.292764  10.006240   8.835407   7.504548   6.403667
    40  H   11.314238  10.029430   8.908997   7.538032   6.417774
                    6          7          8          9         10
     6  C    0.000000
     7  C    1.523656   0.000000
     8  C    2.542259   1.507711   0.000000
     9  C    2.562914   3.950565   5.103258   0.000000
    10  C    3.937180   5.154489   6.453378   1.540000   0.000000
    11  C    3.019585   4.425679   5.322168   1.545216   2.520827
    12  C    4.404590   5.870946   6.677561   2.540606   2.980226
    13  O    5.206589   6.581567   7.193279   3.784986   4.284969
    14  C    6.508199   7.929732   8.526750   4.862391   5.111769
    15  H    6.165326   5.384257   6.252265   7.186556   7.423518
    16  H    5.448425   4.543258   5.525432   6.571924   6.838356
    17  H    4.982115   3.938274   4.600835   6.542839   7.121148
    18  H    4.820934   4.630268   5.765755   5.251928   5.394845
    19  H    3.095855   2.531579   3.902754   4.199180   4.694222
    20  H    3.538636   4.135090   5.581678   2.743827   2.542282
    21  H    2.800652   3.415722   4.623565   2.820986   3.369258
    22  H    2.166109   2.824497   4.215288   2.165847   2.800547
    23  H    1.094491   2.107741   2.714013   2.785635   4.223810
    24  H    1.096792   2.158343   2.786804   2.778006   4.208021
    25  H    2.152703   1.088311   2.061527   4.307637   5.367273
    26  H    2.154225   1.096742   2.142545   4.229418   5.264164
    27  H    2.801678   2.140577   1.093590   5.261218   6.665461
    28  H    3.468735   2.126237   1.095048   6.012304   7.274113
    29  H    2.825639   2.163071   1.090915   5.253142   6.659172
    30  H    2.780207   4.218052   5.217110   1.099076   2.149001
    31  H    4.258693   5.316003   6.669640   2.179113   1.094929
    32  H    4.282604   5.357043   6.718225   2.204021   1.090636
    33  H    4.754583   6.082300   7.296159   2.199665   1.091657
    34  H    2.656051   4.027777   4.654247   2.198838   3.488388
    35  H    3.372824   4.559565   5.512211   2.184791   2.802941
    36  H    5.058326   6.494199   7.454791   2.810988   2.640599
    37  H    4.533433   6.050974   6.764080   2.767812   3.331811
    38  H    7.209310   8.563752   9.050826   5.776410   6.085361
    39  H    6.945241   8.377249   9.126911   4.987805   4.898371
    40  H    6.625310   8.092826   8.620395   5.016750   5.356176
                   11         12         13         14         15
    11  C    0.000000
    12  C    1.518888   0.000000
    13  O    2.405301   1.422840   0.000000
    14  C    3.670230   2.321930   1.422073   0.000000
    15  H    8.457857   9.721600  10.860838  12.039049   0.000000
    16  H    7.657527   9.028726  10.042582  11.300118   1.776068
    17  H    7.629423   8.994142  10.005945  11.265779   1.771828
    18  H    6.684464   7.769247   9.027515  10.082922   2.409582
    19  H    5.162190   6.575595   7.537014   8.820400   3.663188
    20  H    4.188315   5.172924   6.448595   7.458623   4.904550
    21  H    4.255148   5.255568   6.518161   7.546611   4.780278
    22  H    2.779397   4.201252   5.090846   6.376343   6.039770
    23  H    2.632173   4.006874   4.544213   5.901390   7.163223
    24  H    3.341751   4.493169   5.362301   6.548857   6.378255
    25  H    5.086061   6.485983   7.346632   8.647042   4.405953
    26  H    4.587083   6.097238   6.725937   8.118376   5.439666
    27  H    5.566825   6.797351   7.370453   8.623798   6.423875
    28  H    6.298016   7.697754   8.211265   9.565621   5.970574
    29  H    5.148754   6.454337   6.760850   8.101661   7.252264
    30  H    2.155952   2.751876   4.054493   4.975107   7.322729
    31  H    2.785945   3.371283   4.464412   5.351691   7.531367
    32  H    3.492357   3.959240   5.315467   6.074718   6.796543
    33  H    2.777589   2.632840   3.938966   4.492570   8.411663
    34  H    1.094507   2.109758   2.585500   3.915570   8.600092
    35  H    1.097611   2.160157   2.651063   3.966320   8.569137
    36  H    2.163513   1.091823   2.042075   2.520815   9.875662
    37  H    2.148720   1.096294   2.065893   2.581116   9.810634
    38  H    4.452996   3.267612   2.050822   1.090730  12.902442
    39  H    3.969480   2.570220   2.074139   1.095374  12.128062
    40  H    3.997820   2.589860   2.067411   1.094317  12.147632
                   16         17         18         19         20
    16  H    0.000000
    17  H    1.780252   0.000000
    18  H    3.025936   2.851425   0.000000
    19  H    2.523725   2.859003   3.056815   0.000000
    20  H    4.499080   4.808517   2.913023   2.795867   0.000000
    21  H    4.711915   4.337737   2.655928   3.014526   1.767304
    22  H    4.998894   5.269108   4.690159   2.524529   2.541580
    23  H    6.307546   5.910501   5.891892   3.902170   4.363236
    24  H    5.949848   5.224626   4.854563   3.791160   3.836599
    25  H    3.792382   2.962912   3.727510   2.153493   3.862738
    26  H    4.272276   4.051451   4.937475   2.240948   4.266972
    27  H    5.986099   4.814497   5.779389   4.464307   5.794072
    28  H    5.209932   4.227463   5.920642   4.041876   6.133315
    29  H    6.389078   5.612116   6.707251   4.595731   6.162724
    30  H    6.951685   6.686640   5.234649   4.702056   3.082932
    31  H    6.729532   7.249208   5.725436   4.609835   2.820425
    32  H    6.408055   6.713013   4.658569   4.536551   1.934603
    33  H    7.902413   8.147476   6.287467   5.777877   3.514050
    34  H    7.805706   7.576047   6.946268   5.299646   4.763250
    35  H    7.568842   7.744508   6.981410   5.081616   4.402907
    36  H    9.186577   9.322723   7.865790   6.813661   5.105567
    37  H    9.297684   9.089291   7.745967   6.899019   5.350751
    38  H   12.083265  12.052255  11.022915   9.578827   8.402658
    39  H   11.392278  11.496476  10.123363   8.968613   7.381390
    40  H   11.550827  11.376614  10.102052   9.096942   7.618270
                   21         22         23         24         25
    21  H    0.000000
    22  H    3.065280   0.000000
    23  H    3.806828   2.488672   0.000000
    24  H    2.638703   3.071338   1.759608   0.000000
    25  H    2.980526   3.252826   3.019261   2.474446   0.000000
    26  H    3.988376   2.584848   2.473744   3.063077   1.785695
    27  H    4.543336   4.772299   3.087653   2.599823   2.369370
    28  H    5.251361   4.864107   3.707326   3.772428   2.359314
    29  H    5.324922   4.423584   2.549360   3.163325   3.001427
    30  H    2.617171   3.062710   3.118045   2.543686   4.448074
    31  H    4.002195   2.612181   4.442320   4.768658   5.604084
    32  H    2.930297   3.203725   4.802289   4.451482   5.348263
    33  H    4.192187   3.809997   4.922098   4.890571   6.331009
    34  H    4.480315   3.129256   1.992482   2.884735   4.805232
    35  H    4.787480   2.571971   2.879842   3.977906   5.301451
    36  H    5.493002   4.434440   4.786480   5.214933   7.029959
    37  H    5.140940   4.722132   4.247816   4.352069   6.574539
    38  H    8.488940   7.111643   6.485144   7.296144   9.358293
    39  H    7.684689   6.507379   6.439060   7.042494   9.034804
    40  H    7.502905   6.760728   6.092631   6.482752   8.745098
                   26         27         28         29         30
    26  H    0.000000
    27  H    3.048249   0.000000
    28  H    2.439029   1.771590   0.000000
    29  H    2.515936   1.785972   1.780371   0.000000
    30  H    4.741106   5.143267   6.175260   5.440108   0.000000
    31  H    5.196634   7.047042   7.415417   6.813119   3.065862
    32  H    5.524185   6.863613   7.465915   7.085805   2.504207
    33  H    6.246757   7.434572   8.178576   7.432547   2.504385
    34  H    4.303332   4.846503   5.681714   4.353585   2.516268
    35  H    4.455596   5.953234   6.395482   5.258626   3.072987
    36  H    6.633786   7.620879   8.433710   7.301426   3.135923
    37  H    6.458985   6.706063   7.823380   6.609177   2.523777
    38  H    8.699996   9.186572  10.072857   8.512893   5.942120
    39  H    8.504096   9.265938  10.144233   8.774140   5.177358
    40  H    8.421310   8.578170   9.693107   8.247518   4.885867
                   31         32         33         34         35
    31  H    0.000000
    32  H    1.776609   0.000000
    33  H    1.775115   1.717428   0.000000
    34  H    3.799777   4.359590   3.785747   0.000000
    35  H    2.621201   3.824504   3.169575   1.747691   0.000000
    36  H    2.923290   3.604079   2.014730   3.033492   2.516306
    37  H    3.997729   4.126305   2.891447   2.452997   3.062822
    38  H    6.226591   7.083819   5.516023   4.558153   4.600565
    39  H    5.058552   5.822906   4.142341   4.473354   4.160340
    40  H    5.795911   6.218612   4.678817   4.132949   4.543252
                   36         37         38         39         40
    36  H    0.000000
    37  H    1.786623   0.000000
    38  H    3.511584   3.580014   0.000000
    39  H    2.275831   2.945689   1.779020   0.000000
    40  H    2.911701   2.362302   1.781928   1.791870   0.000000
 Stoichiometry    C13H26O
 Framework group  C1[X(C13H26O)]
 Deg. of freedom   114
 Full point group                 C1      NOp   1
 Largest Abelian subgroup         C1      NOp   1
 Largest concise Abelian subgroup C1      NOp   1
                         Standard orientation:                         
 ---------------------------------------------------------------------
 Center     Atomic      Atomic             Coordinates (Angstroms)
 Number     Number       Type             X           Y           Z
 ---------------------------------------------------------------------
      1          6           0       -5.339943   -0.847224   -0.213383
      2          6           0       -4.030679   -1.353507    0.286516
      3          6           0       -2.882724   -0.914918   -0.254896
      4          6           0       -1.527549   -1.160932    0.324335
      5          6           0       -0.412437   -0.209325   -0.203034
      6          6           0       -0.624608    1.270996    0.238225
      7          6           0       -1.945769    1.880697   -0.213800
      8          6           0       -2.121436    3.325099    0.181214
      9          6           0        0.992334   -0.717356    0.260165
     10          6           0        1.223217   -2.184035   -0.148670
     11          6           0        2.131780    0.162397   -0.301430
     12          6           0        3.495264   -0.286315    0.195147
     13          8           0        4.502420    0.567929   -0.334362
     14          6           0        5.779514    0.119761    0.102063
     15          1           0       -6.156323   -1.450931    0.188330
     16          1           0       -5.388243   -0.875627   -1.306159
     17          1           0       -5.486048    0.187726    0.118275
     18          1           0       -4.016377   -2.037457    1.127856
     19          1           0       -2.947731   -0.260918   -1.118480
     20          1           0       -1.310373   -2.196030    0.061040
     21          1           0       -1.551466   -1.092693    1.420408
     22          1           0       -0.429959   -0.239744   -1.301841
     23          1           0        0.161644    1.904036   -0.184836
     24          1           0       -0.536316    1.341214    1.329200
     25          1           0       -2.774628    1.372027    0.274737
     26          1           0       -2.042168    1.780706   -1.301711
     27          1           0       -2.103915    3.414454    1.271006
     28          1           0       -3.100395    3.665628   -0.172071
     29          1           0       -1.346118    3.958638   -0.251920
     30          1           0        1.029461   -0.663254    1.357281
     31          1           0        1.191285   -2.286942   -1.238285
     32          1           0        0.491058   -2.863417    0.289360
     33          1           0        2.180873   -2.567552    0.208438
     34          1           0        2.019903    1.208957   -0.001194
     35          1           0        2.108379    0.163339   -1.398791
     36          1           0        3.713023   -1.304611   -0.133076
     37          1           0        3.517067   -0.242795    1.290360
     38          1           0        6.543910    0.763348   -0.335187
     39          1           0        5.952635   -0.910968   -0.225766
     40          1           0        5.839665    0.177407    1.193205
 ---------------------------------------------------------------------
 Rotational constants (GHZ):           1.1373080           0.2440698           0.2062566
 Standard basis: 6-31G(2df,p) (6D, 7F)
 There are   564 symmetry adapted cartesian basis functions of A   symmetry.
 There are   522 symmetry adapted basis functions of A   symmetry.
   522 basis functions,   798 primitive gaussians,   564 cartesian basis functions
    56 alpha electrons       56 beta electrons
       nuclear repulsion energy       927.2563970350 Hartrees.
 NAtoms=   40 NActive=   40 NUniq=   40 SFac= 1.00D+00 NAtFMM=   60 NAOKFM=F Big=F
 Integral buffers will be    131072 words long.
 Raffenetti 2 integral format.
 Two-electron integral symmetry is turned on.
 One-electron integrals computed using PRISM.
 PrsmSu:  requested number of processors reduced to:  12 ShMem   1 Linda.
 NBasis=   522 RedAO= T EigKep=  4.93D-04  NBF=   522
 NBsUse=   522 1.00D-06 EigRej= -1.00D+00 NBFU=   522
 ExpMin= 1.61D-01 ExpMax= 5.48D+03 ExpMxC= 8.25D+02 IAcc=3 IRadAn=         5 AccDes= 0.00D+00
 Harris functional with IExCor=  402 and IRadAn=       5 diagonalized for initial guess.
 HarFok:  IExCor=  402 AccDes= 0.00D+00 IRadAn=         5 IDoV= 1 UseB2=F ITyADJ=14
 ICtDFT=  3500011 ScaDFX=  1.000000  1.000000  1.000000  1.000000
 FoFCou: FMM=F IPFlag=           0 FMFlag=      100000 FMFlg1=           0
         NFxFlg=           0 DoJE=T BraDBF=F KetDBF=T FulRan=T
         wScrn=  0.000000 ICntrl=       500 IOpCl=  0 I1Cent=   200000004 NGrid=           0
         NMat0=    1 NMatS0=      1 NMatT0=    0 NMatD0=    1 NMtDS0=    0 NMtDT0=    0
 Petite list used in FoFCou.
 Requested convergence on RMS density matrix=1.00D-08 within 128 cycles.
 Requested convergence on MAX density matrix=1.00D-06.
 Requested convergence on             energy=1.00D-06.
 No special actions if energy rises.
 Integral accuracy reduced to 1.0D-05 until final iterations.
 Initial convergence to 1.0D-05 achieved.  Increase integral accuracy.
 SCF Done:  E(RB3LYP) =  -586.268360416     A.U. after   13 cycles
            NFock= 13  Conv=0.48D-08     -V/T= 2.0083

 **********************************************************************

            Population analysis using the SCF density.

 **********************************************************************

 Orbital symmetries:
       Occupied  (A) (A) (A) (A) (A) (A) (A) (A) (A) (A) (A) (A)
                 (A) (A) (A) (A) (A) (A) (A) (A) (A) (A) (A) (A)
                 (A) (A) (A) (A) (A) (A) (A) (A) (A) (A) (A) (A)
                 (A) (A) (A) (A) (A) (A) (A) (A) (A) (A) (A) (A)
                 (A) (A) (A) (A) (A) (A) (A) (A)
       Virtual   (A) (A) (A) (A) (A) (A) (A) (A) (A) (A) (A) (A)
                 (A) (A) (A) (A) (A) (A) (A) (A) (A) (A) (A) (A)
                 (A) (A) (A) (A) (A) (A) (A) (A) (A) (A) (A) (A)
                 (A) (A) (A) (A) (A) (A) (A) (A) (A) (A) (A) (A)
                 (A) (A) (A) (A) (A) (A) (A) (A) (A) (A) (A) (A)
                 (A) (A) (A) (A) (A) (A) (A) (A) (A) (A) (A) (A)
                 (A) (A) (A) (A) (A) (A) (A) (A) (A) (A) (A) (A)
                 (A) (A) (A) (A) (A) (A) (A) (A) (A) (A) (A) (A)
                 (A) (A) (A) (A) (A) (A) (A) (A) (A) (A) (A) (A)
                 (A) (A) (A) (A) (A) (A) (A) (A) (A) (A) (A) (A)
                 (A) (A) (A) (A) (A) (A) (A) (A) (A) (A) (A) (A)
                 (A) (A) (A) (A) (A) (A) (A) (A) (A) (A) (A) (A)
                 (A) (A) (A) (A) (A) (A) (A) (A) (A) (A) (A) (A)
                 (A) (A) (A) (A) (A) (A) (A) (A) (A) (A) (A) (A)
                 (A) (A) (A) (A) (A) (A) (A) (A) (A) (A) (A) (A)
                 (A) (A) (A) (A) (A) (A) (A) (A) (A) (A) (A) (A)
                 (A) (A) (A) (A) (A) (A) (A) (A) (A) (A) (A) (A)
                 (A) (A) (A) (A) (A) (A) (A) (A) (A) (A) (A) (A)
                 (A) (A) (A) (A) (A) (A) (A) (A) (A) (A) (A) (A)
                 (A) (A) (A) (A) (A) (A) (A) (A) (A) (A) (A) (A)
                 (A) (A) (A) (A) (A) (A) (A) (A) (A) (A) (A) (A)
                 (A) (A) (A) (A) (A) (A) (A) (A) (A) (A) (A) (A)
                 (A) (A) (A) (A) (A) (A) (A) (A) (A) (A) (A) (A)
                 (A) (A) (A) (A) (A) (A) (A) (A) (A) (A) (A) (A)
                 (A) (A) (A) (A) (A) (A) (A) (A) (A) (A) (A) (A)
                 (A) (A) (A) (A) (A) (A) (A) (A) (A) (A) (A) (A)
                 (A) (A) (A) (A) (A) (A) (A) (A) (A) (A) (A) (A)
                 (A) (A) (A) (A) (A) (A) (A) (A) (A) (A) (A) (A)
                 (A) (A) (A) (A) (A) (A) (A) (A) (A) (A) (A) (A)
                 (A) (A) (A) (A) (A) (A) (A) (A) (A) (A) (A) (A)
                 (A) (A) (A) (A) (A) (A) (A) (A) (A) (A) (A) (A)
                 (A) (A) (A) (A) (A) (A) (A) (A) (A) (A) (A) (A)
                 (A) (A) (A) (A) (A) (A) (A) (A) (A) (A) (A) (A)
                 (A) (A) (A) (A) (A) (A) (A) (A) (A) (A) (A) (A)
                 (A) (A) (A) (A) (A) (A) (A) (A) (A) (A) (A) (A)
                 (A) (A) (A) (A) (A) (A) (A) (A) (A) (A) (A) (A)
                 (A) (A) (A) (A) (A) (A) (A) (A) (A) (A) (A) (A)
                 (A) (A) (A) (A) (A) (A) (A) (A) (A) (A) (A) (A)
                 (A) (A) (A) (A) (A) (A) (A) (A) (A) (A)
 The electronic state is 1-A.
 Alpha  occ. eigenvalues --  -19.13082 -10.21783 -10.21669 -10.18582 -10.18442
 Alpha  occ. eigenvalues --  -10.17431 -10.17187 -10.17152 -10.17070 -10.16865
 Alpha  occ. eigenvalues --  -10.16809 -10.16716 -10.16689 -10.16465  -1.01967
 Alpha  occ. eigenvalues --   -0.82696  -0.79104  -0.77933  -0.74724  -0.71665
 Alpha  occ. eigenvalues --   -0.69668  -0.66624  -0.64485  -0.62330  -0.58824
 Alpha  occ. eigenvalues --   -0.57081  -0.55361  -0.53614  -0.48355  -0.47463
 Alpha  occ. eigenvalues --   -0.47171  -0.45230  -0.44392  -0.44289  -0.43159
 Alpha  occ. eigenvalues --   -0.42062  -0.40980  -0.40677  -0.40361  -0.39330
 Alpha  occ. eigenvalues --   -0.38264  -0.37841  -0.36886  -0.35863  -0.35647
 Alpha  occ. eigenvalues --   -0.34439  -0.34024  -0.33610  -0.32153  -0.32075
 Alpha  occ. eigenvalues --   -0.31666  -0.31181  -0.29880  -0.29159  -0.24830
 Alpha  occ. eigenvalues --   -0.22145
 Alpha virt. eigenvalues --    0.02244   0.08620   0.09006   0.09603   0.10031
 Alpha virt. eigenvalues --    0.11697   0.12750   0.12974   0.13514   0.13751
 Alpha virt. eigenvalues --    0.14192   0.14467   0.15547   0.16434   0.16664
 Alpha virt. eigenvalues --    0.16775   0.17195   0.17620   0.18281   0.18781
 Alpha virt. eigenvalues --    0.18961   0.19607   0.20153   0.20727   0.20804
 Alpha virt. eigenvalues --    0.21929   0.22485   0.23045   0.23233   0.25053
 Alpha virt. eigenvalues --    0.25785   0.25894   0.26350   0.26784   0.28113
 Alpha virt. eigenvalues --    0.28475   0.31100   0.32661   0.33935   0.36494
 Alpha virt. eigenvalues --    0.42629   0.45251   0.46326   0.46559   0.47131
 Alpha virt. eigenvalues --    0.48067   0.48535   0.48704   0.49409   0.51228
 Alpha virt. eigenvalues --    0.52272   0.52660   0.52987   0.53391   0.54736
 Alpha virt. eigenvalues --    0.55240   0.56562   0.56881   0.57991   0.59496
 Alpha virt. eigenvalues --    0.61334   0.61355   0.62421   0.63282   0.64471
 Alpha virt. eigenvalues --    0.64648   0.65449   0.66553   0.68029   0.68478
 Alpha virt. eigenvalues --    0.69948   0.70213   0.70777   0.71240   0.71970
 Alpha virt. eigenvalues --    0.72114   0.72624   0.73908   0.74073   0.74218
 Alpha virt. eigenvalues --    0.74482   0.74982   0.75267   0.76005   0.76588
 Alpha virt. eigenvalues --    0.77121   0.77953   0.78560   0.79017   0.79550
 Alpha virt. eigenvalues --    0.79695   0.80212   0.80960   0.81708   0.81970
 Alpha virt. eigenvalues --    0.82743   0.83235   0.84002   0.85506   0.85952
 Alpha virt. eigenvalues --    0.86634   0.87199   0.88184   0.88967   0.89760
 Alpha virt. eigenvalues --    0.90725   0.91672   0.93291   0.95385   0.95570
 Alpha virt. eigenvalues --    0.96752   0.97492   1.01157   1.01735   1.03446
 Alpha virt. eigenvalues --    1.04625   1.06349   1.08468   1.08801   1.10780
 Alpha virt. eigenvalues --    1.11572   1.15169   1.17446   1.17911   1.19698
 Alpha virt. eigenvalues --    1.20639   1.22406   1.22851   1.25255   1.25859
 Alpha virt. eigenvalues --    1.27030   1.29247   1.29458   1.31938   1.32603
 Alpha virt. eigenvalues --    1.33286   1.34660   1.35613   1.37115   1.37381
 Alpha virt. eigenvalues --    1.39150   1.41375   1.42530   1.43367   1.44173
 Alpha virt. eigenvalues --    1.44505   1.45685   1.47509   1.48914   1.49379
 Alpha virt. eigenvalues --    1.50924   1.52271   1.55034   1.57430   1.58070
 Alpha virt. eigenvalues --    1.58517   1.59855   1.60059   1.60517   1.61292
 Alpha virt. eigenvalues --    1.62532   1.63910   1.65717   1.68210   1.68909
 Alpha virt. eigenvalues --    1.70665   1.71113   1.72977   1.74565   1.76576
 Alpha virt. eigenvalues --    1.78338   1.78803   1.80188   1.80971   1.82692
 Alpha virt. eigenvalues --    1.84444   1.85706   1.86446   1.87771   1.88230
 Alpha virt. eigenvalues --    1.89934   1.90567   1.93420   1.93857   1.94615
 Alpha virt. eigenvalues --    1.95422   1.96025   1.96656   1.98382   2.00163
 Alpha virt. eigenvalues --    2.02103   2.04537   2.05508   2.07014   2.14755
 Alpha virt. eigenvalues --    2.16201   2.17917   2.18360   2.18553   2.18973
 Alpha virt. eigenvalues --    2.23136   2.24537   2.25111   2.26638   2.26964
 Alpha virt. eigenvalues --    2.27636   2.29542   2.30159   2.31341   2.32478
 Alpha virt. eigenvalues --    2.34598   2.35894   2.37787   2.38914   2.41794
 Alpha virt. eigenvalues --    2.43903   2.45378   2.46363   2.46578   2.47980
 Alpha virt. eigenvalues --    2.49576   2.52894   2.54483   2.55809   2.57796
 Alpha virt. eigenvalues --    2.58358   2.62775   2.64863   2.66246   2.72178
 Alpha virt. eigenvalues --    2.72540   2.74878   2.75365   2.76297   2.76556
 Alpha virt. eigenvalues --    2.77191   2.77454   2.78047   2.79213   2.80439
 Alpha virt. eigenvalues --    2.80674   2.81773   2.82344   2.83175   2.83770
 Alpha virt. eigenvalues --    2.83877   2.85954   2.86459   2.86779   2.87402
 Alpha virt. eigenvalues --    2.88238   2.89041   2.89730   2.90275   2.91146
 Alpha virt. eigenvalues --    2.91866   2.92905   2.93158   2.93653   2.94349
 Alpha virt. eigenvalues --    2.95366   2.95808   2.96618   2.97268   2.98407
 Alpha virt. eigenvalues --    3.00276   3.00950   3.01924   3.04023   3.05666
 Alpha virt. eigenvalues --    3.06229   3.06888   3.10037   3.11199   3.12229
 Alpha virt. eigenvalues --    3.13790   3.14647   3.15256   3.17585   3.18755
 Alpha virt. eigenvalues --    3.20691   3.20866   3.22100   3.24666   3.26503
 Alpha virt. eigenvalues --    3.28243   3.28988   3.29870   3.31561   3.33600
 Alpha virt. eigenvalues --    3.35080   3.36326   3.38194   3.39558   3.39822
 Alpha virt. eigenvalues --    3.40491   3.41125   3.43640   3.44132   3.45662
 Alpha virt. eigenvalues --    3.46294   3.48812   3.49502   3.50200   3.51590
 Alpha virt. eigenvalues --    3.52012   3.52827   3.53716   3.54696   3.57365
 Alpha virt. eigenvalues --    3.57961   3.59748   3.61076   3.62119   3.63380
 Alpha virt. eigenvalues --    3.65032   3.66469   3.66804   3.68947   3.69796
 Alpha virt. eigenvalues --    3.71205   3.71685   3.73051   3.73727   3.75638
 Alpha virt. eigenvalues --    3.76664   3.77474   3.78215   3.79383   3.80775
 Alpha virt. eigenvalues --    3.86209   3.86847   3.87078   3.89374   3.90897
 Alpha virt. eigenvalues --    3.92326   3.94004   3.95612   3.96916   3.98803
 Alpha virt. eigenvalues --    3.99858   4.01746   4.05328   4.08134   4.11078
 Alpha virt. eigenvalues --    4.18016   4.24332   4.26268   4.28556   4.29723
 Alpha virt. eigenvalues --    4.32229   4.34603   4.35342   4.36978   4.37547
 Alpha virt. eigenvalues --    4.38297   4.39671   4.40269   4.41782   4.43059
 Alpha virt. eigenvalues --    4.44065   4.45558   4.46470   4.47215   4.48360
 Alpha virt. eigenvalues --    4.49667   4.50238   4.52061   4.52907   4.54102
 Alpha virt. eigenvalues --    4.54927   4.55742   4.56337   4.57491   4.57676
 Alpha virt. eigenvalues --    4.58008   4.59260   4.60518   4.61658   4.62557
 Alpha virt. eigenvalues --    4.63449   4.63718   4.65384   4.66289   4.67399
 Alpha virt. eigenvalues --    4.69430   4.70662   4.71061   4.71814   4.72363
 Alpha virt. eigenvalues --    4.73129   4.73902   4.74263   4.75061   4.75538
 Alpha virt. eigenvalues --    4.75899   4.77684   4.78098   4.79653   4.79729
 Alpha virt. eigenvalues --    4.80905   4.81599   4.82954   4.83171   4.84307
 Alpha virt. eigenvalues --    4.86419   4.87873   4.88585   4.89956   4.90329
 Alpha virt. eigenvalues --    4.92971   4.93751   4.95479   4.97537   4.98477
 Alpha virt. eigenvalues --    4.98673   5.01716   5.03748   5.03790   5.04686
 Alpha virt. eigenvalues --    5.10372   5.14212   5.15789   5.24349   5.27159
 Alpha virt. eigenvalues --    5.30424   5.33313   5.34633   5.37371   5.39203
 Alpha virt. eigenvalues --    5.41570   5.42066   5.43747   5.45560   5.49139
 Alpha virt. eigenvalues --    5.53204   5.53663   5.57474   5.58927   5.60172
 Alpha virt. eigenvalues --    5.66460   5.68894   5.70705   5.85165   5.95271
 Alpha virt. eigenvalues --    5.98832   6.02781   6.18079   6.25510   6.30328
 Alpha virt. eigenvalues --    6.51043   7.03129  10.49771  11.20033  11.29265
 Alpha virt. eigenvalues --   11.46329  11.51455  11.74157  11.77032  11.95605
 Alpha virt. eigenvalues --   12.18477  12.22094  12.51469  12.65271  12.84734
 Alpha virt. eigenvalues --   13.37505
          Condensed to atoms (all electrons):
               1          2          3          4          5          6
     1  C    4.993898   0.382462  -0.005390   0.004469  -0.000154  -0.000002
     2  C    0.382462   4.794137   0.693604  -0.019169   0.001733   0.000499
     3  C   -0.005390   0.693604   4.665303   0.417275  -0.020492  -0.002611
     4  C    0.004469  -0.019169   0.417275   4.954997   0.399065  -0.027110
     5  C   -0.000154   0.001733  -0.020492   0.399065   4.700961   0.414142
     6  C   -0.000002   0.000499  -0.002611  -0.027110   0.414142   4.832694
     7  C   -0.000005  -0.002690  -0.008851  -0.001396  -0.028563   0.425673
     8  C   -0.000005   0.000083   0.000495   0.000198   0.002351  -0.035147
     9  C    0.000002  -0.000150   0.001763  -0.030737   0.415663  -0.027252
    10  C    0.000000   0.000018   0.000641  -0.006743  -0.026016   0.002483
    11  C   -0.000000   0.000001  -0.000102   0.001323  -0.024491  -0.003348
    12  C    0.000000  -0.000000   0.000000  -0.000097   0.001367   0.000461
    13  O   -0.000000   0.000000  -0.000000   0.000000  -0.000010  -0.000001
    14  C    0.000000  -0.000000   0.000000  -0.000000   0.000000   0.000000
    15  H    0.369034  -0.018814   0.001805  -0.000156   0.000000  -0.000000
    16  H    0.373266  -0.023580  -0.008584   0.000042  -0.000000   0.000001
    17  H    0.375338  -0.026264  -0.012234  -0.000076   0.000019   0.000005
    18  H   -0.062156   0.364675  -0.033906  -0.012996   0.000275   0.000000
    19  H   -0.013841  -0.046947   0.370261  -0.066827  -0.002602  -0.001158
    20  H   -0.000122  -0.004220  -0.029257   0.353712  -0.022342   0.003926
    21  H    0.000007  -0.011060  -0.022276   0.346369  -0.027592  -0.007228
    22  H   -0.000006   0.000351  -0.003670  -0.048759   0.343654  -0.042965
    23  H   -0.000000  -0.000006  -0.000017   0.004078  -0.024171   0.362433
    24  H   -0.000001   0.000019  -0.000398  -0.006779  -0.027712   0.356421
    25  H    0.000183   0.002726   0.008864  -0.000110  -0.003474  -0.027898
    26  H   -0.000008   0.000093  -0.002934  -0.001063  -0.002069  -0.033570
    27  H    0.000000   0.000003  -0.000005  -0.000015   0.000170  -0.004233
    28  H   -0.000000   0.000001   0.000029  -0.000000  -0.000147   0.003442
    29  H    0.000000  -0.000001  -0.000009   0.000003   0.000055  -0.004367
    30  H    0.000000   0.000001   0.000153  -0.005466  -0.035126  -0.006507
    31  H   -0.000000   0.000000  -0.000039  -0.000642  -0.005267   0.000139
    32  H   -0.000000   0.000002  -0.000204  -0.002145  -0.004794   0.000060
    33  H   -0.000000  -0.000000  -0.000015   0.000428   0.002873  -0.000118
    34  H    0.000000   0.000000   0.000003   0.000091  -0.005116  -0.001106
    35  H    0.000000   0.000000   0.000005   0.000145  -0.003810  -0.000764
    36  H    0.000000   0.000000   0.000000   0.000005  -0.000093  -0.000008
    37  H    0.000000   0.000000   0.000000   0.000012   0.000175  -0.000013
    38  H   -0.000000   0.000000  -0.000000   0.000000  -0.000000  -0.000000
    39  H    0.000000   0.000000   0.000000   0.000000   0.000000  -0.000000
    40  H    0.000000  -0.000000   0.000000   0.000000   0.000000   0.000000
               7          8          9         10         11         12
     1  C   -0.000005  -0.000005   0.000002   0.000000  -0.000000   0.000000
     2  C   -0.002690   0.000083  -0.000150   0.000018   0.000001  -0.000000
     3  C   -0.008851   0.000495   0.001763   0.000641  -0.000102   0.000000
     4  C   -0.001396   0.000198  -0.030737  -0.006743   0.001323  -0.000097
     5  C   -0.028563   0.002351   0.415663  -0.026016  -0.024491   0.001367
     6  C    0.425673  -0.035147  -0.027252   0.002483  -0.003348   0.000461
     7  C    4.802038   0.393768   0.002386  -0.000131   0.000360  -0.000010
     8  C    0.393768   4.989467  -0.000087   0.000001   0.000008  -0.000000
     9  C    0.002386  -0.000087   4.693264   0.382755   0.374252  -0.034638
    10  C   -0.000131   0.000001   0.382755   5.052771  -0.038471  -0.004131
    11  C    0.000360   0.000008   0.374252  -0.038471   4.927374   0.427311
    12  C   -0.000010  -0.000000  -0.034638  -0.004131   0.427311   4.763024
    13  O   -0.000000  -0.000000   0.001264   0.000154  -0.027181   0.359952
    14  C   -0.000000  -0.000000  -0.000259   0.000022   0.004874  -0.086652
    15  H   -0.000001   0.000000  -0.000000   0.000000   0.000000  -0.000000
    16  H   -0.000057   0.000002  -0.000000   0.000000   0.000000   0.000000
    17  H    0.000536  -0.000060   0.000000  -0.000000   0.000000   0.000000
    18  H   -0.000009   0.000002  -0.000004  -0.000003   0.000000   0.000000
    19  H   -0.001088   0.000123   0.000160  -0.000022   0.000001   0.000000
    20  H    0.000019   0.000003  -0.009841  -0.000164   0.000145   0.000002
    21  H   -0.000130  -0.000033  -0.001711  -0.000785   0.000057   0.000007
    22  H   -0.005220  -0.000023  -0.030012  -0.006057  -0.006493   0.000135
    23  H   -0.037633  -0.005174  -0.005922   0.000071  -0.000937  -0.000073
    24  H   -0.036781  -0.003118  -0.003931   0.000123  -0.000733  -0.000051
    25  H    0.369629  -0.036148  -0.000099   0.000001  -0.000003   0.000000
    26  H    0.371641  -0.040361   0.000189   0.000005  -0.000024  -0.000000
    27  H   -0.027715   0.376542   0.000004   0.000000  -0.000000   0.000000
    28  H   -0.021581   0.371602   0.000001  -0.000000   0.000000  -0.000000
    29  H   -0.027083   0.372220  -0.000000   0.000000  -0.000010   0.000000
    30  H    0.000066  -0.000002   0.352674  -0.050248  -0.043632  -0.005060
    31  H    0.000003   0.000000  -0.024172   0.370785  -0.004599  -0.000582
    32  H    0.000000   0.000000  -0.021525   0.369159   0.004080   0.000165
    33  H    0.000001  -0.000000  -0.019598   0.368276  -0.005720  -0.002213
    34  H   -0.000176   0.000011  -0.020327   0.005226   0.350948  -0.027940
    35  H   -0.000048  -0.000001  -0.022574  -0.007884   0.352615  -0.030959
    36  H    0.000000  -0.000000  -0.002856  -0.000334  -0.031698   0.354053
    37  H    0.000000  -0.000000   0.002926  -0.000942  -0.033527   0.341951
    38  H    0.000000   0.000000  -0.000000   0.000000  -0.000318   0.005311
    39  H   -0.000000  -0.000000   0.000030  -0.000026   0.000151  -0.006681
    40  H    0.000000  -0.000000   0.000046  -0.000001   0.000275  -0.006678
              13         14         15         16         17         18
     1  C   -0.000000   0.000000   0.369034   0.373266   0.375338  -0.062156
     2  C    0.000000  -0.000000  -0.018814  -0.023580  -0.026264   0.364675
     3  C   -0.000000   0.000000   0.001805  -0.008584  -0.012234  -0.033906
     4  C    0.000000  -0.000000  -0.000156   0.000042  -0.000076  -0.012996
     5  C   -0.000010   0.000000   0.000000  -0.000000   0.000019   0.000275
     6  C   -0.000001   0.000000  -0.000000   0.000001   0.000005   0.000000
     7  C   -0.000000  -0.000000  -0.000001  -0.000057   0.000536  -0.000009
     8  C   -0.000000  -0.000000   0.000000   0.000002  -0.000060   0.000002
     9  C    0.001264  -0.000259  -0.000000  -0.000000   0.000000  -0.000004
    10  C    0.000154   0.000022   0.000000   0.000000  -0.000000  -0.000003
    11  C   -0.027181   0.004874   0.000000   0.000000   0.000000   0.000000
    12  C    0.359952  -0.086652  -0.000000   0.000000   0.000000   0.000000
    13  O    7.689987   0.368963   0.000000  -0.000000   0.000000  -0.000000
    14  C    0.368963   4.826441  -0.000000  -0.000000  -0.000000   0.000000
    15  H    0.000000  -0.000000   0.604641  -0.028840  -0.034084  -0.004880
    16  H   -0.000000  -0.000000  -0.028840   0.586998  -0.031834   0.004763
    17  H    0.000000  -0.000000  -0.034084  -0.031834   0.596233   0.003285
    18  H   -0.000000   0.000000  -0.004880   0.004763   0.003285   0.651338
    19  H    0.000000   0.000000   0.000030   0.004502   0.001263   0.007965
    20  H    0.000000   0.000000   0.000014   0.000040  -0.000023   0.001545
    21  H   -0.000000   0.000000  -0.000006  -0.000011   0.000075   0.003260
    22  H    0.000000   0.000000  -0.000000  -0.000003   0.000002   0.000011
    23  H   -0.000004  -0.000000   0.000000  -0.000000   0.000000  -0.000000
    24  H    0.000000  -0.000000  -0.000000  -0.000000   0.000000  -0.000002
    25  H    0.000000   0.000000   0.000005   0.000045   0.000568  -0.000059
    26  H    0.000000   0.000000   0.000000  -0.000006  -0.000016  -0.000004
    27  H    0.000000   0.000000  -0.000000  -0.000000  -0.000003  -0.000000
    28  H   -0.000000  -0.000000  -0.000000   0.000000   0.000022   0.000000
    29  H    0.000000  -0.000000  -0.000000  -0.000000   0.000001  -0.000000
    30  H    0.000019   0.000008  -0.000000  -0.000000   0.000000   0.000000
    31  H   -0.000009   0.000001   0.000000  -0.000000   0.000000   0.000000
    32  H   -0.000001  -0.000001   0.000000   0.000000  -0.000000   0.000002
    33  H    0.000003  -0.000004   0.000000   0.000000  -0.000000  -0.000000
    34  H    0.003903   0.000220   0.000000  -0.000000   0.000000  -0.000000
    35  H    0.002523   0.000132   0.000000   0.000000  -0.000000  -0.000000
    36  H   -0.033152  -0.005345  -0.000000   0.000000  -0.000000   0.000000
    37  H   -0.031566  -0.005182   0.000000   0.000000  -0.000000   0.000000
    38  H   -0.018834   0.383648   0.000000  -0.000000   0.000000   0.000000
    39  H   -0.034078   0.367758  -0.000000  -0.000000   0.000000  -0.000000
    40  H   -0.033758   0.369970   0.000000  -0.000000   0.000000   0.000000
              19         20         21         22         23         24
     1  C   -0.013841  -0.000122   0.000007  -0.000006  -0.000000  -0.000001
     2  C   -0.046947  -0.004220  -0.011060   0.000351  -0.000006   0.000019
     3  C    0.370261  -0.029257  -0.022276  -0.003670  -0.000017  -0.000398
     4  C   -0.066827   0.353712   0.346369  -0.048759   0.004078  -0.006779
     5  C   -0.002602  -0.022342  -0.027592   0.343654  -0.024171  -0.027712
     6  C   -0.001158   0.003926  -0.007228  -0.042965   0.362433   0.356421
     7  C   -0.001088   0.000019  -0.000130  -0.005220  -0.037633  -0.036781
     8  C    0.000123   0.000003  -0.000033  -0.000023  -0.005174  -0.003118
     9  C    0.000160  -0.009841  -0.001711  -0.030012  -0.005922  -0.003931
    10  C   -0.000022  -0.000164  -0.000785  -0.006057   0.000071   0.000123
    11  C    0.000001   0.000145   0.000057  -0.006493  -0.000937  -0.000733
    12  C    0.000000   0.000002   0.000007   0.000135  -0.000073  -0.000051
    13  O    0.000000   0.000000  -0.000000   0.000000  -0.000004   0.000000
    14  C    0.000000   0.000000   0.000000   0.000000  -0.000000  -0.000000
    15  H    0.000030   0.000014  -0.000006  -0.000000   0.000000  -0.000000
    16  H    0.004502   0.000040  -0.000011  -0.000003  -0.000000  -0.000000
    17  H    0.001263  -0.000023   0.000075   0.000002   0.000000   0.000000
    18  H    0.007965   0.001545   0.003260   0.000011  -0.000000  -0.000002
    19  H    0.649665   0.003753   0.005262   0.004465  -0.000143   0.000205
    20  H    0.003753   0.620432  -0.037098  -0.002677  -0.000175  -0.000088
    21  H    0.005262  -0.037098   0.636671   0.006588  -0.000060   0.004852
    22  H    0.004465  -0.002677   0.006588   0.697595  -0.004047   0.006606
    23  H   -0.000143  -0.000175  -0.000060  -0.004047   0.641980  -0.041984
    24  H    0.000205  -0.000088   0.004852   0.006606  -0.041984   0.654222
    25  H   -0.003966   0.000139  -0.000572  -0.000295   0.006196  -0.005880
    26  H    0.003736  -0.000042   0.000084   0.005129  -0.005172   0.006480
    27  H    0.000024  -0.000000  -0.000003   0.000009  -0.000402   0.004839
    28  H    0.000001  -0.000000   0.000001   0.000003  -0.000064  -0.000079
    29  H   -0.000013  -0.000000   0.000000   0.000003   0.006238  -0.000359
    30  H    0.000013  -0.000024   0.005015   0.007257   0.000091   0.005845
    31  H    0.000007   0.001396   0.000106   0.005156  -0.000001   0.000012
    32  H    0.000009   0.005182   0.000821   0.000063  -0.000002  -0.000002
    33  H    0.000000  -0.000207  -0.000056  -0.000102  -0.000003   0.000002
    34  H    0.000000  -0.000000  -0.000003   0.000069   0.003610   0.001260
    35  H   -0.000000  -0.000010   0.000009   0.005367   0.001234   0.000101
    36  H    0.000000   0.000002   0.000000   0.000005  -0.000007   0.000001
    37  H   -0.000000  -0.000000  -0.000001   0.000011   0.000047   0.000005
    38  H   -0.000000   0.000000  -0.000000   0.000000   0.000000   0.000000
    39  H    0.000000   0.000000   0.000000   0.000000  -0.000000   0.000000
    40  H    0.000000  -0.000000  -0.000000  -0.000000   0.000000  -0.000000
              25         26         27         28         29         30
     1  C    0.000183  -0.000008   0.000000  -0.000000   0.000000   0.000000
     2  C    0.002726   0.000093   0.000003   0.000001  -0.000001   0.000001
     3  C    0.008864  -0.002934  -0.000005   0.000029  -0.000009   0.000153
     4  C   -0.000110  -0.001063  -0.000015  -0.000000   0.000003  -0.005466
     5  C   -0.003474  -0.002069   0.000170  -0.000147   0.000055  -0.035126
     6  C   -0.027898  -0.033570  -0.004233   0.003442  -0.004367  -0.006507
     7  C    0.369629   0.371641  -0.027715  -0.021581  -0.027083   0.000066
     8  C   -0.036148  -0.040361   0.376542   0.371602   0.372220  -0.000002
     9  C   -0.000099   0.000189   0.000004   0.000001  -0.000000   0.352674
    10  C    0.000001   0.000005   0.000000  -0.000000   0.000000  -0.050248
    11  C   -0.000003  -0.000024  -0.000000   0.000000  -0.000010  -0.043632
    12  C    0.000000  -0.000000   0.000000  -0.000000   0.000000  -0.005060
    13  O    0.000000   0.000000   0.000000  -0.000000   0.000000   0.000019
    14  C    0.000000   0.000000   0.000000  -0.000000  -0.000000   0.000008
    15  H    0.000005   0.000000  -0.000000  -0.000000  -0.000000  -0.000000
    16  H    0.000045  -0.000006  -0.000000   0.000000  -0.000000  -0.000000
    17  H    0.000568  -0.000016  -0.000003   0.000022   0.000001   0.000000
    18  H   -0.000059  -0.000004  -0.000000   0.000000  -0.000000   0.000000
    19  H   -0.003966   0.003736   0.000024   0.000001  -0.000013   0.000013
    20  H    0.000139  -0.000042  -0.000000  -0.000000  -0.000000  -0.000024
    21  H   -0.000572   0.000084  -0.000003   0.000001   0.000000   0.005015
    22  H   -0.000295   0.005129   0.000009   0.000003   0.000003   0.007257
    23  H    0.006196  -0.005172  -0.000402  -0.000064   0.006238   0.000091
    24  H   -0.005880   0.006480   0.004839  -0.000079  -0.000359   0.005845
    25  H    0.617254  -0.040876  -0.005705  -0.003357   0.005979   0.000002
    26  H   -0.040876   0.650937   0.006012  -0.003117  -0.003954   0.000012
    27  H   -0.005705   0.006012   0.604575  -0.031893  -0.032352  -0.000001
    28  H   -0.003357  -0.003117  -0.031893   0.609768  -0.031648   0.000000
    29  H    0.005979  -0.003954  -0.032352  -0.031648   0.608146   0.000000
    30  H    0.000002   0.000012  -0.000001   0.000000   0.000000   0.698279
    31  H    0.000000  -0.000001  -0.000000   0.000000   0.000000   0.006255
    32  H    0.000000  -0.000000  -0.000000  -0.000000  -0.000000  -0.002945
    33  H    0.000000   0.000000   0.000000   0.000000  -0.000000  -0.002947
    34  H    0.000001   0.000029   0.000002  -0.000000  -0.000003  -0.003931
    35  H    0.000001   0.000006  -0.000000  -0.000000   0.000001   0.006644
    36  H   -0.000000   0.000000  -0.000000   0.000000  -0.000000  -0.000152
    37  H    0.000000   0.000000   0.000000  -0.000000  -0.000000   0.006340
    38  H   -0.000000   0.000000   0.000000  -0.000000  -0.000000   0.000000
    39  H   -0.000000  -0.000000  -0.000000  -0.000000   0.000000  -0.000001
    40  H   -0.000000   0.000000   0.000000   0.000000  -0.000000   0.000001
              31         32         33         34         35         36
     1  C   -0.000000  -0.000000  -0.000000   0.000000   0.000000   0.000000
     2  C    0.000000   0.000002  -0.000000   0.000000   0.000000   0.000000
     3  C   -0.000039  -0.000204  -0.000015   0.000003   0.000005   0.000000
     4  C   -0.000642  -0.002145   0.000428   0.000091   0.000145   0.000005
     5  C   -0.005267  -0.004794   0.002873  -0.005116  -0.003810  -0.000093
     6  C    0.000139   0.000060  -0.000118  -0.001106  -0.000764  -0.000008
     7  C    0.000003   0.000000   0.000001  -0.000176  -0.000048   0.000000
     8  C    0.000000   0.000000  -0.000000   0.000011  -0.000001  -0.000000
     9  C   -0.024172  -0.021525  -0.019598  -0.020327  -0.022574  -0.002856
    10  C    0.370785   0.369159   0.368276   0.005226  -0.007884  -0.000334
    11  C   -0.004599   0.004080  -0.005720   0.350948   0.352615  -0.031698
    12  C   -0.000582   0.000165  -0.002213  -0.027940  -0.030959   0.354053
    13  O   -0.000009  -0.000001   0.000003   0.003903   0.002523  -0.033152
    14  C    0.000001  -0.000001  -0.000004   0.000220   0.000132  -0.005345
    15  H    0.000000   0.000000   0.000000   0.000000   0.000000  -0.000000
    16  H   -0.000000   0.000000   0.000000  -0.000000   0.000000   0.000000
    17  H    0.000000  -0.000000  -0.000000   0.000000  -0.000000  -0.000000
    18  H    0.000000   0.000002  -0.000000  -0.000000  -0.000000   0.000000
    19  H    0.000007   0.000009   0.000000   0.000000  -0.000000   0.000000
    20  H    0.001396   0.005182  -0.000207  -0.000000  -0.000010   0.000002
    21  H    0.000106   0.000821  -0.000056  -0.000003   0.000009   0.000000
    22  H    0.005156   0.000063  -0.000102   0.000069   0.005367   0.000005
    23  H   -0.000001  -0.000002  -0.000003   0.003610   0.001234  -0.000007
    24  H    0.000012  -0.000002   0.000002   0.001260   0.000101   0.000001
    25  H    0.000000   0.000000   0.000000   0.000001   0.000001  -0.000000
    26  H   -0.000001  -0.000000   0.000000   0.000029   0.000006   0.000000
    27  H   -0.000000  -0.000000   0.000000   0.000002  -0.000000  -0.000000
    28  H    0.000000  -0.000000   0.000000  -0.000000  -0.000000   0.000000
    29  H    0.000000  -0.000000  -0.000000  -0.000003   0.000001  -0.000000
    30  H    0.006255  -0.002945  -0.002947  -0.003931   0.006644  -0.000152
    31  H    0.601000  -0.033784  -0.033870  -0.000026   0.004967   0.001106
    32  H   -0.033784   0.600946  -0.030669  -0.000168  -0.000067  -0.000167
    33  H   -0.033870  -0.030669   0.604488  -0.000020   0.000106   0.003713
    34  H   -0.000026  -0.000168  -0.000020   0.628513  -0.043029   0.007145
    35  H    0.004967  -0.000067   0.000106  -0.043029   0.635727  -0.006788
    36  H    0.001106  -0.000167   0.003713   0.007145  -0.006788   0.676484
    37  H    0.000106  -0.000085   0.000869  -0.008224   0.006876  -0.060729
    38  H   -0.000000   0.000000  -0.000000   0.000011   0.000008   0.000010
    39  H    0.000000   0.000000   0.000021   0.000063  -0.000059   0.015868
    40  H   -0.000000  -0.000000   0.000002  -0.000072   0.000041  -0.003025
              37         38         39         40
     1  C    0.000000  -0.000000   0.000000   0.000000
     2  C    0.000000   0.000000   0.000000  -0.000000
     3  C    0.000000  -0.000000   0.000000   0.000000
     4  C    0.000012   0.000000   0.000000   0.000000
     5  C    0.000175  -0.000000   0.000000   0.000000
     6  C   -0.000013  -0.000000  -0.000000   0.000000
     7  C    0.000000   0.000000  -0.000000   0.000000
     8  C   -0.000000   0.000000  -0.000000  -0.000000
     9  C    0.002926  -0.000000   0.000030   0.000046
    10  C   -0.000942   0.000000  -0.000026  -0.000001
    11  C   -0.033527  -0.000318   0.000151   0.000275
    12  C    0.341951   0.005311  -0.006681  -0.006678
    13  O   -0.031566  -0.018834  -0.034078  -0.033758
    14  C   -0.005182   0.383648   0.367758   0.369970
    15  H    0.000000   0.000000  -0.000000   0.000000
    16  H    0.000000  -0.000000  -0.000000  -0.000000
    17  H   -0.000000   0.000000   0.000000   0.000000
    18  H    0.000000   0.000000  -0.000000   0.000000
    19  H   -0.000000  -0.000000   0.000000   0.000000
    20  H   -0.000000   0.000000   0.000000  -0.000000
    21  H   -0.000001  -0.000000   0.000000  -0.000000
    22  H    0.000011   0.000000   0.000000  -0.000000
    23  H    0.000047   0.000000  -0.000000   0.000000
    24  H    0.000005   0.000000   0.000000  -0.000000
    25  H    0.000000  -0.000000  -0.000000  -0.000000
    26  H    0.000000   0.000000  -0.000000   0.000000
    27  H    0.000000   0.000000  -0.000000   0.000000
    28  H   -0.000000  -0.000000  -0.000000   0.000000
    29  H   -0.000000  -0.000000   0.000000  -0.000000
    30  H    0.006340   0.000000  -0.000001   0.000001
    31  H    0.000106  -0.000000   0.000000  -0.000000
    32  H   -0.000085   0.000000   0.000000  -0.000000
    33  H    0.000869  -0.000000   0.000021   0.000002
    34  H   -0.008224   0.000011   0.000063  -0.000072
    35  H    0.006876   0.000008  -0.000059   0.000041
    36  H   -0.060729   0.000010   0.015868  -0.003025
    37  H    0.688398  -0.000085  -0.002988   0.014483
    38  H   -0.000085   0.578378  -0.035598  -0.036097
    39  H   -0.002988  -0.035598   0.641892  -0.049616
    40  H    0.014483  -0.036097  -0.049616   0.640912
 Mulliken charges:
               1
     1  C   -0.416967
     2  C   -0.087507
     3  C   -0.009205
     4  C   -0.251928
     5  C   -0.018464
     6  C   -0.176973
     7  C   -0.166952
     8  C   -0.386718
     9  C    0.028317
    10  C   -0.410533
    11  C   -0.222490
    12  C   -0.047973
    13  O   -0.248173
    14  C   -0.224595
    15  H    0.111253
    16  H    0.123257
    17  H    0.127247
    18  H    0.076897
    19  H    0.085160
    20  H    0.115981
    21  H    0.099443
    22  H    0.067850
    23  H    0.100020
    24  H    0.086906
    25  H    0.116847
    26  H    0.088862
    27  H    0.110148
    28  H    0.107017
    29  H    0.107153
    30  H    0.067365
    31  H    0.111950
    32  H    0.116071
    33  H    0.114759
    34  H    0.109037
    35  H    0.099486
    36  H    0.085963
    37  H    0.081142
    38  H    0.123567
    39  H    0.103264
    40  H    0.103518
 Sum of Mulliken charges =  -0.00000
 Mulliken charges with hydrogens summed into heavy atoms:
               1
     1  C   -0.055211
     2  C   -0.010609
     3  C    0.075954
     4  C   -0.036505
     5  C    0.049386
     6  C    0.009953
     7  C    0.038757
     8  C   -0.062401
     9  C    0.095682
    10  C   -0.067753
    11  C   -0.013967
    12  C    0.119132
    13  O   -0.248173
    14  C    0.105754
 Electronic spatial extent (au):  <R**2>=           5379.6620
 Charge=             -0.0000 electrons
 Dipole moment (field-independent basis, Debye):
    X=              0.1270    Y=             -0.8397    Z=              0.7037  Tot=              1.1029
 Quadrupole moment (field-independent basis, Debye-Ang):
   XX=            -88.3522   YY=            -93.0952   ZZ=            -90.0791
   XY=             -3.8101   XZ=              2.5065   YZ=             -0.6037
 Traceless Quadrupole moment (field-independent basis, Debye-Ang):
   XX=              2.1566   YY=             -2.5864   ZZ=              0.4298
   XY=             -3.8101   XZ=              2.5065   YZ=             -0.6037
 Octapole moment (field-independent basis, Debye-Ang**2):
  XXX=             60.1542  YYY=             -2.6860  ZZZ=             -1.3278  XYY=              7.7323
  XXY=            -12.2576  XXZ=             13.6712  XZZ=              4.5304  YZZ=              0.9199
  YYZ=              0.9585  XYZ=              5.8274
 Hexadecapole moment (field-independent basis, Debye-Ang**3):
 XXXX=          -5337.7824 YYYY=          -1370.7763 ZZZZ=           -211.5387 XXXY=            -21.3247
 XXXZ=             21.6257 YYYX=             24.0251 YYYZ=            -14.8592 ZZZX=             -1.2875
[...]
 041,0.00000164,0.00000232,0.00000570,-0.00001307,0.00000450,0.00000937
 ,0.00001242,0.00001801,-0.00005215,0.00001914,0.00001884,0.00000675,-0
 .00005039,-0.00000522,0.00000448,0.00000954,0.00004775,-0.00004399,0.0
 0001259,0.00001256,0.00001318,-0.00001676,-0.00000137,-0.00000875,-0.0
 0000945,0.00000303,0.00000715,0.00000179,0.00000271,0.00000698,-0.0000
 0537,0.00000222,-0.00000183,0.00000483,0.00000351,-0.00000868,0.000070
 96,0.00003287,0.00004911,-0.00019046,-0.00001202,0.00002962,0.00049620
 ,0.00018372,0.00018006,0.00159239,-0.00058448,0.00049242,0.00014398,0.
 00048828,0.00039319,-0.00007965,0.00028206,0.00024727,0.04261441,0.232
 52675,-0.00000222,-0.00000850,-0.00000126,-0.00000380,0.00001576,0.000
 00393,0.00001405,0.00000399,-0.00005014,-0.00007675,-0.00002166,0.0000
 4834,-0.00005716,0.00026407,0.00010727,0.00005370,-0.00007978,0.000064
 00,0.00002120,0.00006242,-0.00001320,0.00000693,0.00000242,-0.00000301
 ,0.00001412,-0.00079188,-0.00015811,-0.00077284,-0.00044959,0.00035401
 ,0.00094156,-0.00281716,-0.00153635,-0.02941229,-0.10808510,-0.1293506
 5,0.00011770,0.02119475,0.01198545,0.00244157,0.00180308,0.00185113,-0
 .00000236,0.00000184,-0.00000251,-0.00000185,0.00000123,0.00000397,-0.
 00000165,0.00000194,0.00000164,0.00000186,0.00000180,0.00000749,-0.000
 01860,0.00000496,0.00001310,0.00002373,0.00002092,-0.00005374,0.000023
 84,0.00002733,0.00000440,-0.00010701,0.00000680,0.00002283,0.00002223,
 0.00006784,-0.00006900,0.00000897,0.00002645,0.00004005,-0.00002816,-0
 .00000688,-0.00001096,-0.00001985,-0.00000040,0.00000762,0.00000413,0.
 00000285,0.00000539,-0.00001055,-0.00000071,-0.00000117,0.00000607,0.0
 0000386,-0.00000403,-0.00007246,0.00002481,0.00026049,-0.00008171,0.00
 002118,0.00004427,0.00047690,0.00017273,0.00008315,0.00017704,0.000948
 47,-0.00064732,-0.00092045,0.00075389,0.00103946,-0.00033900,0.0007281
 8,0.00103158,0.03278211,0.11063050,0.13206834,-0.00000230,-0.00000723,
 0.00000106,0.00000202,0.00001306,0.00000183,0.00001136,0.00001082,-0.0
 0003925,-0.00007570,-0.00001830,-0.00003301,0.00010490,-0.00016340,-0.
 00039847,0.00000919,-0.00016114,0.00020129,0.00002700,0.00006478,-0.00
 008961,-0.00000028,0.00001181,0.00002288,0.00118562,-0.00084254,0.0021
 6904,-0.00018006,0.00014506,-0.00014551,-0.01665908,0.00043561,0.02907
 999,-0.10166118,-0.00568847,0.09401438,0.00483324,0.00365697,-0.012808
 13,0.00415921,0.00024484,-0.00294590,-0.00000276,0.00000387,-0.0000031
 2,-0.00000031,-0.00000164,0.00000064,-0.00000239,0.00000096,0.00000253
 ,-0.00000186,-0.00000206,0.00000187,0.00000111,-0.00000730,0.00000325,
 -0.00000567,0.00004447,-0.00000735,-0.00002265,0.00000378,-0.00003122,
 0.00027588,-0.00005141,-0.00006044,0.00007561,0.00020991,-0.00009192,-
 0.00003202,-0.00000935,-0.00008585,-0.00005697,-0.00001008,-0.00001908
 ,0.00000878,-0.00000960,0.00000708,0.00000346,-0.00000549,-0.00000976,
 -0.00001086,-0.00000560,-0.00000590,0.00000705,0.00001266,-0.00000743,
 -0.00003655,0.00029482,-0.00129002,0.00008831,-0.00023503,-0.00008763,
 0.00008162,0.00012372,-0.00003718,0.00004629,0.00025272,0.00011225,0.0
 0145297,-0.00025322,-0.00032127,-0.00627088,-0.00138570,-0.00118690,0.
 00411122,-0.00091904,-0.00585104,0.10794909,0.00000086,0.00000376,0.00
 000181,-0.00000110,-0.00000278,-0.00000132,-0.00000871,-0.00000280,0.0
 0001649,0.00002463,0.00000814,-0.00001758,0.00000037,-0.00012517,-0.00
 008080,-0.00001255,-0.00000757,0.00003222,-0.00000550,-0.00000483,-0.0
 0001129,0.00000419,-0.00000420,0.00000769,0.00043403,0.00035864,-0.000
 33513,0.00025409,0.00022202,-0.00034739,-0.00268750,0.00066384,0.00328
 663,-0.00395022,-0.05101282,0.00192111,-0.00577807,-0.01402424,0.03830
 780,-0.00580667,0.00033076,-0.00009915,0.00000278,-0.00000313,0.000001
 43,-0.00000016,-0.00000044,-0.00000122,0.00000430,-0.00000077,-0.00000
 101,0.00000037,0.00000027,0.00000009,0.00000022,0.00000161,-0.00000143
 ,0.00000130,-0.00000341,-0.00000285,-0.00000108,0.00000171,0.00000187,
 0.00005582,-0.00000439,0.00003319,-0.00000070,0.00000094,0.00000302,-0
 .00000440,-0.00000789,-0.00002433,0.00000180,0.00000174,0.00000154,0.0
 0000688,0.00000041,-0.00000111,-0.00000223,-0.00000043,-0.00000133,0.0
 0000493,0.00000375,-0.00000120,-0.00000156,0.00000162,-0.00000298,-0.0
 0000818,0.00017927,-0.00003098,-0.00009921,0.00002843,0.00012414,-0.00
 010136,-0.00002099,0.00013389,-0.00018971,-0.00005765,-0.00014449,0.00
 037989,0.00030360,0.00058195,-0.00031981,0.00067810,0.00044467,0.01090
 729,0.00239756,-0.02304441,0.00486374,0.05968802,0.00000334,0.00000410
 ,-0.00000459,0.00000293,-0.00000882,-0.00000018,0.00000577,-0.00001756
 ,0.00002872,0.00010184,-0.00000294,-0.00001216,-0.00008358,-0.00006687
 ,0.00044160,-0.00001130,0.00001933,-0.00007778,0.00000024,-0.00002036,
 0.00001061,-0.00000633,0.00000397,-0.00001550,-0.00018921,0.00023489,0
 .00047551,0.00034479,-0.00017384,0.00018435,-0.00135456,-0.00065330,0.
 00328441,0.09308320,0.00396715,-0.22539446,-0.00105641,0.01807951,-0.0
 1946751,0.00506949,-0.00024416,0.00123517,-0.00000077,0.00000051,0.000
 00130,0.00000018,0.00000201,0.00000121,-0.00000226,-0.00000115,-0.0000
 0049,0.00000063,0.00000204,0.00000086,-0.00000174,0.00000331,0.0000007
 1,-0.00000519,-0.00001889,-0.00000852,0.00001482,0.00000808,0.00000595
 ,-0.00014221,-0.00001775,-0.00009994,-0.00002579,-0.00002653,0.0000352
 8,0.00000808,0.00000150,0.00001146,0.00001260,-0.00000155,0.00000580,-
 0.00000160,0.00000213,-0.00000165,-0.00000114,0.00000189,0.00000266,0.
 00000025,-0.00000353,0.00000245,-0.00000072,-0.00000645,0.00000823,0.0
 0038851,-0.00030486,0.00052352,-0.00027320,0.00004821,0.00011407,0.000
 00626,-0.00002627,0.00008951,0.00004189,-0.00029317,-0.00026645,0.0003
 2378,0.00027083,0.00050402,-0.00136343,0.00040254,0.00101454,0.0100407
 4,-0.00157680,-0.01655970,-0.10202246,-0.01922281,0.25362747,-0.000004
 30,-0.00001099,-0.00000683,-0.00000778,0.00001217,0.00001074,0.0000198
 0,-0.00000725,-0.00005959,-0.00009879,-0.00001438,0.00003584,0.0000608
 9,0.00019724,-0.00015975,-0.00002052,0.00003554,0.00000515,0.00002801,
 -0.00000925,-0.00000634,-0.00001885,0.00001584,-0.00000644,-0.00066326
 ,-0.00036435,0.00019875,-0.00002831,-0.00005096,-0.00005296,-0.0000119
 8,0.00187316,-0.00116465,-0.00540198,-0.00281617,0.00028415,-0.0202764
 8,0.03466852,-0.02183038,-0.05760005,0.04001522,-0.02183473,-0.0000063
 3,0.00000753,-0.00000211,0.00000030,0.00000161,0.00000257,-0.00001159,
 0.00000257,0.00000261,0.00000041,0.00000132,-0.00000171,-0.00000053,0.
 00000051,0.00000330,0.00000062,-0.00000389,0.00001667,-0.00001163,0.00
 000280,-0.00001838,-0.00002424,0.00000026,0.00001076,0.00002084,0.0000
 1884,-0.00000799,0.00000142,-0.00000441,-0.00000086,-0.00000985,-0.000
 00178,-0.00000207,-0.00000513,-0.00000020,0.00000150,0.00000301,-0.000
 00234,-0.00000280,-0.00000975,-0.00001240,-0.00000005,0.00000356,-0.00
 000286,0.00000629,0.00001923,-0.00000609,-0.00001046,0.00000514,0.0000
 0018,0.00001096,-0.00002312,0.00004243,-0.00000886,-0.00001220,-0.0000
 3843,0.00001333,0.00010078,-0.00007596,-0.00003731,-0.00000217,0.00003
 592,0.00009073,0.00002276,0.00029588,0.00024317,0.00008564,0.00012480,
 -0.00056130,0.07576020,0.00000128,0.00000573,0.00000508,0.00000046,-0.
 00000444,-0.00000554,-0.00001370,0.00000688,0.00002467,0.00002253,0.00
 000505,-0.00001543,-0.00004065,-0.00002716,0.00002434,0.00002256,-0.00
 000813,-0.00000846,-0.00001928,-0.00000048,0.00000813,0.00001105,-0.00
 000933,0.00000244,0.00002431,0.00008069,-0.00006470,-0.00002247,-0.000
 01487,0.00002997,-0.00034958,0.00013782,0.00018238,-0.00028384,0.00183
 647,-0.00095226,0.00259320,0.00386845,-0.00122502,0.05102242,-0.243711
 70,0.10869342,0.00000471,-0.00000603,0.00000167,-0.00000046,-0.0000013
 1,-0.00000187,0.00000802,-0.00000090,-0.00000188,0.00000026,-0.0000003
 8,0.00000036,-0.00000033,-0.00000007,-0.00000144,0.00000230,0.00000262
 ,-0.00001170,0.00000586,0.,0.00000791,0.00000925,-0.00000052,-0.000003
 95,-0.00001269,-0.00001684,0.00001501,-0.00000125,0.00000028,-0.000003
 56,0.00001009,0.00000164,0.00000263,0.00000526,0.00000001,-0.00000232,
 -0.00000300,0.00000116,0.00000058,0.00000947,0.00000764,0.00000084,-0.
 00000414,0.00000124,-0.00000216,-0.00000309,-0.00000634,0.00000517,-0.
 00000680,0.00000549,-0.00000180,0.00002349,-0.00002382,0.00001033,0.00
 001904,0.00003084,-0.00001921,0.00011016,0.00001314,0.00001926,0.00004
 691,-0.00000670,-0.00002267,-0.00019990,0.00049349,0.00006113,-0.00008
 287,-0.00004363,0.00006627,-0.05656194,0.25735035,-0.00000156,-0.00000
 482,-0.00000384,-0.00000212,0.00000502,0.00000545,0.00001085,-0.000005
 31,-0.00002335,-0.00003070,-0.00000663,0.00001379,0.00003423,0.0000543
 4,-0.00004280,-0.00001322,0.00000985,0.00000820,0.00001451,-0.00000127
 ,-0.00000496,-0.00000970,0.00000851,0.,-0.00011822,-0.00010776,0.00007
 484,0.00000071,-0.00001244,-0.00001804,0.00006068,0.00062715,0.0002565
 7,-0.00099470,-0.00151295,0.00074735,-0.00570985,0.00541249,-0.0034369
 9,-0.02739651,0.10646712,-0.10976404,-0.00000352,0.00000454,-0.0000013
 0,0.00000021,0.00000064,0.00000119,-0.00000625,0.00000104,0.00000165,0
 .00000016,0.00000023,-0.00000095,-0.00000019,-0.00000016,0.00000122,-0
 .00000061,-0.00000305,0.00000837,-0.00000499,0.00000160,-0.00000888,-0
 .00000743,-0.00000363,0.00000389,0.00000905,0.00001484,-0.00000470,0.0
 0000055,-0.00000028,-0.00000427,-0.00000663,-0.00000128,-0.00000192,-0
 .00000176,-0.00000206,0.00000058,0.00000203,-0.00000160,-0.00000418,-0
 .00000576,-0.00000695,-0.00000050,0.00000170,-0.00000019,0.00000354,0.
 00001020,0.00000902,-0.00000047,-0.00000516,-0.00000339,0.00000603,-0.
 00001087,0.00002142,-0.00000374,-0.00000673,-0.00002435,-0.00000359,0.
 00006151,-0.00002417,-0.00000655,-0.00014948,-0.00001718,-0.00000865,-
 0.00003316,0.00049083,0.00009572,0.00013191,-0.00023786,0.00047406,0.0
 3469158,-0.11856249,0.11383314,-0.00000162,-0.00000748,-0.00000560,-0.
 00000150,0.00000838,0.00000628,0.00001655,-0.00000651,-0.00003472,-0.0
 0003411,-0.00000504,0.00002157,0.00004853,0.00004658,-0.00003176,-0.00
 000852,-0.00001242,0.00002528,0.00002356,0.00000463,-0.00001051,-0.000
 01080,0.00000773,0.00000173,-0.00005892,0.00000174,0.00021756,-0.00005
 059,0.00002782,-0.00008964,-0.00021073,0.00027283,-0.00009955,0.002959
 09,-0.00772263,0.00217882,-0.02820895,-0.02744696,-0.02737977,-0.05695
 485,-0.03028490,-0.02332679,-0.00000534,0.00000649,-0.00000212,0.00000
 007,0.00000128,0.00000239,-0.00000817,0.00000134,0.00000237,-0.0000002
 8,0.00000010,0.00000082,-0.00000142,0.00000020,0.00000307,0.00000064,0
 .00000142,0.00000922,-0.00000656,0.00000080,-0.00000763,-0.00001429,0.
 00000129,0.00000685,0.00002052,0.00001852,-0.00002518,0.00000144,0.000
 00071,0.00000785,-0.00001382,-0.00000110,-0.00000538,-0.00000698,0.000
 00008,0.00000392,0.00000391,-0.00000080,0.00000024,-0.00001137,-0.0000
 0692,-0.00000179,0.00000555,0.00000073,-0.00000131,0.00000816,0.000005
 67,-0.00000274,-0.00000933,-0.00000397,0.00000923,-0.00001409,0.000060
 02,-0.00000128,-0.00000096,-0.00003120,0.00000017,0.00025504,0.0002389
 9,0.00016203,-0.00002554,-0.00001143,0.00002102,0.00065314,0.00193916,
 0.00077521,-0.00024385,0.00090483,-0.00033890,0.00285245,0.00409526,0.
 00464533,0.07345815,-0.00000019,-0.00000624,-0.00000536,-0.00000020,0.
 00000751,0.00000461,0.00001530,-0.00000727,-0.00003326,-0.00003338,-0.
 00000558,0.00001610,0.00003123,0.00004442,-0.00003651,-0.00000192,-0.0
 0000376,0.00000602,0.00001878,-0.00000036,-0.00000530,-0.00000612,0.00
 000245,-0.00000026,-0.00006055,-0.00007721,0.00004629,-0.00001280,0.00
 002302,-0.00007072,0.00023148,0.00056232,0.00005693,0.00124100,0.00215
 057,0.00272462,-0.00880413,0.00247914,-0.00062610,-0.03418092,-0.20100
 420,-0.10797433,-0.00000539,0.00000588,-0.00000212,-0.00000031,0.00000
 136,0.00000280,-0.00000762,0.00000091,0.00000217,-0.00000060,0.0000007
 0,0.00000283,-0.00000261,0.00000137,0.00000475,-0.00000051,-0.00000004
 ,0.00000731,-0.00000439,0.00000192,-0.00000363,-0.00001643,0.00000428,
 0.00000885,0.00001515,0.00001246,-0.00001702,-0.00000015,0.00000223,0.
 00001250,-0.00001008,-0.00000015,-0.00000559,-0.00000799,0.00000280,0.
 00000542,0.00000341,0.00000094,0.00000493,-0.00001177,-0.00000408,-0.0
 0000155,0.00000561,0.00000032,-0.00000406,-0.00000430,0.00001135,0.000
 00466,-0.00000382,-0.00000312,0.00001398,-0.00003498,0.00003148,-0.000
 00622,-0.00002896,-0.00004284,0.00000463,0.00030274,-0.00013338,0.0000
 9355,-0.00002836,-0.00002828,0.00002027,-0.00133322,0.00097537,-0.0013
 3924,0.00008627,-0.00007105,-0.00044001,-0.00401786,-0.01973966,-0.016
 60873,0.04589967,0.21331351,0.00000026,-0.00000282,-0.00000143,-0.0000
 0033,0.00000407,0.00000078,0.00000582,-0.00000136,-0.00001543,-0.00002
 052,-0.00000465,0.00000776,0.00001391,0.00003735,-0.00001231,0.0000174
 4,-0.00001244,0.00000108,0.00000669,0.00000365,0.00000146,0.00000017,-
 0.00000144,-0.00000090,-0.00006454,-0.00005617,0.00000158,-0.00005928,
 -0.00001824,-0.00001634,-0.00011296,0.00053395,0.00007791,0.00115992,-
 0.00318429,0.00094493,-0.01151282,-0.00213977,-0.00040801,-0.02470563,
 -0.10771187,-0.13109066,-0.00000201,0.00000183,-0.00000115,-0.00000054
 ,0.00000051,0.00000151,-0.00000208,0.00000059,0.00000078,-0.00000015,0
 .00000050,0.00000238,-0.00000315,0.00000126,0.00000358,0.00000200,0.00
 000230,-0.00000311,0.00000174,0.00000355,0.00000095,-0.00001124,0.0000
 0186,0.00000582,0.00000717,0.00000494,-0.00000584,-0.00000034,0.000004
 10,0.00000897,-0.00000341,-0.00000039,-0.00000339,-0.00000415,0.000001
 25,0.00000297,0.00000146,0.00000140,0.00000318,-0.00000482,-0.00000010
 ,-0.00000048,0.00000232,0.00000115,-0.00000240,-0.00000360,0.00001013,
 0.00001357,-0.00001289,0.00000313,0.00001313,0.00001081,0.00002470,0.0
 0000532,0.00002003,-0.00000069,-0.00002376,0.00025867,0.00008413,0.000
 05970,0.00000447,-0.00000495,-0.00000132,-0.00026982,0.00098671,-0.000
 07526,0.00016724,-0.00002113,-0.00041229,0.00371323,0.01247191,0.00988
 618,0.03476806,0.12240786,0.13748136,-0.00000297,-0.00000897,-0.000006
 48,-0.00000196,0.00001124,0.00000804,0.00001777,-0.00000549,-0.0000425
 3,-0.00004766,-0.00000196,0.00002820,0.00006243,0.00006175,-0.00005712
 ,-0.00001759,0.00000007,0.00004297,0.00002404,0.00000132,-0.00001374,-
 0.00001268,0.00000917,0.00000695,-0.00006333,-0.00015061,0.00005426,-0
 .00004739,0.00001228,-0.00007768,0.00005865,0.00029686,-0.00060329,0.0
 0278319,-0.00621791,0.00561615,-0.04187941,-0.00065976,0.02416181,-0.1
 0329123,-0.00503828,0.09653435,-0.00000644,0.00000799,-0.00000287,0.00
 000033,0.00000073,0.00000243,-0.00000950,0.00000179,0.00000314,-0.0000
 0071,-0.00000112,-0.00000049,-0.00000007,-0.00000209,0.00000231,-0.000
 00062,0.,0.00001593,-0.00001130,-0.00000252,-0.00001333,-0.00000800,-0
 .00000345,0.00000478,0.00002039,0.00002612,-0.00002397,0.00000179,-0.0
 0000291,-0.00000303,-0.00001576,-0.00000075,-0.00000684,-0.00000326,-0
 .00000225,0.00000289,0.00000423,-0.00000268,-0.00000346,-0.00001203,-0
 .00000851,-0.00000255,0.00000515,0.00000242,-0.00000191,-0.00002976,0.
 00005346,-0.00007616,0.00001973,-0.00001471,0.00000158,-0.00002799,0.0
 0004804,-0.00001302,-0.00002005,-0.00003456,0.00002399,0.00010175,-0.0
 0000372,0.00010489,0.00033455,-0.00000470,-0.00007802,-0.00021201,0.00
 084930,-0.00037632,0.00074578,0.00100158,-0.00200720,0.00526377,-0.000
 44193,-0.00515609,0.00559576,0.00076890,-0.00336714,0.13068239,-0.0000
 0079,-0.00000272,-0.00000303,-0.00000051,0.00000319,0.00000377,0.00000
 736,-0.00000434,-0.00001398,-0.00000983,-0.00000048,0.00000936,0.00001
 429,0.00001756,-0.00000229,-0.00001355,0.00000522,0.00001188,0.0000095
 5,-0.00000150,-0.00000633,-0.00000592,0.00000467,0.00000304,0.00000900
 ,-0.00003226,0.00002953,0.00002195,0.00000010,-0.00001618,0.00010482,0
 .00000040,0.00005412,0.00099186,0.00052556,-0.00240712,-0.00231239,0.0
 0281472,0.00300562,-0.00613390,-0.05336686,0.01186113,-0.00000242,0.00
 000313,-0.00000078,0.00000016,0.00000038,0.00000078,-0.00000417,0.0000
 0042,0.00000125,-0.00000006,-0.00000006,-0.00000031,0.00000005,-0.0000
 0030,0.00000065,-0.00000050,-0.00000210,0.00000587,-0.00000368,-0.0000
 0006,-0.00000491,-0.00001007,-0.00000298,0.00000040,0.00000453,0.00000
 871,-0.00000714,0.00000084,-0.00000092,-0.00000368,-0.00000544,-0.0000
 0009,-0.00000181,-0.00000076,-0.00000105,0.00000074,0.00000139,-0.0000
 0129,-0.00000244,-0.00000423,-0.00000412,-0.00000094,0.00000148,0.0000
 0024,0.00000025,0.00000610,0.00000673,0.00002183,-0.00001480,-0.000000
 72,0.00000808,-0.00001292,0.00001388,0.00000090,-0.00000828,-0.0000292
 4,-0.00000721,-0.00003164,-0.00001752,0.00001337,-0.00002425,-0.000074
 18,0.00005411,-0.00005301,0.00002934,-0.00020990,-0.00062041,0.0005239
 9,0.00000935,-0.01335083,-0.00022667,0.02401993,0.01199509,0.00149091,
 -0.02343252,0.00945587,0.04832031,0.00000153,0.00000396,0.00000232,-0.
 00000107,-0.00000582,-0.00000234,-0.00000863,-0.00000237,0.00001906,0.
 00002269,0.00000602,-0.00001364,-0.00001544,-0.00003974,0.00002178,0.0
 0000851,-0.00000090,-0.00002474,-0.00000939,-0.00000117,0.00000518,0.0
 0000445,-0.00000274,-0.00000829,0.00011040,0.00005027,-0.00008876,0.00
 003054,-0.00000920,0.00001141,-0.00015195,-0.00021594,0.00041424,-0.00
 155066,-0.00001554,0.00282049,-0.00046285,0.00100890,0.01316259,0.1003
 8703,0.01262365,-0.23251675,0.00000326,-0.00000392,0.00000191,-0.00000
 011,0.00000056,-0.00000094,0.00000404,-0.00000078,-0.00000194,0.000000
 99,0.00000149,0.00000016,-0.00000070,0.00000305,-0.00000050,-0.0000011
 1,-0.00000400,-0.00000771,0.00000708,0.00000284,0.00000814,0.00000236,
 0.00000378,0.00000332,-0.00000754,-0.00001368,0.00001236,-0.00000192,0
 .00000329,0.00000475,0.00000766,-0.00000037,0.00000500,-0.00000088,0.0
 0000265,-0.00000067,-0.00000250,0.00000217,0.00000359,0.00000541,0.000
 00321,0.00000135,-0.00000140,-0.00000304,0.00000315,-0.00000033,0.0000
 0428,0.00001070,-0.00002237,0.00000775,0.00001395,0.00001478,-0.000022
 31,0.00001391,0.00000532,0.00002460,-0.00001921,-0.00004290,-0.0000005
 4,-0.00002316,-0.00018637,0.00003778,-0.00010204,-0.00005759,-0.000186
 93,-0.00060720,0.00166119,-0.00126777,0.00023777,0.00643428,-0.0007270
 3,-0.01207806,0.00849565,0.00172894,-0.01645081,-0.11468143,-0.0129954
 0,0.24516963\\0.00000089,-0.00000004,0.00000040,-0.00000048,-0.0000005
 1,0.00000133,-0.00000170,-0.00000240,-0.00000063,0.00000210,0.00000198
 ,-0.00000120,0.00000019,0.00000215,0.00000069,-0.00000108,-0.00000027,
 -0.00000042,0.00000200,0.00000112,0.00000152,-0.00000035,-0.00000166,-
 0.00000057,-0.00000268,-0.00000016,0.00000009,0.00000050,-0.00000104,-
 0.00000067,-0.00000040,-0.00000122,-0.00000009,-0.00000121,0.00000119,
 -0.00000124,0.00000034,-0.00000016,-0.00000002,0.00000205,-0.00000111,
 0.00000064,-0.00000020,0.00000034,0.00000011,-0.00000015,-0.00000021,0
 .00000016,0.00000027,-0.00000012,-0.00000011,-0.00000053,-0.00000002,0
 .00000015,0.00000060,-0.00000020,0.00000110,-0.00000016,-0.00000110,-0
 .00000146,-0.00000049,0.00000079,-0.00000049,0.00000020,-0.00000032,0.
 00000014,0.00000010,0.00000030,0.00000047,0.00000039,-0.00000020,-0.00
 000029,-0.00000042,0.,-0.00000009,-0.00000081,-0.00000031,-0.00000023,
 0.00000009,0.00000047,-0.00000004,0.00000027,0.00000035,0.00000046,0.0
 0000043,0.00000062,-0.00000010,-0.00000070,0.00000025,-0.00000057,0.00
 000017,0.00000016,0.00000032,0.00000010,0.00000092,0.00000065,-0.00000
 042,0.,-0.00000017,0.00000139,0.00000039,0.00000086,-0.00000043,0.0000
 0050,-0.00000039,0.00000033,-0.00000062,0.00000013,-0.00000045,0.00000
 007,0.00000011,0.00000108,-0.00000009,-0.00000003,-0.00000030,-0.00000
 004,-0.00000040,-0.00000053,0.00000022,-0.00000014\\\@


 I LOVE MANKIND - IT'S PEOPLE I CAN'T STAND.
     -- LINUS OF PEANUTS
 Job cpu time:       0 days 11 hours 28 minutes 36.3 seconds.
 Elapsed time:       0 days  2 hours 52 minutes 11.3 seconds.
 File lengths (MBytes):  RWF=    760 Int=      0 D2E=      0 Chk=     23 Scr=      1
 Normal termination of Gaussian 16 at Tue May 23 07:29:01 2023.
### All Done ###
