### Starting Gaussian ###
 Entering Gaussian System, Link 0=g16
 Initial command:
 /cluster/software/gaussian/gaussian-16-A.03/avx2/g16/l1.exe "/local/scratch/cz9n3/Gau-22738.inp" -scrdir="/local/scratch/cz9n3/"
 Entering Link 1 = /cluster/software/gaussian/gaussian-16-A.03/avx2/g16/l1.exe PID=     22742.
  
 Copyright (c) 1988,1990,1992,1993,1995,1998,2003,2009,2016,
            Gaussian, Inc.  All Rights Reserved.
  
 This is part of the Gaussian(R) 16 program.  It is based on
 the Gaussian(R) 09 system (copyright 2009, Gaussian, Inc.),
 the Gaussian(R) 03 system (copyright 2003, Gaussian, Inc.),
 the Gaussian(R) 98 system (copyright 1998, Gaussian, Inc.),
 the Gaussian(R) 94 system (copyright 1995, Gaussian, Inc.),
 the Gaussian 92(TM) system (copyright 1992, Gaussian, Inc.),
 the Gaussian 90(TM) system (copyright 1990, Gaussian, Inc.),
 the Gaussian 88(TM) system (copyright 1988, Gaussian, Inc.),
 the Gaussian 86(TM) system (copyright 1986, Carnegie Mellon
 University), and the Gaussian 82(TM) system (copyright 1983,
 Carnegie Mellon University). Gaussian is a federally registered
 trademark of Gaussian, Inc.
  
 This software contains proprietary and confidential information,
 including trade secrets, belonging to Gaussian, Inc.
  
 This software is provided under written license and may be
 used, copied, transmitted, or stored only in accord with that
 written license.
  
 The following legend is applicable only to US Government
 contracts under FAR:
  
                    RESTRICTED RIGHTS LEGEND
  
 Use, reproduction and disclosure by the US Government is
 subject to restrictions as set forth in subparagraphs (a)
 and (c) of the Commercial Computer Software - Restricted
 Rights clause in FAR 52.227-19.
  
 Gaussian, Inc.
 340 Quinnipiac St., Bldg. 40, Wallingford CT 06492
  
  
 ---------------------------------------------------------------
 Warning -- This program may not be used in any manner that
 competes with the business of Gaussian, Inc. or will provide
 assistance to any competitor of Gaussian, Inc.  The licensee
 of this program is prohibited from giving any competitor of
 Gaussian, Inc. access to this program.  By using this program,
 the user acknowledges that Gaussian, Inc. is engaged in the
 business of creating and licensing software in the field of
 computational chemistry and represents and warrants to the
 licensee that it is not a competitor of Gaussian, Inc. and that
 it will not use this program in any manner prohibited above.
 ---------------------------------------------------------------
  

 Cite this work as:
 Gaussian 16, Revision A.03,
 M. J. Frisch, G. W. Trucks, H. B. Schlegel, G. E. Scuseria, 
 M. A. Robb, J. R. Cheeseman, G. Scalmani, V. Barone, 
 G. A. Petersson, H. Nakatsuji, X. Li, M. Caricato, A. V. Marenich, 
 J. Bloino, B. G. Janesko, R. Gomperts, B. Mennucci, H. P. Hratchian, 
 J. V. Ortiz, A. F. Izmaylov, J. L. Sonnenberg, D. Williams-Young, 
 F. Ding, F. Lipparini, F. Egidi, J. Goings, B. Peng, A. Petrone, 
 T. Henderson, D. Ranasinghe, V. G. Zakrzewski, J. Gao, N. Rega, 
 G. Zheng, W. Liang, M. Hada, M. Ehara, K. Toyota, R. Fukuda, 
 J. Hasegawa, M. Ishida, T. Nakajima, Y. Honda, O. Kitao, H. Nakai, 
 T. Vreven, K. Throssell, J. A. Montgomery, Jr., J. E. Peralta, 
 F. Ogliaro, M. J. Bearpark, J. J. Heyd, E. N. Brothers, K. N. Kudin, 
 V. N. Staroverov, T. A. Keith, R. Kobayashi, J. Normand, 
 K. Raghavachari, A. P. Rendell, J. C. Burant, S. S. Iyengar, 
 J. Tomasi, M. Cossi, J. M. Millam, M. Klene, C. Adamo, R. Cammi, 
 J. W. Ochterski, R. L. Martin, K. Morokuma, O. Farkas, 
 J. B. Foresman, and D. J. Fox, Gaussian, Inc., Wallingford CT, 2016.
 
 ******************************************
 Gaussian 16:  ES64L-G16RevA.03 25-Dec-2016
                26-May-2023 
 ******************************************
 %chk=CCdCC1CCdC1C1CdCCdC1.chk
 %NProcShared=20
 Will use up to   20 processors via shared memory.
 ----------------------------------------------------------------
 # opt freq b3lyp/6-31+g(2df,p) Geom=AllCheckpoint TD(NStates=10)
 ----------------------------------------------------------------
 1/18=20,19=15,26=3,29=7,38=1/1,3;
 2/9=110,12=2,40=1/2;
 3/5=1,6=6,7=114,11=9,14=-4,25=1,30=1,71=1,74=-5/1,2,3,8;
 4//1;
 5/5=2,38=5/2;
 8/6=1,10=2,108=10/1;
 9/15=2,41=10,42=1,70=2/14;
 10/5=4/2;
 6/7=2,8=2,9=2,10=2/1;
 7/12=6,13=5/1,2,3,16;
 1/18=20,19=15,26=3/3(2);
 2/9=110/2;
 99//99;
 2/9=110/2;
 3/5=1,6=6,7=114,11=9,14=-2,25=1,30=1,71=1,74=-5/1,2,3,8;
 4/5=5,16=3,69=1/1;
 5/5=2,38=5/2;
 8/6=1,10=2,108=10/1;
 9/15=2,41=10,42=1,49=4,70=2/14;
 10/5=4/2;
 7/12=6,13=5/1,2,3,16;
 1/18=20,19=15,26=3/3(-8);
 2/9=110/2;
 6/7=2,8=2,9=2,10=2/1;
 99//99;
 Structure from the checkpoint file:  "CCdCC1CCdC1C1CdCCdC1.chk"
 -------------------
 Title Card Required
 -------------------
 Charge =  0 Multiplicity = 1
 Redundant internal coordinates found in file.  (old form).
 C,0,0.912956979,-0.0435952889,0.0065050455
 C,0,2.4115042042,0.0179052866,0.0661837234
 C,0,3.2046807685,0.2653144184,-0.9746968407
 C,0,4.7033434712,0.3252121097,-0.9776761507
 C,0,5.4886818626,0.5077347012,0.3731786205
 C,0,6.0517375029,1.7683138361,-0.2533389492
 C,0,5.3715914016,1.6442340571,-1.3986700793
 C,0,5.3004026231,2.4426212588,-2.6654823254
 C,0,5.7017134387,1.6787819589,-3.9102946773
 C,0,4.7190748831,1.7601916921,-4.8242435744
 C,0,3.6103134723,2.5526697177,-4.277091276
 C,0,3.9196138073,2.9489381867,-3.0297503208
 H,0,0.4561164262,0.6928295647,0.6799824017
 H,0,0.5407332785,-1.0260541248,0.3238520006
 H,0,0.5430325591,0.1475484531,-1.0052148666
 H,0,2.8524027896,-0.166519373,1.044352045
 H,0,2.7459492133,0.4369533911,-1.9486253263
 H,0,5.0932037841,-0.5213915959,-1.5615379135
 H,0,6.2090655236,-0.2860818414,0.5995361759
 H,0,4.857965346,0.6658483118,1.2524683768
 H,0,6.7685970591,2.4993839481,0.1054332807
 H,0,5.9741079764,3.3069300103,-2.5439600552
 H,0,6.6490845668,1.1656587848,-4.0060268194
 H,0,4.7281757296,1.3264581778,-5.8167065961
 H,0,2.6975878795,2.7788361089,-4.8146342944
 H,0,3.3140734538,3.54011825,-2.3565116048
 Recover connectivity data from disk.

 GradGradGradGradGradGradGradGradGradGradGradGradGradGradGradGradGradGrad
 Berny optimization.
 Initialization pass.
                           ----------------------------
                           !    Initial Parameters    !
                           ! (Angstroms and Degrees)  !
 --------------------------                            --------------------------
 ! Name  Definition              Value          Derivative Info.                !
 --------------------------------------------------------------------------------
 ! R1    R(1,2)                  1.501          estimate D2E/DX2                !
 ! R2    R(1,13)                 1.0975         estimate D2E/DX2                !
 ! R3    R(1,14)                 1.0975         estimate D2E/DX2                !
 ! R4    R(1,15)                 1.0941         estimate D2E/DX2                !
 ! R5    R(2,3)                  1.3318         estimate D2E/DX2                !
 ! R6    R(2,16)                 1.0887         estimate D2E/DX2                !
 ! R7    R(3,4)                  1.4999         estimate D2E/DX2                !
 ! R8    R(3,17)                 1.0902         estimate D2E/DX2                !
 ! R9    R(4,5)                  1.5732         estimate D2E/DX2                !
 ! R10   R(4,7)                  1.5374         estimate D2E/DX2                !
 ! R11   R(4,18)                 1.0998         estimate D2E/DX2                !
 ! R12   R(5,6)                  1.5161         estimate D2E/DX2                !
 ! R13   R(5,19)                 1.0956         estimate D2E/DX2                !
 ! R14   R(5,20)                 1.0936         estimate D2E/DX2                !
 ! R15   R(6,7)                  1.3378         estimate D2E/DX2                !
 ! R16   R(6,21)                 1.0849         estimate D2E/DX2                !
 ! R17   R(7,8)                  1.4991         estimate D2E/DX2                !
 ! R18   R(8,9)                  1.5146         estimate D2E/DX2                !
 ! R19   R(8,12)                 1.5151         estimate D2E/DX2                !
 ! R20   R(8,22)                 1.1026         estimate D2E/DX2                !
 ! R21   R(9,10)                 1.3444         estimate D2E/DX2                !
 ! R22   R(9,23)                 1.0817         estimate D2E/DX2                !
 ! R23   R(10,11)                1.4686         estimate D2E/DX2                !
 ! R24   R(10,24)                1.0831         estimate D2E/DX2                !
 ! R25   R(11,12)                1.3448         estimate D2E/DX2                !
 ! R26   R(11,25)                1.0831         estimate D2E/DX2                !
 ! R27   R(12,26)                1.0814         estimate D2E/DX2                !
 ! A1    A(2,1,13)             111.3259         estimate D2E/DX2                !
 ! A2    A(2,1,14)             111.333          estimate D2E/DX2                !
 ! A3    A(2,1,15)             111.5418         estimate D2E/DX2                !
 ! A4    A(13,1,14)            106.3823         estimate D2E/DX2                !
 ! A5    A(13,1,15)            108.0277         estimate D2E/DX2                !
 ! A6    A(14,1,15)            108.0061         estimate D2E/DX2                !
 ! A7    A(1,2,3)              124.8284         estimate D2E/DX2                !
 ! A8    A(1,2,16)             115.6649         estimate D2E/DX2                !
 ! A9    A(3,2,16)             119.5042         estimate D2E/DX2                !
 ! A10   A(2,3,4)              127.1604         estimate D2E/DX2                !
 ! A11   A(2,3,17)             118.4806         estimate D2E/DX2                !
 ! A12   A(4,3,17)             114.3555         estimate D2E/DX2                !
 ! A13   A(3,4,5)              120.1148         estimate D2E/DX2                !
 ! A14   A(3,4,7)              117.9771         estimate D2E/DX2                !
 ! A15   A(3,4,18)             108.9355         estimate D2E/DX2                !
 ! A16   A(5,4,7)               85.3315         estimate D2E/DX2                !
 ! A17   A(5,4,18)             111.6045         estimate D2E/DX2                !
 ! A18   A(7,4,18)             111.16           estimate D2E/DX2                !
 ! A19   A(4,5,6)               85.815          estimate D2E/DX2                !
 ! A20   A(4,5,19)             114.9348         estimate D2E/DX2                !
 ! A21   A(4,5,20)             114.7887         estimate D2E/DX2                !
 ! A22   A(6,5,19)             116.3348         estimate D2E/DX2                !
 ! A23   A(6,5,20)             115.2287         estimate D2E/DX2                !
 ! A24   A(19,5,20)            108.5333         estimate D2E/DX2                !
 ! A25   A(5,6,7)               95.0402         estimate D2E/DX2                !
 ! A26   A(5,6,21)             131.99           estimate D2E/DX2                !
 ! A27   A(7,6,21)             132.9628         estimate D2E/DX2                !
 ! A28   A(4,7,6)               93.7911         estimate D2E/DX2                !
 ! A29   A(4,7,8)              131.889          estimate D2E/DX2                !
 ! A30   A(6,7,8)              134.2831         estimate D2E/DX2                !
 ! A31   A(7,8,9)              114.4154         estimate D2E/DX2                !
 ! A32   A(7,8,12)             115.1137         estimate D2E/DX2                !
 ! A33   A(7,8,22)             107.1775         estimate D2E/DX2                !
 ! A34   A(9,8,12)             102.263          estimate D2E/DX2                !
 ! A35   A(9,8,22)             108.906          estimate D2E/DX2                !
 ! A36   A(12,8,22)            108.747          estimate D2E/DX2                !
 ! A37   A(8,9,10)             109.5429         estimate D2E/DX2                !
 ! A38   A(8,9,23)             122.9595         estimate D2E/DX2                !
 ! A39   A(10,9,23)            127.4967         estimate D2E/DX2                !
 ! A40   A(9,10,11)            109.3425         estimate D2E/DX2                !
 ! A41   A(9,10,24)            126.3347         estimate D2E/DX2                !
 ! A42   A(11,10,24)           124.3197         estimate D2E/DX2                !
 ! A43   A(10,11,12)           109.3251         estimate D2E/DX2                !
 ! A44   A(10,11,25)           124.3316         estimate D2E/DX2                !
 ! A45   A(12,11,25)           126.3412         estimate D2E/DX2                !
 ! A46   A(8,12,11)            109.5193         estimate D2E/DX2                !
 ! A47   A(8,12,26)            122.9099         estimate D2E/DX2                !
 ! A48   A(11,12,26)           127.5702         estimate D2E/DX2                !
 ! D1    D(13,1,2,3)          -121.113          estimate D2E/DX2                !
 ! D2    D(13,1,2,16)           59.463          estimate D2E/DX2                !
 ! D3    D(14,1,2,3)           120.3635         estimate D2E/DX2                !
 ! D4    D(14,1,2,16)          -59.0605         estimate D2E/DX2                !
 ! D5    D(15,1,2,3)            -0.3634         estimate D2E/DX2                !
 ! D6    D(15,1,2,16)         -179.7874         estimate D2E/DX2                !
 ! D7    D(1,2,3,4)           -179.3352         estimate D2E/DX2                !
 ! D8    D(1,2,3,17)            -0.058          estimate D2E/DX2                !
 ! D9    D(16,2,3,4)             0.0683         estimate D2E/DX2                !
 ! D10   D(16,2,3,17)          179.3455         estimate D2E/DX2                !
 ! D11   D(2,3,4,5)            -18.0878         estimate D2E/DX2                !
 ! D12   D(2,3,4,7)           -119.7164         estimate D2E/DX2                !
 ! D13   D(2,3,4,18)           112.378          estimate D2E/DX2                !
 ! D14   D(17,3,4,5)           162.6097         estimate D2E/DX2                !
 ! D15   D(17,3,4,7)            60.9811         estimate D2E/DX2                !
 ! D16   D(17,3,4,18)          -66.9246         estimate D2E/DX2                !
 ! D17   D(3,4,5,6)           -120.7982         estimate D2E/DX2                !
 ! D18   D(3,4,5,19)           122.0401         estimate D2E/DX2                !
 ! D19   D(3,4,5,20)            -4.8884         estimate D2E/DX2                !
 ! D20   D(7,4,5,6)             -1.0123         estimate D2E/DX2                !
 ! D21   D(7,4,5,19)          -118.174          estimate D2E/DX2                !
 ! D22   D(7,4,5,20)           114.8975         estimate D2E/DX2                !
 ! D23   D(18,4,5,6)           109.9162         estimate D2E/DX2                !
 ! D24   D(18,4,5,19)           -7.2455         estimate D2E/DX2                !
 ! D25   D(18,4,5,20)         -134.1741         estimate D2E/DX2                !
 ! D26   D(3,4,7,6)            122.9255         estimate D2E/DX2                !
 ! D27   D(3,4,7,8)            -59.0893         estimate D2E/DX2                !
 ! D28   D(5,4,7,6)              1.1466         estimate D2E/DX2                !
 ! D29   D(5,4,7,8)            179.1318         estimate D2E/DX2                !
 ! D30   D(18,4,7,6)          -110.2316         estimate D2E/DX2                !
 ! D31   D(18,4,7,8)            67.7536         estimate D2E/DX2                !
 ! D32   D(4,5,6,7)              1.1639         estimate D2E/DX2                !
 ! D33   D(4,5,6,21)          -177.95           estimate D2E/DX2                !
 ! D34   D(19,5,6,7)           116.9775         estimate D2E/DX2                !
 ! D35   D(19,5,6,21)          -62.1365         estimate D2E/DX2                !
 ! D36   D(20,5,6,7)          -114.3192         estimate D2E/DX2                !
 ! D37   D(20,5,6,21)           66.5668         estimate D2E/DX2                !
 ! D38   D(5,6,7,4)             -1.1904         estimate D2E/DX2                !
 ! D39   D(5,6,7,8)           -179.0953         estimate D2E/DX2                !
 ! D40   D(21,6,7,4)           177.9096         estimate D2E/DX2                !
 ! D41   D(21,6,7,8)             0.0048         estimate D2E/DX2                !
 ! D42   D(4,7,8,9)            -57.0755         estimate D2E/DX2                !
 ! D43   D(4,7,8,12)            60.9841         estimate D2E/DX2                !
 ! D44   D(4,7,8,22)          -177.9243         estimate D2E/DX2                !
 ! D45   D(6,7,8,9)            120.1158         estimate D2E/DX2                !
 ! D46   D(6,7,8,12)          -121.8247         estimate D2E/DX2                !
 ! D47   D(6,7,8,22)            -0.7331         estimate D2E/DX2                !
 ! D48   D(7,8,9,10)           125.898          estimate D2E/DX2                !
 ! D49   D(7,8,9,23)           -54.4391         estimate D2E/DX2                !
 ! D50   D(12,8,9,10)            0.7528         estimate D2E/DX2                !
 ! D51   D(12,8,9,23)         -179.5844         estimate D2E/DX2                !
 ! D52   D(22,8,9,10)         -114.214          estimate D2E/DX2                !
 ! D53   D(22,8,9,23)           65.4488         estimate D2E/DX2                !
 ! D54   D(7,8,12,11)         -125.5319         estimate D2E/DX2                !
 ! D55   D(7,8,12,26)           54.7293         estimate D2E/DX2                !
 ! D56   D(9,8,12,11)           -0.8482         estimate D2E/DX2                !
 ! D57   D(9,8,12,26)          179.4131         estimate D2E/DX2                !
 ! D58   D(22,8,12,11)         114.2347         estimate D2E/DX2                !
 ! D59   D(22,8,12,26)         -65.504          estimate D2E/DX2                !
 ! D60   D(8,9,10,11)           -0.4133         estimate D2E/DX2                !
 ! D61   D(8,9,10,24)          178.9684         estimate D2E/DX2                !
 ! D62   D(23,9,10,11)         179.9433         estimate D2E/DX2                !
 ! D63   D(23,9,10,24)          -0.675          estimate D2E/DX2                !
 ! D64   D(9,10,11,12)          -0.1533         estimate D2E/DX2                !
 ! D65   D(9,10,11,25)         179.3422         estimate D2E/DX2                !
 ! D66   D(24,10,11,12)       -179.5502         estimate D2E/DX2                !
 ! D67   D(24,10,11,25)         -0.0547         estimate D2E/DX2                !
 ! D68   D(10,11,12,8)           0.6514         estimate D2E/DX2                !
 ! D69   D(10,11,12,26)       -179.6254         estimate D2E/DX2                !
 ! D70   D(25,11,12,8)        -178.8314         estimate D2E/DX2                !
 ! D71   D(25,11,12,26)          0.8918         estimate D2E/DX2                !
 --------------------------------------------------------------------------------
 Trust Radius=3.00D-01 FncErr=1.00D-07 GrdErr=1.00D-06 EigMax=2.50D+02 EigMin=1.00D-04
 Number of steps in this run=    156 maximum allowed number of steps=    156.
 GradGradGradGradGradGradGradGradGradGradGradGradGradGradGradGradGradGrad

                          Input orientation:                          
 ---------------------------------------------------------------------
 Center     Atomic      Atomic             Coordinates (Angstroms)
 Number     Number       Type             X           Y           Z
 ---------------------------------------------------------------------
      1          6           0        0.912957   -0.043595    0.006505
      2          6           0        2.411504    0.017905    0.066184
      3          6           0        3.204681    0.265314   -0.974697
      4          6           0        4.703343    0.325212   -0.977676
      5          6           0        5.488682    0.507735    0.373179
      6          6           0        6.051738    1.768314   -0.253339
      7          6           0        5.371591    1.644234   -1.398670
      8          6           0        5.300403    2.442621   -2.665482
      9          6           0        5.701713    1.678782   -3.910295
     10          6           0        4.719075    1.760192   -4.824244
     11          6           0        3.610313    2.552670   -4.277091
     12          6           0        3.919614    2.948938   -3.029750
     13          1           0        0.456116    0.692830    0.679982
     14          1           0        0.540733   -1.026054    0.323852
     15          1           0        0.543033    0.147548   -1.005215
     16          1           0        2.852403   -0.166519    1.044352
     17          1           0        2.745949    0.436953   -1.948625
     18          1           0        5.093204   -0.521392   -1.561538
     19          1           0        6.209066   -0.286082    0.599536
     20          1           0        4.857965    0.665848    1.252468
     21          1           0        6.768597    2.499384    0.105433
     22          1           0        5.974108    3.306930   -2.543960
     23          1           0        6.649085    1.165659   -4.006027
     24          1           0        4.728176    1.326458   -5.816707
     25          1           0        2.697588    2.778836   -4.814634
     26          1           0        3.314073    3.540118   -2.356512
 ---------------------------------------------------------------------
                    Distance matrix (angstroms):
                    1          2          3          4          5
     1  C    0.000000
     2  C    1.500996   0.000000
     3  C    2.512007   1.331831   0.000000
     4  C    3.933403   2.537047   1.499862   0.000000
     5  C    4.623383   3.131006   2.663118   1.573175   0.000000
     6  C    5.455053   4.051830   3.299257   2.103657   1.516119
     7  C    4.970182   3.681421   2.603205   1.537404   2.108267
     8  C    5.707054   4.656928   3.462870   2.772831   3.607311
     9  C    6.421845   5.421842   4.104972   3.380702   4.445771
    10  C    6.409081   5.681261   4.398529   4.105544   5.401309
    11  C    5.689070   5.169740   4.037616   4.128247   5.416183
    12  C    5.216712   4.522185   3.454882   3.421868   4.472290
    13  H    1.097541   2.157733   3.236563   4.574048   5.045305
    14  H    1.097490   2.157783   3.232720   4.565876   5.180457
    15  H    1.094055   2.157751   2.664427   4.164194   5.146761
    16  H    2.203108   1.088677   2.094550   2.785028   2.802688
    17  H    2.722742   2.084925   1.090152   2.187835   3.594213
    18  H    4.490157   3.183054   2.128335   1.099829   2.226799
    19  H    5.334721   3.846862   3.436361   2.264614   1.095598
    20  H    4.197479   2.795044   2.802506   2.261302   1.093597
    21  H    6.384751   5.014333   4.342723   3.188326   2.382548
    22  H    6.583779   5.506603   4.402697   3.599824   4.071957
    23  H    7.103933   5.988099   4.675842   3.696372   4.577864
    24  H    7.095261   6.456599   5.185761   4.941591   6.289941
    25  H    5.864675   5.614888   4.617364   4.976502   6.313597
    26  H    4.918558   4.369218   3.556082   3.763892   4.623362
                    6          7          8          9         10
     6  C    0.000000
     7  C    1.337826   0.000000
     8  C    2.614886   1.499101   0.000000
     9  C    3.674760   2.533462   1.514615   0.000000
    10  C    4.761221   3.489094   2.337499   1.344436   0.000000
    11  C    4.771409   3.494662   2.337904   2.296121   1.468587
    12  C    3.694359   2.543799   1.515132   2.358927   2.296184
    13  H    5.773970   5.421057   6.141744   7.039818   7.043336
    14  H    6.205869   5.782276   6.604717   7.202767   7.191981
    15  H    5.791203   5.070489   5.536824   6.115239   5.884295
    16  H    3.957692   3.948860   5.153949   6.006016   6.452681
    17  H    3.946486   2.941764   3.325931   3.758567   3.730062
    18  H    2.805873   2.189511   3.169700   3.275318   3.998855
    19  H    2.229953   2.901777   4.351073   4.945369   5.985373
    20  H    2.215396   2.872209   4.324698   5.328421   6.176027
    21  H    1.084928   2.223788   3.136366   4.235292   5.389681
    22  H    2.760491   2.106958   1.102577   2.142880   3.027738
    23  H    3.847425   2.942674   2.290554   1.081652   2.178964
    24  H    5.735688   4.475937   3.391678   2.169404   1.083139
    25  H    5.751251   4.484019   3.392129   3.324563   2.263656
    26  H    3.880391   2.957231   2.290298   3.402887   3.351398
                   11         12         13         14         15
    11  C    0.000000
    12  C    1.344825   0.000000
    13  H    6.162836   5.554094   0.000000
    14  H    6.587736   6.201939   1.757427   0.000000
    15  H    5.089007   4.831959   1.773352   1.773067   0.000000
    16  H    6.023801   5.238638   2.571660   2.569384   3.103636
    17  H    3.262688   2.975968   3.495481   3.488197   2.413839
    18  H    4.361542   3.946663   5.291628   4.953218   4.632606
    19  H    6.212368   5.373887   5.836194   5.723072   5.904845
    20  H    5.974342   4.942712   4.439002   4.728991   4.897388
    21  H    5.402233   4.260068   6.590991   7.159798   6.747023
    22  H    3.026578   2.141284   6.904749   7.518022   6.468849
    23  H    3.351329   3.403412   7.780431   7.801501   6.879338
    24  H    2.263543   3.324656   7.801214   7.795861   6.485037
    25  H    1.083131   2.169814   6.290185   6.747833   5.106609
    26  H    2.179780   1.081399   5.049284   5.977098   4.584125
                   16         17         18         19         20
    16  H    0.000000
    17  H    3.055066   0.000000
    18  H    3.455110   2.564735   0.000000
    19  H    3.388118   4.359941   2.443514   0.000000
    20  H    2.181382   3.841875   3.063251   1.777066   0.000000
    21  H    4.829616   4.965327   3.835469   2.883753   2.885837
    22  H    5.889472   4.360298   4.049345   4.779802   4.757516
    23  H    6.457230   4.471955   3.352973   4.848956   5.577606
    24  H    7.267849   4.436496   4.653413   6.779490   7.101161
    25  H    6.559482   3.701454   5.216619   7.144049   6.778029
    26  H    5.051552   3.181001   4.504792   5.635513   4.865158
                   21         22         23         24         25
    21  H    0.000000
    22  H    2.881428   0.000000
    23  H    4.324027   2.679230   0.000000
    24  H    6.372662   4.023119   2.644675   0.000000
    25  H    6.392048   4.021247   4.344020   2.690137   0.000000
    26  H    4.367841   2.676807   4.413758   4.344298   2.646124
                   26
    26  H    0.000000
 Stoichiometry    C12H14
 Framework group  C1[X(C12H14)]
 Deg. of freedom    72
 Full point group                 C1      NOp   1
 Largest Abelian subgroup         C1      NOp   1
 Largest concise Abelian subgroup C1      NOp   1
                         Standard orientation:                         
 ---------------------------------------------------------------------
 Center     Atomic      Atomic             Coordinates (Angstroms)
 Number     Number       Type             X           Y           Z
 ---------------------------------------------------------------------
      1          6           0        3.431676   -1.979302    0.121731
      2          6           0        2.776144   -0.647947   -0.103572
      3          6           0        1.495097   -0.475448   -0.424409
      4          6           0        0.790904    0.825024   -0.674350
      5          6           0        1.421964    2.174322   -0.168346
      6          6           0        0.143876    2.343924    0.629364
      7          6           0       -0.397643    1.187254    0.231054
      8          6           0       -1.698285    0.492531    0.501225
      9          6           0       -2.536770    0.231468   -0.732812
     10          6           0       -2.846299   -1.075225   -0.798047
     11          6           0       -2.249228   -1.774301    0.347181
     12          6           0       -1.574720   -0.891571    1.105061
     13          1           0        3.857395   -2.048902    1.130946
     14          1           0        4.263254   -2.138160   -0.576644
     15          1           0        2.722386   -2.802732   -0.004073
     16          1           0        3.424169    0.220515    0.001566
     17          1           0        0.863844   -1.357211   -0.535968
     18          1           0        0.512331    0.881602   -1.736809
     19          1           0        1.609208    2.918516   -0.950298
     20          1           0        2.331714    2.059921    0.427658
     21          1           0       -0.205582    3.138695    1.279969
     22          1           0       -2.271003    1.131404    1.193692
     23          1           0       -2.823605    1.011416   -1.425184
     24          1           0       -3.448299   -1.554878   -1.560096
     25          1           0       -2.355244   -2.835167    0.538219
     26          1           0       -1.020860   -1.089387    2.012547
 ---------------------------------------------------------------------
 Rotational constants (GHZ):           1.3019392           0.6717267           0.4999626
 Standard basis: 6-31+G(2df,p) (6D, 7F)
 There are   490 symmetry adapted cartesian basis functions of A   symmetry.
 There are   454 symmetry adapted basis functions of A   symmetry.
   454 basis functions,   674 primitive gaussians,   490 cartesian basis functions
    43 alpha electrons       43 beta electrons
       nuclear repulsion energy       642.0715817603 Hartrees.
 NAtoms=   26 NActive=   26 NUniq=   26 SFac= 1.00D+00 NAtFMM=   60 NAOKFM=F Big=F
 Integral buffers will be    131072 words long.
 Regular integral format.
 Two-electron integral symmetry is turned on.
 One-electron integrals computed using PRISM.
 PrsmSu:  requested number of processors reduced to:  12 ShMem   1 Linda.
 NBasis=   454 RedAO= T EigKep=  5.55D-06  NBF=   454
 NBsUse=   454 1.00D-06 EigRej= -1.00D+00 NBFU=   454
 ExpMin= 4.38D-02 ExpMax= 3.05D+03 ExpMxC= 4.57D+02 IAcc=3 IRadAn=         5 AccDes= 0.00D+00
 Harris functional with IExCor=  402 and IRadAn=       5 diagonalized for initial guess.
 HarFok:  IExCor=  402 AccDes= 0.00D+00 IRadAn=         5 IDoV= 1 UseB2=F ITyADJ=14
 ICtDFT=  3500011 ScaDFX=  1.000000  1.000000  1.000000  1.000000
 FoFCou: FMM=F IPFlag=           0 FMFlag=      100000 FMFlg1=           0
         NFxFlg=           0 DoJE=T BraDBF=F KetDBF=T FulRan=T
         wScrn=  0.000000 ICntrl=       500 IOpCl=  0 I1Cent=   200000004 NGrid=           0
         NMat0=    1 NMatS0=      1 NMatT0=    0 NMatD0=    1 NMtDS0=    0 NMtDT0=    0
 Petite list used in FoFCou.
 Requested convergence on RMS density matrix=1.00D-08 within 128 cycles.
 Requested convergence on MAX density matrix=1.00D-06.
 Requested convergence on             energy=1.00D-06.
 No special actions if energy rises.
 SCF Done:  E(RB3LYP) =  -465.642373193     A.U. after   14 cycles
            NFock= 14  Conv=0.47D-08     -V/T= 2.0089
 DoSCS=F DFT=T ScalE2(SS,OS)=  1.000000  1.000000
 ExpMin= 4.38D-02 ExpMax= 3.05D+03 ExpMxC= 4.57D+02 IAcc=3 IRadAn=         5 AccDes= 0.00D+00
 HarFok:  IExCor=  205 AccDes= 0.00D+00 IRadAn=         5 IDoV=-2 UseB2=F ITyADJ=14
 ICtDFT= 12500011 ScaDFX=  1.000000  1.000000  1.000000  1.000000
 Range of M.O.s used for correlation:    13   454
 NBasis=   454 NAE=    43 NBE=    43 NFC=    12 NFV=     0
 NROrb=    442 NOA=    31 NOB=    31 NVA=   411 NVB=   411

 **** Warning!!: The largest alpha MO coefficient is  0.83249658D+02

 Orbital symmetries:
       Occupied  (A) (A) (A) (A) (A) (A) (A) (A) (A) (A) (A) (A)
                 (A) (A) (A) (A) (A) (A) (A) (A) (A) (A) (A) (A)
                 (A) (A) (A) (A) (A) (A) (A) (A) (A) (A) (A) (A)
                 (A) (A) (A) (A) (A) (A) (A)
       Virtual   (A) (A) (A) (A) (A) (A) (A) (A) (A) (A) (A) (A)
                 (A) (A) (A) (A) (A) (A) (A) (A) (A) (A) (A) (A)
                 (A) (A) (A) (A) (A) (A) (A) (A) (A) (A) (A) (A)
                 (A) (A) (A) (A) (A) (A) (A) (A) (A) (A) (A) (A)
                 (A) (A) (A) (A) (A) (A) (A) (A) (A) (A) (A) (A)
                 (A) (A) (A) (A) (A) (A) (A) (A) (A) (A) (A) (A)
                 (A) (A) (A) (A) (A) (A) (A) (A) (A) (A) (A) (A)
                 (A) (A) (A) (A) (A) (A) (A) (A) (A) (A) (A) (A)
                 (A) (A) (A) (A) (A) (A) (A) (A) (A) (A) (A) (A)
                 (A) (A) (A) (A) (A) (A) (A) (A) (A) (A) (A) (A)
                 (A) (A) (A) (A) (A) (A) (A) (A) (A) (A) (A) (A)
                 (A) (A) (A) (A) (A) (A) (A) (A) (A) (A) (A) (A)
                 (A) (A) (A) (A) (A) (A) (A) (A) (A) (A) (A) (A)
                 (A) (A) (A) (A) (A) (A) (A) (A) (A) (A) (A) (A)
                 (A) (A) (A) (A) (A) (A) (A) (A) (A) (A) (A) (A)
                 (A) (A) (A) (A) (A) (A) (A) (A) (A) (A) (A) (A)
                 (A) (A) (A) (A) (A) (A) (A) (A) (A) (A) (A) (A)
                 (A) (A) (A) (A) (A) (A) (A) (A) (A) (A) (A) (A)
                 (A) (A) (A) (A) (A) (A) (A) (A) (A) (A) (A) (A)
                 (A) (A) (A) (A) (A) (A) (A) (A) (A) (A) (A) (A)
                 (A) (A) (A) (A) (A) (A) (A) (A) (A) (A) (A) (A)
                 (A) (A) (A) (A) (A) (A) (A) (A) (A) (A) (A) (A)
                 (A) (A) (A) (A) (A) (A) (A) (A) (A) (A) (A) (A)
                 (A) (A) (A) (A) (A) (A) (A) (A) (A) (A) (A) (A)
                 (A) (A) (A) (A) (A) (A) (A) (A) (A) (A) (A) (A)
                 (A) (A) (A) (A) (A) (A) (A) (A) (A) (A) (A) (A)
                 (A) (A) (A) (A) (A) (A) (A) (A) (A) (A) (A) (A)
                 (A) (A) (A) (A) (A) (A) (A) (A) (A) (A) (A) (A)
                 (A) (A) (A) (A) (A) (A) (A) (A) (A) (A) (A) (A)
                 (A) (A) (A) (A) (A) (A) (A) (A) (A) (A) (A) (A)
                 (A) (A) (A) (A) (A) (A) (A) (A) (A) (A) (A) (A)
                 (A) (A) (A) (A) (A) (A) (A) (A) (A) (A) (A) (A)
                 (A) (A) (A) (A) (A) (A) (A) (A) (A) (A) (A) (A)
                 (A) (A) (A) (A) (A) (A) (A) (A) (A) (A) (A) (A)
                 (A) (A) (A)
    40 initial guesses have been made.
 Convergence on wavefunction:    0.000001000000000
 Iteration     1 Dimension    40 NMult     0 NNew     40
 CISAX will form     5 AO SS matrices at one time.
 New state      1 was old state      3
 New state      3 was old state      4
 New state      4 was old state      5
 New state      5 was old state      9
 New state      6 was old state      8
 New state      7 was old state      6
 New state      8 was old state      7
 New state      9 was old state     11
 Iteration     2 Dimension    60 NMult    40 NNew     20
 New state      3 was old state      5
 New state      4 was old state      3
 New state      5 was old state      4
 New state     10 was old state     11
 Iteration     3 Dimension    80 NMult    60 NNew     20
 Iteration     4 Dimension   100 NMult    80 NNew     20
 Iteration     5 Dimension   120 NMult   100 NNew     20
 Iteration     6 Dimension   140 NMult   120 NNew     20
 Iteration     7 Dimension   160 NMult   140 NNew     20
 Iteration     8 Dimension   180 NMult   160 NNew     20
 Iteration     9 Dimension   200 NMult   180 NNew     20
 Iteration    10 Dimension   218 NMult   200 NNew     18
 Iteration    11 Dimension   228 NMult   218 NNew     10
 ***********************************************************************
 Excited states from <AA,BB:AA,BB> singles matrix:
 ***********************************************************************
 
 Ground to excited state transition densities written to RWF  633
 Ground to excited state transition electric dipole moments (Au):
       state          X           Y           Z        Dip. S.      Osc.
         1         0.2433     -0.1734      0.3405      0.2052      0.0234
         2        -0.4329      0.0388     -0.1035      0.1996      0.0246
         3        -0.1597      0.1911     -0.3549      0.1880      0.0238
         4        -0.1227     -0.4246      0.1195      0.2097      0.0279
         5         0.4609      0.2883      0.2365      0.3516      0.0475
         6         0.2433     -0.2070     -0.0669      0.1065      0.0152
         7        -0.2701      0.1122      0.0008      0.0855      0.0123
         8         0.0421     -0.2047      0.1434      0.0642      0.0093
         9         0.3623     -0.0576     -0.1376      0.1535      0.0223
        10        -0.1363     -0.0996      0.4393      0.2215      0.0327
 Ground to excited state transition velocity dipole moments (Au):
       state          X           Y           Z        Dip. S.      Osc.
         1        -0.0416      0.0300     -0.0580      0.0060      0.0234
         2         0.0792     -0.0073      0.0200      0.0067      0.0243
         3         0.0312     -0.0370      0.0674      0.0069      0.0242
         4         0.0264      0.0835     -0.0252      0.0083      0.0277
         5        -0.0933     -0.0576     -0.0446      0.0140      0.0461
         6        -0.0521      0.0417      0.0110      0.0046      0.0143
         7         0.0552     -0.0222      0.0014      0.0035      0.0109
         8        -0.0056      0.0416     -0.0290      0.0026      0.0080
         9        -0.0703      0.0095      0.0251      0.0057      0.0173
        10         0.0253      0.0211     -0.0896      0.0091      0.0275
 Ground to excited state transition magnetic dipole moments (Au):
       state          X           Y           Z
         1         0.7497     -0.4063     -0.6431
         2        -0.0190      0.1564      0.1177
         3        -0.4427      0.7383      0.5937
         4         0.2256      0.1650     -0.2742
         5         0.1626      0.0727      0.4455
         6         0.3016      0.1485      0.0719
         7         0.1842      0.2202      0.2315
         8         0.0218      0.1310     -0.3525
         9         0.0434      0.0160     -0.1268
        10         0.1358     -0.4003     -0.0030
 Ground to excited state transition velocity quadrupole moments (Au):
       state          XX          YY          ZZ          XY          XZ          YZ
         1         0.1758     -0.0006     -0.0661     -0.0937      0.2050     -0.0065
         2         0.1474     -0.0270     -0.0059     -0.1718     -0.1138      0.0310
         3        -0.2715     -0.0376      0.1046      0.1903     -0.2205     -0.0084
         4         0.2453      0.2848     -0.4138     -0.4008      0.2288      0.0895
         5         0.4716     -0.1148     -0.2440      0.0215      0.2031     -0.0619
         6        -0.3958      0.0322      0.0451      0.1035      0.0851     -0.0380
         7         0.0306     -0.1208      0.1091     -0.0306     -0.0078      0.0394
         8         0.1409     -0.0834      0.0292     -0.1114      0.0819     -0.0625
         9         0.6014      0.0151     -0.0583     -0.1867     -0.0121     -0.0381
        10         0.1059      0.1102     -0.1773     -0.2554      0.2942      0.0479
 <0|del|b> * <b|rxdel|0> + <0|del|b> * <b|delr+rdel|0>
 Rotatory Strengths (R) in cgs (10**-40 erg-esu-cm/Gauss)
       state          XX          YY          ZZ    R(velocity)    E-M Angle
         1        50.4971      1.9332    -77.6065     -8.3921       94.22
         2        -5.8746     12.9019     -8.1778     -0.3835       91.07
         3        32.2576     24.4194    -60.9684     -1.4305       90.76
         4        20.7241      9.0578     64.5655     31.4492       41.69
         5       -23.2415    -49.3817    -64.2132    -45.6122      133.69
         6         7.5818    -23.3377    -13.1724     -9.6428      112.05
         7        -7.8267     20.8075      5.3715      6.1174       75.21
         8        25.2060     11.7443     13.6469     16.8657       36.01
         9       -12.2924      1.8295     -9.2140     -6.5590      126.76
        10        13.5652    -28.7247     -0.0276     -5.0624       96.76
 1/2[<0|r|b>*<b|rxdel|0> + (<0|rxdel|b>*<b|r|0>)*]
 Rotatory Strengths (R) in cgs (10**-40 erg-esu-cm/Gauss)
       state          XX          YY          ZZ     R(length)
         1      -129.0185    -49.8091    154.8510     -7.9922
         2        -5.8277     -4.2948      8.6189     -0.5012
         3       -49.9900    -99.7718    149.0117     -0.2500
         4        19.5745     49.5326     23.1695     30.7589
         5       -53.0021    -14.8164    -74.5139    -47.4441
         6       -51.8932     21.7291      3.4005     -8.9212
         7        35.1890    -17.4734     -0.1377      5.8593
         8        -0.6479     18.9629     35.7517     18.0223
         9       -11.1176      0.6523    -12.3392     -7.6015
        10        13.0822    -28.1853      0.9307     -4.7242
  1/2[<0|del|b>*<b|r|0> + (<0|r|b>*<b|del|0>)*] (Au)
       state          X           Y           Z        Dip. S.   Osc.(frdel)
         1        -0.0101     -0.0052     -0.0198      0.0351      0.0234
         2        -0.0343     -0.0003     -0.0021      0.0366      0.0244
         3        -0.0050     -0.0071     -0.0239      0.0360      0.0240
         4        -0.0032     -0.0354     -0.0030      0.0417      0.0278
         5        -0.0430     -0.0166     -0.0106      0.0702      0.0468
         6        -0.0127     -0.0086     -0.0007      0.0221      0.0147
         7        -0.0149     -0.0025      0.0000      0.0174      0.0116
         8        -0.0002     -0.0085     -0.0042      0.0129      0.0086
         9        -0.0255     -0.0005     -0.0035      0.0295      0.0196
        10        -0.0034     -0.0021     -0.0394      0.0449      0.0300

 Excitation energies and oscillator strengths:
 
 Excited State   1:      Singlet-A      4.6510 eV  266.58 nm  f=0.0234  <S**2>=0.000
      41 -> 44         0.27127
      43 -> 44         0.64894
 This state for optimization and/or second-order correction.
 Total Energy, E(TD-HF/TD-DFT) =  -465.471452542    
 Copying the excited state density for this state as the 1-particle RhoCI density.
 
 Excited State   2:      Singlet-A      5.0247 eV  246.75 nm  f=0.0246  <S**2>=0.000
      41 -> 44         0.13009
      42 -> 44         0.68588
 
 Excited State   3:      Singlet-A      5.1647 eV  240.06 nm  f=0.0238  <S**2>=0.000
      41 -> 44         0.63069
      42 -> 44        -0.14926
      43 -> 44        -0.24784
      43 -> 45         0.10384
 
 Excited State   4:      Singlet-A      5.4319 eV  228.25 nm  f=0.0279  <S**2>=0.000
      43 -> 45         0.61343
      43 -> 46         0.26922
      43 -> 47         0.14688
 
 Excited State   5:      Singlet-A      5.5171 eV  224.73 nm  f=0.0475  <S**2>=0.000
      43 -> 45        -0.27464
      43 -> 46         0.62411
 
 Excited State   6:      Singlet-A      5.8099 eV  213.40 nm  f=0.0152  <S**2>=0.000
      42 -> 45         0.63952
      42 -> 47        -0.11612
      42 -> 49         0.13658
      43 -> 47         0.14049
      43 -> 49        -0.10403
 
 Excited State   7:      Singlet-A      5.8816 eV  210.80 nm  f=0.0123  <S**2>=0.000
      41 -> 45        -0.12238
      41 -> 46        -0.12079
      42 -> 45        -0.13215
      43 -> 46        -0.10907
      43 -> 47         0.51811
      43 -> 48        -0.36853
 
 Excited State   8:      Singlet-A      5.9074 eV  209.88 nm  f=0.0093  <S**2>=0.000
      41 -> 45        -0.16371
      43 -> 47         0.19202
      43 -> 48         0.33413
      43 -> 49         0.52693
 
 Excited State   9:      Singlet-A      5.9412 eV  208.69 nm  f=0.0223  <S**2>=0.000
      41 -> 45         0.10318
      43 -> 47         0.28321
      43 -> 48         0.42023
      43 -> 49        -0.35156
      43 -> 50        -0.18470
      43 -> 51        -0.18283
      43 -> 52        -0.10379
 
 Excited State  10:      Singlet-A      6.0198 eV  205.96 nm  f=0.0327  <S**2>=0.000
      43 -> 47         0.11159
      43 -> 49        -0.12699
      43 -> 50         0.65544
 SavETr:  write IOETrn=   770 NScale= 10 NData=  16 NLR=1 NState=   10 LETran=     190.
          IDoAtm=11111111111111111111111111
          Differentiating once with respect to electric field.
                with respect to dipole field.
          Differentiating once with respect to nuclear coordinates.
          There are     1 degrees of freedom in the 1st order CPHF.  IDoFFX=0 NUNeed=     1.
 LinEq1:  Iter=  0 NonCon=     1 RMS=5.52D-03 Max=2.12D-01 NDo=     1
 AX will form     1 AO Fock derivatives at one time.
 LinEq1:  Iter=  1 NonCon=     1 RMS=2.43D-03 Max=8.50D-02 NDo=     1
 LinEq1:  Iter=  2 NonCon=     1 RMS=1.59D-03 Max=6.88D-02 NDo=     1
 LinEq1:  Iter=  3 NonCon=     1 RMS=8.68D-04 Max=2.35D-02 NDo=     1
 LinEq1:  Iter=  4 NonCon=     1 RMS=4.25D-04 Max=2.01D-02 NDo=     1
 LinEq1:  Iter=  5 NonCon=     1 RMS=2.79D-04 Max=1.09D-02 NDo=     1
 LinEq1:  Iter=  6 NonCon=     1 RMS=1.84D-04 Max=5.65D-03 NDo=     1
 LinEq1:  Iter=  7 NonCon=     1 RMS=1.15D-04 Max=6.35D-03 NDo=     1
 LinEq1:  Iter=  8 NonCon=     1 RMS=8.62D-05 Max=3.16D-03 NDo=     1
 LinEq1:  Iter=  9 NonCon=     1 RMS=3.54D-05 Max=1.10D-03 NDo=     1
 LinEq1:  Iter= 10 NonCon=     1 RMS=1.13D-05 Max=4.93D-04 NDo=     1
 LinEq1:  Iter= 11 NonCon=     1 RMS=7.21D-06 Max=5.02D-04 NDo=     1
 LinEq1:  Iter= 12 NonCon=     1 RMS=4.57D-06 Max=2.53D-04 NDo=     1
 LinEq1:  Iter= 13 NonCon=     1 RMS=1.99D-06 Max=3.89D-05 NDo=     1
 LinEq1:  Iter= 14 NonCon=     1 RMS=9.61D-07 Max=2.02D-05 NDo=     1
 LinEq1:  Iter= 15 NonCon=     1 RMS=2.43D-07 Max=3.53D-06 NDo=     1
 LinEq1:  Iter= 16 NonCon=     1 RMS=8.71D-08 Max=1.05D-06 NDo=     1
 LinEq1:  Iter= 17 NonCon=     1 RMS=4.33D-08 Max=6.38D-07 NDo=     1
 LinEq1:  Iter= 18 NonCon=     1 RMS=1.33D-08 Max=2.09D-07 NDo=     1
 LinEq1:  Iter= 19 NonCon=     1 RMS=6.30D-09 Max=9.71D-08 NDo=     1
 LinEq1:  Iter= 20 NonCon=     1 RMS=2.65D-09 Max=4.82D-08 NDo=     1
 LinEq1:  Iter= 21 NonCon=     1 RMS=7.30D-10 Max=1.67D-08 NDo=     1
 LinEq1:  Iter= 22 NonCon=     1 RMS=1.85D-10 Max=4.15D-09 NDo=     1
 LinEq1:  Iter= 23 NonCon=     1 RMS=8.72D-11 Max=1.68D-09 NDo=     1
 LinEq1:  Iter= 24 NonCon=     0 RMS=3.47D-11 Max=7.04D-10 NDo=     1
 Linear equations converged to 1.000D-10 1.000D-09 after    24 iterations.
 End of Minotr F.D. properties file   721 does not exist.
 End of Minotr F.D. properties file   722 does not exist.
 End of Minotr F.D. properties file   788 does not exist.

 **********************************************************************

            Population analysis using the SCF density.

 **********************************************************************

 Orbital symmetries:
       Occupied  (A) (A) (A) (A) (A) (A) (A) (A) (A) (A) (A) (A)
                 (A) (A) (A) (A) (A) (A) (A) (A) (A) (A) (A) (A)
                 (A) (A) (A) (A) (A) (A) (A) (A) (A) (A) (A) (A)
                 (A) (A) (A) (A) (A) (A) (A)
       Virtual   (A) (A) (A) (A) (A) (A) (A) (A) (A) (A) (A) (A)
                 (A) (A) (A) (A) (A) (A) (A) (A) (A) (A) (A) (A)
                 (A) (A) (A) (A) (A) (A) (A) (A) (A) (A) (A) (A)
                 (A) (A) (A) (A) (A) (A) (A) (A) (A) (A) (A) (A)
                 (A) (A) (A) (A) (A) (A) (A) (A) (A) (A) (A) (A)
                 (A) (A) (A) (A) (A) (A) (A) (A) (A) (A) (A) (A)
                 (A) (A) (A) (A) (A) (A) (A) (A) (A) (A) (A) (A)
                 (A) (A) (A) (A) (A) (A) (A) (A) (A) (A) (A) (A)
                 (A) (A) (A) (A) (A) (A) (A) (A) (A) (A) (A) (A)
                 (A) (A) (A) (A) (A) (A) (A) (A) (A) (A) (A) (A)
                 (A) (A) (A) (A) (A) (A) (A) (A) (A) (A) (A) (A)
                 (A) (A) (A) (A) (A) (A) (A) (A) (A) (A) (A) (A)
                 (A) (A) (A) (A) (A) (A) (A) (A) (A) (A) (A) (A)
                 (A) (A) (A) (A) (A) (A) (A) (A) (A) (A) (A) (A)
                 (A) (A) (A) (A) (A) (A) (A) (A) (A) (A) (A) (A)
                 (A) (A) (A) (A) (A) (A) (A) (A) (A) (A) (A) (A)
                 (A) (A) (A) (A) (A) (A) (A) (A) (A) (A) (A) (A)
                 (A) (A) (A) (A) (A) (A) (A) (A) (A) (A) (A) (A)
                 (A) (A) (A) (A) (A) (A) (A) (A) (A) (A) (A) (A)
                 (A) (A) (A) (A) (A) (A) (A) (A) (A) (A) (A) (A)
                 (A) (A) (A) (A) (A) (A) (A) (A) (A) (A) (A) (A)
                 (A) (A) (A) (A) (A) (A) (A) (A) (A) (A) (A) (A)
                 (A) (A) (A) (A) (A) (A) (A) (A) (A) (A) (A) (A)
                 (A) (A) (A) (A) (A) (A) (A) (A) (A) (A) (A) (A)
                 (A) (A) (A) (A) (A) (A) (A) (A) (A) (A) (A) (A)
                 (A) (A) (A) (A) (A) (A) (A) (A) (A) (A) (A) (A)
                 (A) (A) (A) (A) (A) (A) (A) (A) (A) (A) (A) (A)
                 (A) (A) (A) (A) (A) (A) (A) (A) (A) (A) (A) (A)
                 (A) (A) (A) (A) (A) (A) (A) (A) (A) (A) (A) (A)
                 (A) (A) (A) (A) (A) (A) (A) (A) (A) (A) (A) (A)
                 (A) (A) (A) (A) (A) (A) (A) (A) (A) (A) (A) (A)
                 (A) (A) (A) (A) (A) (A) (A) (A) (A) (A) (A) (A)
                 (A) (A) (A) (A) (A) (A) (A) (A) (A) (A) (A) (A)
                 (A) (A) (A) (A) (A) (A) (A) (A) (A) (A) (A) (A)
                 (A) (A) (A)
 The electronic state is 1-A.
 Alpha  occ. eigenvalues --  -10.20409 -10.19595 -10.19504 -10.19132 -10.19050
 Alpha  occ. eigenvalues --  -10.18865 -10.18858 -10.18649 -10.18309 -10.18278
 Alpha  occ. eigenvalues --  -10.18049 -10.17932  -0.87673  -0.85342  -0.78668
 Alpha  occ. eigenvalues --   -0.73001  -0.71239  -0.70430  -0.63867  -0.63025
 Alpha  occ. eigenvalues --   -0.56165  -0.54657  -0.53863  -0.52088  -0.50254
 Alpha  occ. eigenvalues --   -0.47514  -0.46904  -0.42766  -0.41694  -0.40830
 Alpha  occ. eigenvalues --   -0.40492  -0.39830  -0.37513  -0.37274  -0.36008
 Alpha  occ. eigenvalues --   -0.35323  -0.34545  -0.33468  -0.31999  -0.29951
 Alpha  occ. eigenvalues --   -0.24976  -0.24174  -0.22472
 Alpha virt. eigenvalues --   -0.03319   0.00134   0.00662   0.01375   0.01789
 Alpha virt. eigenvalues --    0.02012   0.02382   0.03092   0.03494   0.03913
 Alpha virt. eigenvalues --    0.04209   0.04770   0.05722   0.06055   0.06356
 Alpha virt. eigenvalues --    0.06704   0.07656   0.07804   0.08320   0.08426
 Alpha virt. eigenvalues --    0.10099   0.10687   0.10966   0.11527   0.11767
 Alpha virt. eigenvalues --    0.12554   0.12715   0.12898   0.13512   0.14140
 Alpha virt. eigenvalues --    0.14946   0.15987   0.16119   0.16998   0.17255
 Alpha virt. eigenvalues --    0.18009   0.18633   0.18895   0.19343   0.19491
 Alpha virt. eigenvalues --    0.19968   0.20228   0.20690   0.20989   0.21178
 Alpha virt. eigenvalues --    0.21531   0.21807   0.22322   0.22659   0.22930
 Alpha virt. eigenvalues --    0.23674   0.24038   0.24395   0.24784   0.25304
 Alpha virt. eigenvalues --    0.25667   0.25797   0.26566   0.27251   0.27667
 Alpha virt. eigenvalues --    0.28732   0.29149   0.29643   0.30721   0.31939
 Alpha virt. eigenvalues --    0.32657   0.32704   0.34263   0.35292   0.36648
 Alpha virt. eigenvalues --    0.38367   0.39794   0.41166   0.41498   0.42910
 Alpha virt. eigenvalues --    0.44502   0.46469   0.49055   0.51551   0.56995
 Alpha virt. eigenvalues --    0.57963   0.60288   0.61592   0.61922   0.63243
 Alpha virt. eigenvalues --    0.63312   0.64997   0.65441   0.66071   0.66637
 Alpha virt. eigenvalues --    0.67426   0.68283   0.68802   0.69305   0.70609
 Alpha virt. eigenvalues --    0.70644   0.70878   0.71797   0.71889   0.72837
 Alpha virt. eigenvalues --    0.73329   0.73669   0.75459   0.75794   0.76560
 Alpha virt. eigenvalues --    0.76981   0.77988   0.79123   0.80262   0.80344
 Alpha virt. eigenvalues --    0.81260   0.81817   0.82581   0.84127   0.84609
 Alpha virt. eigenvalues --    0.84667   0.85347   0.86382   0.87309   0.88356
 Alpha virt. eigenvalues --    0.88961   0.89309   0.91036   0.92428   0.93116
 Alpha virt. eigenvalues --    0.94605   0.96229   0.96876   0.98400   0.98760
 Alpha virt. eigenvalues --    1.00512   1.01727   1.03025   1.04086   1.04734
 Alpha virt. eigenvalues --    1.06497   1.08647   1.09533   1.09593   1.09997
 Alpha virt. eigenvalues --    1.11152   1.13182   1.15241   1.16396   1.18970
 Alpha virt. eigenvalues --    1.21130   1.22338   1.23927   1.25910   1.28038
 Alpha virt. eigenvalues --    1.29532   1.29990   1.32205   1.33799   1.35750
 Alpha virt. eigenvalues --    1.37929   1.38598   1.41063   1.42578   1.46270
 Alpha virt. eigenvalues --    1.47536   1.50109   1.51792   1.52776   1.56422
 Alpha virt. eigenvalues --    1.58115   1.58998   1.60071   1.61342   1.61891
 Alpha virt. eigenvalues --    1.63640   1.64621   1.65386   1.67604   1.68093
 Alpha virt. eigenvalues --    1.70218   1.71206   1.71811   1.73886   1.74822
 Alpha virt. eigenvalues --    1.75794   1.78360   1.79881   1.81054   1.82576
 Alpha virt. eigenvalues --    1.84844   1.86468   1.90054   1.92704   1.93253
 Alpha virt. eigenvalues --    1.95084   1.95885   1.96105   1.98835   2.03970
 Alpha virt. eigenvalues --    2.04672   2.09061   2.11086   2.13041   2.17709
 Alpha virt. eigenvalues --    2.22250   2.22487   2.23280   2.25765   2.27865
 Alpha virt. eigenvalues --    2.28908   2.33163   2.35261   2.37933   2.44223
 Alpha virt. eigenvalues --    2.45013   2.46223   2.47081   2.47653   2.51051
 Alpha virt. eigenvalues --    2.55284   2.58180   2.59045   2.63611   2.64156
 Alpha virt. eigenvalues --    2.67703   2.69226   2.70656   2.72354   2.73752
 Alpha virt. eigenvalues --    2.76644   2.77158   2.78188   2.79095   2.81845
 Alpha virt. eigenvalues --    2.83985   2.84232   2.86761   2.88828   2.90579
 Alpha virt. eigenvalues --    2.90750   2.92821   2.93623   2.94291   2.94970
 Alpha virt. eigenvalues --    2.95452   2.96853   2.97704   2.98352   2.98879
 Alpha virt. eigenvalues --    3.01090   3.01526   3.02880   3.04919   3.05411
 Alpha virt. eigenvalues --    3.06554   3.07721   3.08809   3.12132   3.13839
 Alpha virt. eigenvalues --    3.15479   3.16276   3.17725   3.18519   3.20177
 Alpha virt. eigenvalues --    3.21084   3.22460   3.23447   3.24930   3.26415
 Alpha virt. eigenvalues --    3.27197   3.28711   3.29141   3.33093   3.33380
 Alpha virt. eigenvalues --    3.34161   3.34594   3.35704   3.35817   3.38454
 Alpha virt. eigenvalues --    3.39246   3.41247   3.43141   3.43753   3.44954
 Alpha virt. eigenvalues --    3.45366   3.48493   3.49642   3.51019   3.51850
 Alpha virt. eigenvalues --    3.54664   3.55374   3.56888   3.57575   3.58584
 Alpha virt. eigenvalues --    3.60662   3.61651   3.63308   3.63612   3.65777
 Alpha virt. eigenvalues --    3.68121   3.69571   3.72048   3.74875   3.75864
 Alpha virt. eigenvalues --    3.79500   3.82915   3.84377   3.85997   3.92606
 Alpha virt. eigenvalues --    3.95588   3.97281   3.99461   4.01658   4.04499
 Alpha virt. eigenvalues --    4.09532   4.10759   4.12336   4.15095   4.16494
 Alpha virt. eigenvalues --    4.18645   4.23575   4.26455   4.26846   4.30299
 Alpha virt. eigenvalues --    4.31191   4.33368   4.34165   4.35711   4.36543
 Alpha virt. eigenvalues --    4.39522   4.39853   4.40861   4.41651   4.43391
 Alpha virt. eigenvalues --    4.45308   4.47455   4.48719   4.49131   4.50252
 Alpha virt. eigenvalues --    4.51898   4.53186   4.54395   4.54735   4.56925
 Alpha virt. eigenvalues --    4.57813   4.59821   4.60347   4.62177   4.63943
 Alpha virt. eigenvalues --    4.65607   4.66730   4.67729   4.68114   4.72046
 Alpha virt. eigenvalues --    4.72297   4.74397   4.74781   4.75419   4.77812
 Alpha virt. eigenvalues --    4.80388   4.80875   4.80971   4.81941   4.84702
 Alpha virt. eigenvalues --    4.87212   4.89084   4.89460   4.91108   4.93909
 Alpha virt. eigenvalues --    4.98499   4.99768   5.01879   5.03166   5.07159
 Alpha virt. eigenvalues --    5.08991   5.10814   5.14030   5.14966   5.18297
 Alpha virt. eigenvalues --    5.26841   5.27350   5.31710   5.32051   5.35148
 Alpha virt. eigenvalues --    5.38500   5.38764   5.44238   5.46544   5.50842
 Alpha virt. eigenvalues --    5.51442   5.53399   5.54896   5.63069   5.68568
 Alpha virt. eigenvalues --    5.71654   5.72368   5.75004   5.80549   6.04993
 Alpha virt. eigenvalues --    6.17131   6.41151   6.78422   7.27966  11.26244
 Alpha virt. eigenvalues --   11.48229  11.55863  11.59292  11.76322  11.92521
 Alpha virt. eigenvalues --   11.97998  12.17011  12.28533  12.38601  12.77722
 Alpha virt. eigenvalues --   13.17714
          Condensed to atoms (all electrons):
               1          2          3          4          5          6
     1  C    6.024743  -0.595061   0.331469  -0.165063   0.007597  -0.021125
     2  C   -0.595061   7.117121  -0.531151  -0.033582  -0.044908  -0.430731
     3  C    0.331469  -0.531151   7.727967  -1.271178  -0.120753   0.687905
     4  C   -0.165063  -0.033582  -1.271178  12.273231  -1.456657   1.426791
     5  C    0.007597  -0.044908  -0.120753  -1.456657   6.009349  -0.392931
     6  C   -0.021125  -0.430731   0.687905   1.426791  -0.392931  10.283357
     7  C    0.023564   0.381755  -0.347657  -2.765990   1.040602  -3.209484
     8  C   -0.020750   0.005137  -0.682750  -2.914717   0.845707  -2.503960
     9  C    0.004682   0.069397   0.132796   0.121850  -0.100462  -0.131223
    10  C   -0.013555  -0.051895  -0.200208   0.320034  -0.005106   0.100504
    11  C    0.036632  -0.092008   0.072446  -0.148394   0.050724   0.153522
    12  C   -0.012057   0.221735   0.031912   0.039836  -0.100220  -0.172780
    13  H    0.465834  -0.139784   0.036127   0.000148  -0.002799   0.002834
    14  H    0.443907  -0.080532  -0.015559  -0.000660   0.000350  -0.002314
    15  H    0.461310  -0.126996   0.010986   0.007926  -0.000786  -0.000364
    16  H   -0.000032   0.278045   0.045975  -0.037052  -0.002048   0.006782
    17  H   -0.060292   0.077566   0.208479   0.098484  -0.004505  -0.021761
    18  H   -0.000984  -0.027541   0.056402   0.073776   0.030439  -0.077495
    19  H    0.000261  -0.005190   0.047365  -0.021821   0.377767   0.043068
    20  H    0.007893  -0.030345   0.066270  -0.275140   0.527531  -0.078903
    21  H    0.000312  -0.003271  -0.005139   0.099848  -0.056164   0.439525
    22  H    0.000041  -0.001158  -0.003029   0.039402  -0.007721   0.170725
    23  H   -0.000007  -0.000796  -0.011422  -0.001607   0.004924  -0.011401
    24  H   -0.000009   0.000048   0.002832  -0.003800   0.000176  -0.001832
    25  H   -0.000065   0.001433  -0.001772  -0.001624  -0.000117  -0.000652
    26  H   -0.000501  -0.011266   0.012162  -0.008279   0.004809  -0.015228
               7          8          9         10         11         12
     1  C    0.023564  -0.020750   0.004682  -0.013555   0.036632  -0.012057
     2  C    0.381755   0.005137   0.069397  -0.051895  -0.092008   0.221735
     3  C   -0.347657  -0.682750   0.132796  -0.200208   0.072446   0.031912
     4  C   -2.765990  -2.914717   0.121850   0.320034  -0.148394   0.039836
     5  C    1.040602   0.845707  -0.100462  -0.005106   0.050724  -0.100220
     6  C   -3.209484  -2.503960  -0.131223   0.100504   0.153522  -0.172780
     7  C   11.992535  -1.228353   0.359328  -0.270459   0.069950   0.248627
     8  C   -1.228353  13.711396  -0.907909   0.012290   0.191727  -1.036334
     9  C    0.359328  -0.907909   6.397795  -0.138152  -0.050842   0.324895
    10  C   -0.270459   0.012290  -0.138152   5.866230  -0.077829   0.200246
    11  C    0.069950   0.191727  -0.050842  -0.077829   6.224650  -0.638389
    12  C    0.248627  -1.036334   0.324895   0.200246  -0.638389   6.862143
    13  H   -0.007416  -0.002188   0.000033  -0.000083   0.000817  -0.000064
    14  H    0.006767   0.001216   0.000078   0.000030  -0.000384   0.000138
    15  H   -0.002289  -0.000933   0.000082   0.000026  -0.000438   0.001544
    16  H   -0.013357  -0.004588  -0.000061   0.000249  -0.000954   0.001527
    17  H   -0.029393  -0.026484   0.001784   0.013316  -0.032819   0.050647
    18  H    0.139120   0.041905   0.026218   0.017131  -0.016049  -0.006387
    19  H   -0.084765  -0.024356   0.005110   0.001981  -0.000884  -0.005617
    20  H    0.112010  -0.002077  -0.004124  -0.001615   0.002713   0.001395
    21  H   -0.088921  -0.100189  -0.000556  -0.000041  -0.000242   0.009624
    22  H    0.052466  -0.125451   0.070155  -0.019184  -0.009648   0.085114
    23  H    0.016543   0.029005   0.246664   0.039962  -0.007009   0.001151
    24  H   -0.003383  -0.008021   0.036476   0.263075   0.014130   0.002252
    25  H   -0.004545  -0.007103   0.003808   0.013486   0.266057   0.033271
    26  H   -0.009355   0.081213  -0.004097  -0.009634   0.052830   0.213563
              13         14         15         16         17         18
     1  C    0.465834   0.443907   0.461310  -0.000032  -0.060292  -0.000984
     2  C   -0.139784  -0.080532  -0.126996   0.278045   0.077566  -0.027541
     3  C    0.036127  -0.015559   0.010986   0.045975   0.208479   0.056402
     4  C    0.000148  -0.000660   0.007926  -0.037052   0.098484   0.073776
     5  C   -0.002799   0.000350  -0.000786  -0.002048  -0.004505   0.030439
     6  C    0.002834  -0.002314  -0.000364   0.006782  -0.021761  -0.077495
     7  C   -0.007416   0.006767  -0.002289  -0.013357  -0.029393   0.139120
     8  C   -0.002188   0.001216  -0.000933  -0.004588  -0.026484   0.041905
     9  C    0.000033   0.000078   0.000082  -0.000061   0.001784   0.026218
    10  C   -0.000083   0.000030   0.000026   0.000249   0.013316   0.017131
    11  C    0.000817  -0.000384  -0.000438  -0.000954  -0.032819  -0.016049
    12  C   -0.000064   0.000138   0.001544   0.001527   0.050647  -0.006387
    13  H    0.536016  -0.032092  -0.026906  -0.001415   0.000082  -0.000004
    14  H   -0.032092   0.536097  -0.026998  -0.001426   0.000011   0.000023
    15  H   -0.026906  -0.026998   0.528197   0.004140   0.004750  -0.000007
    16  H   -0.001415  -0.001426   0.004140   0.594895   0.006388  -0.000040
    17  H    0.000082   0.000011   0.004750   0.006388   0.581674  -0.002420
    18  H   -0.000004   0.000023  -0.000007  -0.000040  -0.002420   0.621311
    19  H   -0.000000   0.000000   0.000000   0.000018  -0.000088  -0.001730
    20  H   -0.000008   0.000007  -0.000001   0.001581  -0.000017   0.002699
    21  H    0.000000  -0.000000  -0.000000   0.000006   0.000015  -0.000579
    22  H    0.000000  -0.000000   0.000000   0.000000   0.000008  -0.000126
    23  H   -0.000000  -0.000000  -0.000000   0.000000   0.000010  -0.000057
    24  H   -0.000000  -0.000000   0.000000   0.000000   0.000004   0.000003
    25  H   -0.000000   0.000000  -0.000000  -0.000000  -0.000063   0.000001
    26  H    0.000001  -0.000000  -0.000001  -0.000000  -0.000148   0.000001
              19         20         21         22         23         24
     1  C    0.000261   0.007893   0.000312   0.000041  -0.000007  -0.000009
     2  C   -0.005190  -0.030345  -0.003271  -0.001158  -0.000796   0.000048
     3  C    0.047365   0.066270  -0.005139  -0.003029  -0.011422   0.002832
     4  C   -0.021821  -0.275140   0.099848   0.039402  -0.001607  -0.003800
     5  C    0.377767   0.527531  -0.056164  -0.007721   0.004924   0.000176
     6  C    0.043068  -0.078903   0.439525   0.170725  -0.011401  -0.001832
     7  C   -0.084765   0.112010  -0.088921   0.052466   0.016543  -0.003383
     8  C   -0.024356  -0.002077  -0.100189  -0.125451   0.029005  -0.008021
     9  C    0.005110  -0.004124  -0.000556   0.070155   0.246664   0.036476
    10  C    0.001981  -0.001615  -0.000041  -0.019184   0.039962   0.263075
    11  C   -0.000884   0.002713  -0.000242  -0.009648  -0.007009   0.014130
    12  C   -0.005617   0.001395   0.009624   0.085114   0.001151   0.002252
    13  H   -0.000000  -0.000008   0.000000   0.000000  -0.000000  -0.000000
    14  H    0.000000   0.000007  -0.000000  -0.000000  -0.000000  -0.000000
    15  H    0.000000  -0.000001  -0.000000   0.000000  -0.000000   0.000000
    16  H    0.000018   0.001581   0.000006   0.000000   0.000000   0.000000
    17  H   -0.000088  -0.000017   0.000015   0.000008   0.000010   0.000004
    18  H   -0.001730   0.002699  -0.000579  -0.000126  -0.000057   0.000003
    19  H    0.562262  -0.038001   0.000988   0.000006  -0.000004   0.000000
    20  H   -0.038001   0.565731   0.000856   0.000002   0.000000  -0.000000
    21  H    0.000988   0.000856   0.560974   0.002002   0.000001   0.000000
    22  H    0.000006   0.000002   0.002002   0.614522  -0.001537  -0.000172
    23  H   -0.000004   0.000000   0.000001  -0.001537   0.552568  -0.003214
    24  H    0.000000  -0.000000   0.000000  -0.000172  -0.003214   0.559409
    25  H   -0.000000   0.000000   0.000000  -0.000174  -0.000113  -0.002218
    26  H    0.000000  -0.000004  -0.000002  -0.001948  -0.000056  -0.000109
              25         26
     1  C   -0.000065  -0.000501
     2  C    0.001433  -0.011266
     3  C   -0.001772   0.012162
     4  C   -0.001624  -0.008279
     5  C   -0.000117   0.004809
     6  C   -0.000652  -0.015228
     7  C   -0.004545  -0.009355
     8  C   -0.007103   0.081213
     9  C    0.003808  -0.004097
    10  C    0.013486  -0.009634
    11  C    0.266057   0.052830
    12  C    0.033271   0.213563
    13  H   -0.000000   0.000001
    14  H    0.000000  -0.000000
    15  H   -0.000000  -0.000001
    16  H   -0.000000  -0.000000
    17  H   -0.000063  -0.000148
    18  H    0.000001   0.000001
    19  H   -0.000000   0.000000
    20  H    0.000000  -0.000004
    21  H    0.000000  -0.000002
    22  H   -0.000174  -0.001948
    23  H   -0.000113  -0.000056
    24  H   -0.002218  -0.000109
    25  H    0.560800  -0.003193
    26  H   -0.003193   0.551542
 Mulliken charges:
               1
     1  C   -0.918742
     2  C    0.053976
     3  C   -0.280472
     4  C    0.604236
     5  C   -0.604799
     6  C   -0.242828
     7  C   -0.377901
     8  C    0.676567
     9  C   -0.463725
    10  C   -0.060800
    11  C   -0.060308
    12  C   -0.357774
    13  H    0.170869
    14  H    0.171343
    15  H    0.166760
    16  H    0.121365
    17  H    0.134774
    18  H    0.124389
    19  H    0.143631
    20  H    0.141548
    21  H    0.140954
    22  H    0.135706
    23  H    0.146395
    24  H    0.144354
    25  H    0.142781
    26  H    0.147701
 Sum of Mulliken charges =  -0.00000
 Mulliken charges with hydrogens summed into heavy atoms:
               1
     1  C   -0.409770
     2  C    0.175342
     3  C   -0.145698
     4  C    0.728625
     5  C   -0.319620
     6  C   -0.101874
     7  C   -0.377901
     8  C    0.812272
     9  C   -0.317330
    10  C    0.083554
    11  C    0.082473
    12  C   -0.210073
 Electronic spatial extent (au):  <R**2>=           2377.1548
 Charge=             -0.0000 electrons
 Dipole moment (field-independent basis, Debye):
    X=             -0.0494    Y=             -0.0104    Z=              0.0202  Tot=              0.0543
 Quadrupole moment (field-independent basis, Debye-Ang):
   XX=            -72.6188   YY=            -69.9312   ZZ=            -73.5440
   XY=              0.5147   XZ=              1.9387   YZ=              0.2636
 Traceless Quadrupole moment (field-independent basis, Debye-Ang):
   XX=             -0.5875   YY=              2.1001   ZZ=             -1.5127
   XY=              0.5147   XZ=              1.9387   YZ=              0.2636
 Octapole moment (field-independent basis, Debye-Ang**2):
  XXX=             18.9422  YYY=             -4.7667  ZZZ=              0.2765  XYY=             -5.2414
  XXY=             -2.3054  XXZ=             -5.3197  XZZ=             -3.8794  YZZ=              2.0785
  YYZ=              1.8922  XYZ=             -3.9206
 Hexadecapole moment (field-independent basis, Debye-Ang**3):
 XXXX=          -2080.4273 YYYY=          -1012.7359 ZZZZ=           -293.3302 XXXY=             -0.1614
 XXXZ=             38.1509 YYYX=             19.9300 YYYZ=              8.0607 ZZZX=             11.5629
 ZZZY=             -4.3480 XXYY=           -498.5791 XXZZ=           -390.7303 YYZZ=           -214.6543
 XXYZ=             12.8188 YYXZ=              0.4987 ZZXY=             -3.2922
 N-N= 6.420715817603D+02 E-N=-2.361363016711D+03  KE= 4.615350179382D+02
 PrsmSu:  requested number of processors reduced to:  13 ShMem   1 Linda.
 Calling FoFJK, ICntrl=  10005127 FMM=F ISym2X=0 I1Cent= 0 IOpClX= 0 NMat=1 NMatS=1 NMatT=0.
 ***** Axes restored to original set *****
 -------------------------------------------------------------------
 Center     Atomic                   Forces (Hartrees/Bohr)
 Number     Number              X              Y              Z
 -------------------------------------------------------------------
      1        6          -0.000917413    0.000208259   -0.000163961
      2        6          -0.000578536   -0.001794424    0.004089213
      3        6          -0.001632560    0.002242473   -0.005755835
      4        6          -0.001118988    0.001483805    0.001499162
      5        6           0.001964878    0.002601343   -0.004318978
      6        6           0.019854439   -0.004332358    0.042510814
      7        6          -0.025570487   -0.001656100   -0.051943834
      8        6           0.011796652    0.009928365    0.009939464
      9        6           0.035681840   -0.009220247    0.042236873
     10        6          -0.074890785    0.018987005   -0.032192471
     11        6           0.008070089   -0.040197686   -0.073229129
     12        6           0.011617489    0.007670175    0.055932431
     13        1           0.000229317    0.000265765    0.000028493
     14        1           0.000418870   -0.000281352    0.000098071
     15        1           0.000145884    0.000106181   -0.000136632
     16        1           0.000000390   -0.000211905    0.001122460
     17        1           0.001634009   -0.000494151   -0.000423871
     18        1           0.000703855    0.002361541   -0.001297157
     19        1           0.001354162    0.001174284    0.001881452
     20        1           0.000271243    0.001344150    0.001431594
     21        1          -0.000428355    0.000659149   -0.000554042
     22        1           0.009489944    0.006998891    0.008584888
     23        1          -0.000118843   -0.001045452    0.001410506
     24        1           0.000397832    0.002572847   -0.000647159
     25        1           0.001688454    0.001854722   -0.001365776
     26        1          -0.000063379   -0.001225278    0.001263424
 -------------------------------------------------------------------
 Cartesian Forces:  Max     0.074890785 RMS     0.018529353

 GradGradGradGradGradGradGradGradGradGradGradGradGradGradGradGradGradGrad
 Berny optimization.
 FormGI is forming the generalized inverse of G from B-inverse, IUseBI=4.
 Internal  Forces:  Max     0.065923121 RMS     0.009315449
 Search for a local minimum.
 Step number   1 out of a maximum of  156
 All quantities printed in internal units (Hartrees-Bohrs-Radians)
 Mixed Optimization -- RFO/linear search
 Second derivative matrix not updated -- first step.
 ITU=  0
     Eigenvalues ---    0.00556   0.00753   0.00768   0.00778   0.00842
     Eigenvalues ---    0.00964   0.01303   0.01567   0.01593   0.01686
     Eigenvalues ---    0.01696   0.01866   0.01941   0.02309   0.02991
     Eigenvalues ---    0.03293   0.04376   0.04905   0.05390   0.05552
     Eigenvalues ---    0.05559   0.06790   0.07090   0.07126   0.07208
     Eigenvalues ---    0.07547   0.07893   0.09916   0.14167   0.15995
     Eigenvalues ---    0.15998   0.15999   0.15999   0.16000   0.16000
     Eigenvalues ---    0.16000   0.16000   0.16000   0.16000   0.20656
     Eigenvalues ---    0.21557   0.22000   0.22000   0.22000   0.24942
     Eigenvalues ---    0.24966   0.27219   0.29219   0.29967   0.30125
     Eigenvalues ---    0.32273   0.32392   0.32472   0.33399   0.33701
     Eigenvalues ---    0.33956   0.33961   0.34174   0.34348   0.34400
     Eigenvalues ---    0.34719   0.34795   0.34966   0.35405   0.35618
     Eigenvalues ---    0.35619   0.35795   0.35826   0.51150   0.52579
     Eigenvalues ---    0.55485   0.59075
 RFO step:  Lambda=-2.73735818D-02 EMin= 5.55612462D-03
 Linear search not attempted -- first point.
 Iteration  1 RMS(Cart)=  0.04234257 RMS(Int)=  0.00069411
 Iteration  2 RMS(Cart)=  0.00171144 RMS(Int)=  0.00038504
 Iteration  3 RMS(Cart)=  0.00000164 RMS(Int)=  0.00038504
 Iteration  4 RMS(Cart)=  0.00000000 RMS(Int)=  0.00038504
 Variable       Old X    -DE/DX   Delta X   Delta X   Delta X     New X
                                 (Linear)    (Quad)   (Total)
    R1        2.83647   0.00012   0.00000   0.00034   0.00034   2.83681
    R2        2.07405   0.00010   0.00000   0.00028   0.00028   2.07433
    R3        2.07396   0.00014   0.00000   0.00037   0.00037   2.07433
    R4        2.06747   0.00010   0.00000   0.00026   0.00026   2.06772
    R5        2.51680   0.00467   0.00000   0.00756   0.00756   2.52435
    R6        2.05730   0.00104   0.00000   0.00277   0.00277   2.06007
    R7        2.83433   0.00070   0.00000   0.00198   0.00198   2.83631
    R8        2.06009  -0.00039   0.00000  -0.00103  -0.00103   2.05906
    R9        2.97287   0.00822   0.00000   0.01589   0.01592   2.98879
   R10        2.90527  -0.00275   0.00000  -0.00888  -0.00882   2.89645
   R11        2.07838  -0.00088   0.00000  -0.00242  -0.00242   2.07596
   R12        2.86505  -0.00762   0.00000  -0.02092  -0.02099   2.84406
   R13        2.07038   0.00043   0.00000   0.00116   0.00116   2.07154
   R14        2.06660   0.00119   0.00000   0.00320   0.00320   2.06980
   R15        2.52812   0.03864   0.00000   0.07006   0.07003   2.59816
   R16        2.05022  -0.00002   0.00000  -0.00006  -0.00006   2.05016
   R17        2.83289  -0.01222   0.00000  -0.03470  -0.03470   2.79819
   R18        2.86221   0.00425   0.00000   0.01319   0.01349   2.87570
   R19        2.86319   0.00339   0.00000   0.01063   0.01093   2.87412
   R20        2.08357   0.01223   0.00000   0.03385   0.03385   2.11742
   R21        2.54062   0.06555   0.00000   0.11105   0.11092   2.65153
   R22        2.04403   0.00027   0.00000   0.00069   0.00069   2.04472
   R23        2.77523  -0.03753   0.00000  -0.09770  -0.09809   2.67713
   R24        2.04684  -0.00043   0.00000  -0.00113  -0.00113   2.04571
   R25        2.54135   0.06592   0.00000   0.11184   0.11171   2.65306
   R26        2.04682  -0.00036   0.00000  -0.00093  -0.00093   2.04589
   R27        2.04355   0.00015   0.00000   0.00039   0.00039   2.04394
    A1        1.94300  -0.00028   0.00000  -0.00150  -0.00150   1.94150
    A2        1.94313  -0.00058   0.00000  -0.00305  -0.00305   1.94008
    A3        1.94677  -0.00010   0.00000  -0.00056  -0.00056   1.94621
    A4        1.85672   0.00046   0.00000   0.00254   0.00254   1.85926
    A5        1.88544   0.00018   0.00000   0.00087   0.00087   1.88631
    A6        1.88506   0.00038   0.00000   0.00203   0.00203   1.88709
    A7        2.17867  -0.00053   0.00000  -0.00213  -0.00213   2.17653
    A8        2.01873  -0.00021   0.00000  -0.00146  -0.00146   2.01727
    A9        2.08574   0.00074   0.00000   0.00361   0.00361   2.08935
   A10        2.21937  -0.00236   0.00000  -0.00954  -0.00955   2.20982
   A11        2.06788   0.00282   0.00000   0.01348   0.01347   2.08134
   A12        1.99588  -0.00046   0.00000  -0.00403  -0.00404   1.99184
   A13        2.09640  -0.00160   0.00000   0.00194   0.00188   2.09828
   A14        2.05909  -0.00180   0.00000   0.00079   0.00072   2.05981
   A15        1.90128   0.00140   0.00000   0.00055   0.00050   1.90179
   A16        1.48932   0.00470   0.00000   0.00958   0.00964   1.49895
   A17        1.94787  -0.00057   0.00000   0.00411   0.00417   1.95203
   A18        1.94011  -0.00201   0.00000  -0.01721  -0.01725   1.92286
   A19        1.49775   0.00558   0.00000   0.00841   0.00841   1.50617
   A20        2.00599   0.00009   0.00000   0.01634   0.01640   2.02239
   A21        2.00344  -0.00104   0.00000   0.00404   0.00405   2.00749
   A22        2.03042  -0.00260   0.00000  -0.01181  -0.01195   2.01847
   A23        2.01112  -0.00198   0.00000  -0.00958  -0.00966   2.00146
   A24        1.89426   0.00051   0.00000  -0.00440  -0.00464   1.88962
   A25        1.65877  -0.00391   0.00000  -0.00386  -0.00394   1.65483
   A26        2.30366   0.00282   0.00000   0.00660   0.00663   2.31029
   A27        2.32064   0.00109   0.00000  -0.00265  -0.00262   2.31802
   A28        1.63696  -0.00637   0.00000  -0.01410  -0.01408   1.62289
   A29        2.30190   0.00227   0.00000   0.00385   0.00383   2.30572
   A30        2.34368   0.00412   0.00000   0.01045   0.01043   2.35412
   A31        1.99693  -0.00062   0.00000  -0.02853  -0.03074   1.96619
   A32        2.00911  -0.00214   0.00000  -0.03722  -0.03912   1.97000
   A33        1.87060  -0.00249   0.00000  -0.00805  -0.00691   1.86369
   A34        1.78483  -0.00522   0.00000  -0.03683  -0.03868   1.74615
   A35        1.90077   0.00549   0.00000   0.05964   0.05979   1.96055
   A36        1.89799   0.00589   0.00000   0.06105   0.06121   1.95920
   A37        1.91188   0.00456   0.00000   0.02289   0.02303   1.93492
   A38        2.14605  -0.00328   0.00000  -0.01682  -0.01696   2.12909
   A39        2.22524  -0.00128   0.00000  -0.00616  -0.00629   2.21895
   A40        1.90839  -0.00206   0.00000  -0.00534  -0.00583   1.90256
   A41        2.20496   0.00174   0.00000   0.00646   0.00670   2.21166
   A42        2.16979   0.00032   0.00000  -0.00116  -0.00091   2.16888
   A43        1.90808  -0.00187   0.00000  -0.00455  -0.00504   1.90305
   A44        2.17000   0.00024   0.00000  -0.00144  -0.00120   2.16879
   A45        2.20507   0.00163   0.00000   0.00596   0.00620   2.21127
   A46        1.91147   0.00451   0.00000   0.02270   0.02284   1.93432
   A47        2.14518  -0.00317   0.00000  -0.01624  -0.01639   2.12879
   A48        2.22652  -0.00135   0.00000  -0.00654  -0.00668   2.21984
    D1       -2.11382   0.00009   0.00000   0.00202   0.00202  -2.11180
    D2        1.03782  -0.00001   0.00000  -0.00035  -0.00035   1.03747
    D3        2.10074   0.00007   0.00000   0.00180   0.00180   2.10254
    D4       -1.03080  -0.00003   0.00000  -0.00057  -0.00057  -1.03137
    D5       -0.00634   0.00006   0.00000   0.00170   0.00170  -0.00464
    D6       -3.13788  -0.00004   0.00000  -0.00067  -0.00067  -3.13855
    D7       -3.12999   0.00008   0.00000   0.00201   0.00204  -3.12795
    D8       -0.00101  -0.00034   0.00000  -0.00711  -0.00714  -0.00815
    D9        0.00119   0.00018   0.00000   0.00444   0.00447   0.00566
   D10        3.13017  -0.00023   0.00000  -0.00468  -0.00471   3.12546
   D11       -0.31569   0.00144   0.00000  -0.00187  -0.00184  -0.31753
   D12       -2.08944  -0.00251   0.00000  -0.01647  -0.01648  -2.10592
   D13        1.96137   0.00055   0.00000   0.00669   0.00672   1.96809
   D14        2.83807   0.00182   0.00000   0.00682   0.00682   2.84489
   D15        1.06432  -0.00213   0.00000  -0.00777  -0.00782   1.05650
   D16       -1.16806   0.00093   0.00000   0.01538   0.01538  -1.15267
   D17       -2.10833  -0.00061   0.00000  -0.00692  -0.00690  -2.11523
   D18        2.13000  -0.00043   0.00000  -0.00040  -0.00041   2.12959
   D19       -0.08532  -0.00029   0.00000  -0.01297  -0.01300  -0.09832
   D20       -0.01767  -0.00018   0.00000   0.00043   0.00045  -0.01721
   D21       -2.06253  -0.00001   0.00000   0.00695   0.00695  -2.05557
   D22        2.00534   0.00014   0.00000  -0.00562  -0.00564   1.99970
   D23        1.91840  -0.00054   0.00000  -0.01408  -0.01405   1.90435
   D24       -0.12646  -0.00037   0.00000  -0.00756  -0.00755  -0.13401
   D25       -2.34178  -0.00022   0.00000  -0.02013  -0.02014  -2.36192
   D26        2.14545   0.00028   0.00000   0.00673   0.00674   2.15220
   D27       -1.03130   0.00069   0.00000   0.01235   0.01231  -1.01899
   D28        0.02001  -0.00015   0.00000  -0.00119  -0.00118   0.01883
   D29        3.12644   0.00026   0.00000   0.00442   0.00438   3.13082
   D30       -1.92391  -0.00121   0.00000  -0.00819  -0.00811  -1.93202
   D31        1.18252  -0.00080   0.00000  -0.00258  -0.00254   1.17998
   D32        0.02031  -0.00012   0.00000  -0.00111  -0.00111   0.01921
   D33       -3.10581  -0.00048   0.00000  -0.00679  -0.00680  -3.11262
   D34        2.04164   0.00245   0.00000   0.01976   0.01966   2.06130
[...]
   D17       -2.11523  -0.00055  -0.00145  -0.03135  -0.03282  -2.14805
   D18        2.12959  -0.00062  -0.00009  -0.03615  -0.03622   2.09337
   D19       -0.09832  -0.00028  -0.00273  -0.03156  -0.03430  -0.13262
   D20       -0.01721  -0.00007   0.00010  -0.02206  -0.02202  -0.03923
   D21       -2.05557  -0.00014   0.00146  -0.02686  -0.02542  -2.08099
   D22        1.99970   0.00019  -0.00119  -0.02226  -0.02350   1.97620
   D23        1.90435  -0.00027  -0.00295  -0.02419  -0.02719   1.87716
   D24       -0.13401  -0.00033  -0.00159  -0.02900  -0.03059  -0.16460
   D25       -2.36192  -0.00000  -0.00423  -0.02440  -0.02867  -2.39059
   D26        2.15220  -0.00006   0.00142   0.02398   0.02538   2.17758
   D27       -1.01899  -0.00005   0.00259   0.01373   0.01630  -1.00269
   D28        0.01883   0.00005  -0.00025   0.02414   0.02381   0.04264
   D29        3.13082   0.00005   0.00092   0.01390   0.01472  -3.13764
   D30       -1.93202   0.00013  -0.00170   0.02975   0.02804  -1.90398
   D31        1.17998   0.00013  -0.00053   0.01950   0.01895   1.19893
   D32        0.01921   0.00007  -0.00023   0.02471   0.02453   0.04373
   D33       -3.11262  -0.00005  -0.00143   0.00608   0.00463  -3.10799
   D34        2.06130   0.00065   0.00413   0.02962   0.03373   2.09503
   D35       -1.07052   0.00054   0.00293   0.01098   0.01384  -1.05669
   D36       -2.00350  -0.00013  -0.00173   0.02540   0.02375  -1.97975
   D37        1.14786  -0.00024  -0.00293   0.00677   0.00385   1.15171
   D38       -0.01981  -0.00005   0.00020  -0.02532  -0.02501  -0.04482
   D39       -3.13041  -0.00013  -0.00097  -0.01499  -0.01595   3.13683
   D40        3.11195   0.00008   0.00144  -0.00650  -0.00505   3.10690
   D41        0.00134   0.00000   0.00026   0.00384   0.00401   0.00536
   D42       -0.94624   0.00039   0.01049   0.04402   0.05386  -0.89238
   D43        1.01570   0.00010  -0.01023   0.03086   0.02126   1.03696
   D44       -3.10649   0.00022  -0.00024   0.03708   0.03685  -3.06964
   D45        2.15364   0.00041   0.01203   0.02975   0.04114   2.19477
   D46       -2.16761   0.00012  -0.00869   0.01659   0.00855  -2.15907
   D47       -0.00662   0.00023   0.00130   0.02281   0.02413   0.01751
   D48        2.17249  -0.00116  -0.00522  -0.00733  -0.01230   2.16019
   D49       -0.99086  -0.00106  -0.00856   0.00974   0.00148  -0.98938
   D50        0.07615   0.00180   0.01324   0.02523   0.03852   0.11467
   D51       -3.08720   0.00191   0.00991   0.04230   0.05230  -3.03490
   D52       -2.00509  -0.00083  -0.00246  -0.00380  -0.00656  -2.01165
   D53        1.11474  -0.00072  -0.00579   0.01327   0.00723   1.12197
   D54       -2.17188   0.00117   0.00401   0.00656   0.01029  -2.16159
   D55        0.99177   0.00111   0.00768  -0.00587   0.00149   0.99327
   D56       -0.07830  -0.00183  -0.01334  -0.02749  -0.04083  -0.11913
   D57        3.08535  -0.00189  -0.00967  -0.03992  -0.04962   3.03573
   D58        2.00394   0.00085   0.00214   0.00269   0.00515   2.00908
   D59       -1.11560   0.00079   0.00581  -0.00974  -0.00365  -1.11925
   D60       -0.04955  -0.00111  -0.00890  -0.01449  -0.02353  -0.07308
   D61        3.07766  -0.00128  -0.00965  -0.03673  -0.04624   3.03142
   D62        3.11519  -0.00125  -0.00534  -0.03285  -0.03826   3.07693
   D63       -0.04078  -0.00142  -0.00609  -0.05509  -0.06097  -0.10175
   D64       -0.00357  -0.00007  -0.00019  -0.00375  -0.00393  -0.00750
   D65        3.12532  -0.00025  -0.00101  -0.02503  -0.02635   3.09897
   D66       -3.13122   0.00014   0.00053   0.01822   0.01909  -3.11213
   D67       -0.00233  -0.00004  -0.00029  -0.00306  -0.00333  -0.00566
   D68        0.05535   0.00123   0.00924   0.02050   0.02989   0.08524
   D69       -3.10973   0.00132   0.00532   0.03395   0.03937  -3.07036
   D70       -3.07314   0.00137   0.01010   0.04206   0.05203  -3.02111
   D71        0.04496   0.00146   0.00618   0.05551   0.06152   0.10648
         Item               Value     Threshold  Converged?
 Maximum Force            0.009413     0.000450     NO 
 RMS     Force            0.001701     0.000300     NO 
 Maximum Displacement     0.186274     0.001800     NO 
 RMS     Displacement     0.046980     0.001200     NO 
 Predicted change in Energy=-1.226617D-03
 GradGradGradGradGradGradGradGradGradGradGradGradGradGradGradGradGradGrad

                          Input orientation:                          
 ---------------------------------------------------------------------
 Center     Atomic      Atomic             Coordinates (Angstroms)
 Number     Number       Type             X           Y           Z
 ---------------------------------------------------------------------
      1          6           0        0.929927   -0.051602   -0.076019
      2          6           0        2.427198    0.035079    0.005955
      3          6           0        3.231066    0.296118   -1.027504
      4          6           0        4.730891    0.369435   -0.994373
      5          6           0        5.484642    0.543417    0.378990
      6          6           0        6.100644    1.775378   -0.218554
      7          6           0        5.410299    1.683789   -1.410380
      8          6           0        5.362642    2.486489   -2.647962
      9          6           0        5.640070    1.617289   -3.861485
     10          6           0        4.573863    1.713510   -4.788553
     11          6           0        3.559912    2.506886   -4.244818
     12          6           0        3.943758    2.933529   -2.949249
     13          1           0        0.453250    0.682625    0.586191
     14          1           0        0.572877   -1.039353    0.243061
     15          1           0        0.572991    0.127337   -1.094723
     16          1           0        2.855968   -0.136013    0.993118
     17          1           0        2.801665    0.451604   -2.015704
     18          1           0        5.142150   -0.464418   -1.578308
     19          1           0        6.186668   -0.254224    0.651051
     20          1           0        4.836120    0.732582    1.242029
     21          1           0        6.824253    2.490872    0.157136
     22          1           0        6.087316    3.337438   -2.523453
     23          1           0        6.543838    1.029634   -3.964107
     24          1           0        4.559709    1.274213   -5.777137
     25          1           0        2.642736    2.779994   -4.749811
     26          1           0        3.351256    3.507231   -2.248362
 ---------------------------------------------------------------------
                    Distance matrix (angstroms):
                    1          2          3          4          5
     1  C    0.000000
     2  C    1.502017   0.000000
     3  C    2.514255   1.335059   0.000000
     4  C    3.932935   2.533664   1.501981   0.000000
     5  C    4.615897   3.121783   2.667955   1.576242   0.000000
     6  C    5.485845   4.071027   3.328226   2.110639   1.501415
     7  C    4.986567   3.690955   2.611759   1.536940   2.123163
     8  C    5.718895   4.655053   3.459367   2.759598   3.599007
     9  C    6.269004   5.270961   3.947181   3.256390   4.377098
    10  C    6.213040   5.514762   4.237640   4.028274   5.376071
    11  C    5.553519   5.045983   3.917492   4.062669   5.379535
    12  C    5.123441   4.408424   3.340206   3.318990   4.377686
    13  H    1.097648   2.156956   3.235686   4.571048   5.037580
    14  H    1.097701   2.156184   3.234778   4.561251   5.162274
    15  H    1.094157   2.158259   2.664276   4.166150   5.144829
    16  H    2.204498   1.089774   2.100083   2.778657   2.783649
    17  H    2.742079   2.097813   1.088623   2.184440   3.597409
    18  H    4.491115   3.182821   2.129328   1.097918   2.228015
    19  H    5.310652   3.825371   3.443255   2.283782   1.096855
    20  H    4.196492   2.795944   2.813802   2.268137   1.095992
    21  H    6.423521   5.038639   4.373936   3.195096   2.374102
    22  H    6.638840   5.540753   4.432342   3.603751   4.073567
    23  H    6.913921   5.804934   4.487331   3.541463   4.496754
    24  H    6.887369   6.287066   5.028019   4.870601   6.267971
    25  H    5.726778   5.495300   4.513463   4.926916   6.275612
    26  H    4.821536   4.241659   3.437469   3.649883   4.498723
                    6          7          8          9         10
     6  C    0.000000
     7  C    1.380367   0.000000
     8  C    2.636730   1.475874   0.000000
     9  C    3.675332   2.462749   1.518260   0.000000
    10  C    4.818690   3.480310   2.408692   1.416161   0.000000
    11  C    4.816765   3.483599   2.408361   2.294643   1.397566
    12  C    3.667447   2.465910   1.517844   2.332839   2.295325
    13  H    5.808166   5.437000   6.149455   6.896269   6.850551
    14  H    6.220291   5.792239   6.612974   7.041413   6.993088
    15  H    5.834266   5.091339   5.560477   5.962401   5.671623
    16  H    3.955944   3.951341   5.139882   5.864508   6.308693
    17  H    3.983138   2.947825   3.331533   3.580820   3.524455
    18  H    2.790041   2.171381   3.146526   3.129588   3.920713
    19  H    2.209729   2.933964   4.367380   4.915721   6.005198
    20  H    2.195392   2.875717   4.299470   5.241650   6.115465
    21  H    1.084751   2.260035   3.163052   4.279574   5.488933
    22  H    2.784379   2.105193   1.124620   2.224696   3.171491
    23  H    3.844700   2.869556   2.291263   1.082897   2.242364
    24  H    5.789947   4.467641   3.450514   2.225894   1.081887
    25  H    5.787804   4.473575   3.449900   3.335419   2.206387
    26  H    3.831262   2.875207   2.290692   3.378271   3.341373
                   11         12         13         14         15
    11  C    0.000000
    12  C    1.416990   0.000000
    13  H    6.026435   5.454315   0.000000
    14  H    6.452848   6.110440   1.759902   0.000000
    15  H    4.950460   4.761938   1.774303   1.775058   0.000000
    16  H    5.909012   5.113476   2.570760   2.567316   3.104901
    17  H    3.125392   2.887185   3.512589   3.506062   2.433176
    18  H    4.294462   3.855083   5.290231   4.952393   4.632628
    19  H    6.204282   5.306089   5.809817   5.683092   5.891238
    20  H    5.906129   4.817395   4.431949   4.723657   4.899082
    21  H    5.480272   4.259440   6.636530   7.179804   6.799392
    22  H    3.168704   2.222450   6.961366   7.564320   6.538639
    23  H    3.341390   3.378634   7.610577   7.591663   6.685695
    24  H    2.206146   3.336116   7.596375   7.582229   6.255737
    25  H    1.082043   2.226714   6.137241   6.618195   4.967907
    26  H    2.242781   1.082329   4.940803   5.882007   4.524746
                   16         17         18         19         20
    16  H    0.000000
    17  H    3.066145   0.000000
    18  H    3.456401   2.551133   0.000000
    19  H    3.350306   4.366694   2.470879   0.000000
    20  H    2.176562   3.851075   3.079085   1.773985   0.000000
    21  H    4.831841   5.006103   3.817719   2.861123   2.867272
    22  H    5.905315   4.402425   4.029981   4.794516   4.746538
    23  H    6.287543   4.258433   3.144671   4.803701   5.487112
    24  H    7.122346   4.232704   4.581728   6.804756   7.045456
    25  H    6.444362   3.594719   5.179934   7.136894   6.701118
    26  H    4.901605   3.113365   4.407978   5.531248   4.699609
                   21         22         23         24         25
    21  H    0.000000
    22  H    2.906082   0.000000
    23  H    4.381609   2.758597   0.000000
    24  H    6.467149   4.144507   2.698826   0.000000
    25  H    6.453434   4.139148   4.347377   2.645290   0.000000
    26  H    4.345240   2.755091   4.390313   4.347296   2.699653
                   26
    26  H    0.000000
 Stoichiometry    C12H14
 Framework group  C1[X(C12H14)]
 Deg. of freedom    72
 Full point group                 C1      NOp   1
 Largest Abelian subgroup         C1      NOp   1
 Largest concise Abelian subgroup C1      NOp   1
                         Standard orientation:                         
 ---------------------------------------------------------------------
 Center     Atomic      Atomic             Coordinates (Angstroms)
 Number     Number       Type             X           Y           Z
 ---------------------------------------------------------------------
      1          6           0        3.365849   -1.996264    0.141220
      2          6           0        2.715671   -0.662250   -0.090574
      3          6           0        1.430426   -0.487942   -0.407030
      4          6           0        0.746442    0.823347   -0.669014
      5          6           0        1.408855    2.171096   -0.190141
      6          6           0        0.138990    2.419247    0.571511
      7          6           0       -0.444643    1.219341    0.217941
      8          6           0       -1.734207    0.564541    0.511993
      9          6           0       -2.443259    0.176002   -0.773073
     10          6           0       -2.728687   -1.211092   -0.776392
     11          6           0       -2.179530   -1.797845    0.366998
     12          6           0       -1.517822   -0.804485    1.130699
     13          1           0        3.789825   -2.060670    1.151630
     14          1           0        4.196522   -2.158196   -0.557856
     15          1           0        2.652418   -2.816795    0.019051
     16          1           0        3.368516    0.204389    0.011098
     17          1           0        0.783669   -1.355894   -0.523063
     18          1           0        0.455716    0.869389   -1.726740
     19          1           0        1.642660    2.901646   -0.974183
     20          1           0        2.299234    2.051575    0.437664
     21          1           0       -0.197161    3.244610    1.189946
     22          1           0       -2.325310    1.265833    1.162806
     23          1           0       -2.683719    0.894203   -1.547045
     24          1           0       -3.311552   -1.730491   -1.525373
     25          1           0       -2.276304   -2.840045    0.641355
     26          1           0       -0.943023   -0.951720    2.035886
 ---------------------------------------------------------------------
 Rotational constants (GHZ):           1.2646728           0.7033214           0.5117656
 Standard basis: 6-31+G(2df,p) (6D, 7F)
 There are   490 symmetry adapted cartesian basis functions of A   symmetry.
 There are   454 symmetry adapted basis functions of A   symmetry.
   454 basis functions,   674 primitive gaussians,   490 cartesian basis functions
    43 alpha electrons       43 beta electrons
       nuclear repulsion energy       643.4833659983 Hartrees.
 NAtoms=   26 NActive=   26 NUniq=   26 SFac= 1.00D+00 NAtFMM=   60 NAOKFM=F Big=F
 Integral buffers will be    131072 words long.
 Regular integral format.
 Two-electron integral symmetry is turned on.
 One-electron integrals computed using PRISM.
 PrsmSu:  requested number of processors reduced to:  12 ShMem   1 Linda.
 NBasis=   454 RedAO= T EigKep=  5.51D-06  NBF=   454
 NBsUse=   454 1.00D-06 EigRej= -1.00D+00 NBFU=   454
 Initial guess from the checkpoint file:  "CCdCC1CCdC1C1CdCCdC1.chk"
 B after Tr=     0.000000   -0.000000    0.000000
         Rot=    0.999968    0.005735    0.002437   -0.005072 Ang=   0.92 deg.
 ExpMin= 4.38D-02 ExpMax= 3.05D+03 ExpMxC= 4.57D+02 IAcc=2 IRadAn=         4 AccDes= 0.00D+00
 Harris functional with IExCor=  402 and IRadAn=       4 diagonalized for initial guess.
 HarFok:  IExCor=  402 AccDes= 0.00D+00 IRadAn=         4 IDoV= 1 UseB2=F ITyADJ=14
 ICtDFT=  3500011 ScaDFX=  1.000000  1.000000  1.000000  1.000000
 FoFCou: FMM=F IPFlag=           0 FMFlag=      100000 FMFlg1=           0
         NFxFlg=           0 DoJE=T BraDBF=F KetDBF=T FulRan=T
         wScrn=  0.000000 ICntrl=       500 IOpCl=  0 I1Cent=   200000004 NGrid=           0
         NMat0=    1 NMatS0=      1 NMatT0=    0 NMatD0=    1 NMtDS0=    0 NMtDT0=    0
 Petite list used in FoFCou.
 Requested convergence on RMS density matrix=1.00D-08 within 128 cycles.
 Requested convergence on MAX density matrix=1.00D-06.
 Requested convergence on             energy=1.00D-06.
 No special actions if energy rises.
 SCF Done:  E(RB3LYP) =  -465.625226030     A.U. after   13 cycles
            NFock= 13  Conv=0.45D-08     -V/T= 2.0095
 DoSCS=F DFT=T ScalE2(SS,OS)=  1.000000  1.000000
 ExpMin= 4.38D-02 ExpMax= 3.05D+03 ExpMxC= 4.57D+02 IAcc=3 IRadAn=         5 AccDes= 0.00D+00
 HarFok:  IExCor=  205 AccDes= 0.00D+00 IRadAn=         5 IDoV=-2 UseB2=F ITyADJ=14
 ICtDFT= 12500011 ScaDFX=  1.000000  1.000000  1.000000  1.000000
 Range of M.O.s used for correlation:    13   454
 NBasis=   454 NAE=    43 NBE=    43 NFC=    12 NFV=     0
 NROrb=    442 NOA=    31 NOB=    31 NVA=   411 NVB=   411

 **** Warning!!: The largest alpha MO coefficient is  0.97507110D+02

 Orbital symmetries:
       Occupied  (A) (A) (A) (A) (A) (A) (A) (A) (A) (A) (A) (A)
                 (A) (A) (A) (A) (A) (A) (A) (A) (A) (A) (A) (A)
                 (A) (A) (A) (A) (A) (A) (A) (A) (A) (A) (A) (A)
                 (A) (A) (A) (A) (A) (A) (A)
       Virtual   (A) (A) (A) (A) (A) (A) (A) (A) (A) (A) (A) (A)
                 (A) (A) (A) (A) (A) (A) (A) (A) (A) (A) (A) (A)
                 (A) (A) (A) (A) (A) (A) (A) (A) (A) (A) (A) (A)
                 (A) (A) (A) (A) (A) (A) (A) (A) (A) (A) (A) (A)
                 (A) (A) (A) (A) (A) (A) (A) (A) (A) (A) (A) (A)
                 (A) (A) (A) (A) (A) (A) (A) (A) (A) (A) (A) (A)
                 (A) (A) (A) (A) (A) (A) (A) (A) (A) (A) (A) (A)
                 (A) (A) (A) (A) (A) (A) (A) (A) (A) (A) (A) (A)
                 (A) (A) (A) (A) (A) (A) (A) (A) (A) (A) (A) (A)
                 (A) (A) (A) (A) (A) (A) (A) (A) (A) (A) (A) (A)
                 (A) (A) (A) (A) (A) (A) (A) (A) (A) (A) (A) (A)
                 (A) (A) (A) (A) (A) (A) (A) (A) (A) (A) (A) (A)
                 (A) (A) (A) (A) (A) (A) (A) (A) (A) (A) (A) (A)
                 (A) (A) (A) (A) (A) (A) (A) (A) (A) (A) (A) (A)
                 (A) (A) (A) (A) (A) (A) (A) (A) (A) (A) (A) (A)
                 (A) (A) (A) (A) (A) (A) (A) (A) (A) (A) (A) (A)
                 (A) (A) (A) (A) (A) (A) (A) (A) (A) (A) (A) (A)
                 (A) (A) (A) (A) (A) (A) (A) (A) (A) (A) (A) (A)
                 (A) (A) (A) (A) (A) (A) (A) (A) (A) (A) (A) (A)
                 (A) (A) (A) (A) (A) (A) (A) (A) (A) (A) (A) (A)
                 (A) (A) (A) (A) (A) (A) (A) (A) (A) (A) (A) (A)
                 (A) (A) (A) (A) (A) (A) (A) (A) (A) (A) (A) (A)
                 (A) (A) (A) (A) (A) (A) (A) (A) (A) (A) (A) (A)
                 (A) (A) (A) (A) (A) (A) (A) (A) (A) (A) (A) (A)
                 (A) (A) (A) (A) (A) (A) (A) (A) (A) (A) (A) (A)
                 (A) (A) (A) (A) (A) (A) (A) (A) (A) (A) (A) (A)
                 (A) (A) (A) (A) (A) (A) (A) (A) (A) (A) (A) (A)
                 (A) (A) (A) (A) (A) (A) (A) (A) (A) (A) (A) (A)
                 (A) (A) (A) (A) (A) (A) (A) (A) (A) (A) (A) (A)
                 (A) (A) (A) (A) (A) (A) (A) (A) (A) (A) (A) (A)
                 (A) (A) (A) (A) (A) (A) (A) (A) (A) (A) (A) (A)
                 (A) (A) (A) (A) (A) (A) (A) (A) (A) (A) (A) (A)
                 (A) (A) (A) (A) (A) (A) (A) (A) (A) (A) (A) (A)
                 (A) (A) (A) (A) (A) (A) (A) (A) (A) (A) (A) (A)
                 (A) (A) (A)
 Generating guess from densities on rwf.
 Convergence on wavefunction:    0.000001000000000
 Iteration     1 Dimension    20 NMult     0 NNew     20
 CISAX will form     5 AO SS matrices at one time.
 Iteration     2 Dimension    40 NMult    20 NNew     20
 Iteration     3 Dimension    60 NMult    40 NNew     20
 Iteration     4 Dimension    80 NMult    60 NNew     20
 Iteration     5 Dimension   100 NMult    80 NNew     20
slurmstepd: error: *** JOB 27501054 ON lewis4-r630-hpc4-node237 CANCELLED AT 2023-05-26T18:11:35 DUE TO TIME LIMIT ***
