### Starting Gaussian ###
 Entering Gaussian System, Link 0=g16
 Initial command:
 /cluster/software/gaussian/gaussian-16-A.03/avx2/g16/l1.exe "/local/scratch/yxie/Gau-635.inp" -scrdir="/local/scratch/yxie/"
 Entering Link 1 = /cluster/software/gaussian/gaussian-16-A.03/avx2/g16/l1.exe PID=       636.
  
 Copyright (c) 1988,1990,1992,1993,1995,1998,2003,2009,2016,
            Gaussian, Inc.  All Rights Reserved.
  
 This is part of the Gaussian(R) 16 program.  It is based on
 the Gaussian(R) 09 system (copyright 2009, Gaussian, Inc.),
 the Gaussian(R) 03 system (copyright 2003, Gaussian, Inc.),
 the Gaussian(R) 98 system (copyright 1998, Gaussian, Inc.),
 the Gaussian(R) 94 system (copyright 1995, Gaussian, Inc.),
 the Gaussian 92(TM) system (copyright 1992, Gaussian, Inc.),
 the Gaussian 90(TM) system (copyright 1990, Gaussian, Inc.),
 the Gaussian 88(TM) system (copyright 1988, Gaussian, Inc.),
 the Gaussian 86(TM) system (copyright 1986, Carnegie Mellon
 University), and the Gaussian 82(TM) system (copyright 1983,
 Carnegie Mellon University). Gaussian is a federally registered
 trademark of Gaussian, Inc.
  
 This software contains proprietary and confidential information,
 including trade secrets, belonging to Gaussian, Inc.
  
 This software is provided under written license and may be
 used, copied, transmitted, or stored only in accord with that
 written license.
  
 The following legend is applicable only to US Government
 contracts under FAR:
  
                    RESTRICTED RIGHTS LEGEND
  
 Use, reproduction and disclosure by the US Government is
 subject to restrictions as set forth in subparagraphs (a)
 and (c) of the Commercial Computer Software - Restricted
 Rights clause in FAR 52.227-19.
  
 Gaussian, Inc.
 340 Quinnipiac St., Bldg. 40, Wallingford CT 06492
  
  
 ---------------------------------------------------------------
 Warning -- This program may not be used in any manner that
 competes with the business of Gaussian, Inc. or will provide
 assistance to any competitor of Gaussian, Inc.  The licensee
 of this program is prohibited from giving any competitor of
 Gaussian, Inc. access to this program.  By using this program,
 the user acknowledges that Gaussian, Inc. is engaged in the
 business of creating and licensing software in the field of
 computational chemistry and represents and warrants to the
 licensee that it is not a competitor of Gaussian, Inc. and that
 it will not use this program in any manner prohibited above.
 ---------------------------------------------------------------
  

 Cite this work as:
 Gaussian 16, Revision A.03,
 M. J. Frisch, G. W. Trucks, H. B. Schlegel, G. E. Scuseria, 
 M. A. Robb, J. R. Cheeseman, G. Scalmani, V. Barone, 
 G. A. Petersson, H. Nakatsuji, X. Li, M. Caricato, A. V. Marenich, 
 J. Bloino, B. G. Janesko, R. Gomperts, B. Mennucci, H. P. Hratchian, 
 J. V. Ortiz, A. F. Izmaylov, J. L. Sonnenberg, D. Williams-Young, 
 F. Ding, F. Lipparini, F. Egidi, J. Goings, B. Peng, A. Petrone, 
 T. Henderson, D. Ranasinghe, V. G. Zakrzewski, J. Gao, N. Rega, 
 G. Zheng, W. Liang, M. Hada, M. Ehara, K. Toyota, R. Fukuda, 
 J. Hasegawa, M. Ishida, T. Nakajima, Y. Honda, O. Kitao, H. Nakai, 
 T. Vreven, K. Throssell, J. A. Montgomery, Jr., J. E. Peralta, 
 F. Ogliaro, M. J. Bearpark, J. J. Heyd, E. N. Brothers, K. N. Kudin, 
 V. N. Staroverov, T. A. Keith, R. Kobayashi, J. Normand, 
 K. Raghavachari, A. P. Rendell, J. C. Burant, S. S. Iyengar, 
 J. Tomasi, M. Cossi, J. M. Millam, M. Klene, C. Adamo, R. Cammi, 
 J. W. Ochterski, R. L. Martin, K. Morokuma, O. Farkas, 
 J. B. Foresman, and D. J. Fox, Gaussian, Inc., Wallingford CT, 2016.
 
 ******************************************
 Gaussian 16:  ES64L-G16RevA.03 25-Dec-2016
                28-May-2023 
 ******************************************
 %chk=CCdCCCCCCCCOCqCCCrCCO.chk
 %NProcShared=20
 Will use up to   20 processors via shared memory.
 -----------------------------
 # opt freq b3lyp/6-31g(2df,p)
 -----------------------------
 1/18=20,19=15,26=3,38=1/1,3;
 2/9=110,12=2,17=6,18=5,40=1/2;
 3/5=1,6=6,7=104,11=2,25=1,30=1,71=1,74=-5/1,2,3;
 4//1;
 5/5=2,38=5/2;
 6/7=2,8=2,9=2,10=2,28=1/1;
 7//1,2,3,16;
 1/18=20,19=15,26=3/3(2);
 2/9=110/2;
 99//99;
 2/9=110/2;
 3/5=1,6=6,7=104,11=2,25=1,30=1,71=1,74=-5/1,2,3;
 4/5=5,16=3,69=1/1;
 5/5=2,38=5/2;
 7//1,2,3,16;
 1/18=20,19=15,26=3/3(-5);
 2/9=110/2;
 6/7=2,8=2,9=2,10=2,19=2,28=1/1;
 99/9=1/99;
 -------------------
 Title Card Required
 -------------------
 Symbolic Z-matrix:
 Charge =  0 Multiplicity = 1
 C                     1.0358    0.09245   0.02023 
 C                     2.52803   0.08293   0.03255 
 C                     3.23096  -0.61678   0.92087 
 C                     4.72927  -0.62938   0.9373 
 C                     5.24976  -1.51373   2.05964 
 C                     6.77016  -1.52558   2.06911 
 C                     7.24783  -2.42974   3.19003 
 C                     8.75437  -2.51694   3.22151 
 C                     9.16977  -3.50376   4.32221 
 C                     10.66885  -3.52864   4.35436 
 O                     11.28808  -4.25393   5.39402 
 C                     12.72712  -4.10248   5.36129 
 C                     13.23221  -2.63602   5.5482 
 C                     12.94431  -1.63723   4.41542 
 C                     13.48872  -0.25626   4.6747 
 C                     13.26194  -5.00526   6.48917 
 C                     14.78319  -5.06594   6.53482 
 O                     15.21311  -5.92973   7.57645 
 H                     0.67227   0.73047  -0.7894 
 H                     0.64655   0.48556   0.9643 
 H                     0.64663  -0.9174   -0.14129 
 H                     3.04078   0.67849  -0.72331 
 H                     2.70857  -1.21035   1.67364 
 H                     5.10429   0.39148   1.07601 
 H                     5.104    -1.00348  -0.02287 
 H                     4.87684  -2.53923   1.93576 
 H                     4.87934  -1.15406   3.02877 
 H                     7.15638  -0.50837   2.20922 
 H                     7.14984  -1.88853   1.10623 
 H                     6.83919  -3.43711   3.05608 
 H                     6.88643  -2.05095   4.15382 
 H                     9.17511  -1.51527   3.40429 
 H                     9.147    -2.83861   2.24794 
 H                     8.75294  -4.49943   4.17219 
 H                     8.81054  -3.1324    5.29139 
 H                     10.80219  -2.50926   4.63109 
 H                     11.11368  -3.7612    3.37885 
 H                     13.08873  -4.50022   4.40417 
 H                     14.32304  -2.65052   5.63246 
 H                     12.8405  -2.24788   6.49613 
 H                     11.90516  -1.36652   4.30843 
 H                     13.2637  -2.04941   3.45333 
 H                     13.08782   0.12013   5.62268 
 H                     13.12067   0.4059    3.88205 
 H                     14.57533  -0.24161   4.69102 
 H                     12.86065  -6.02214   6.37423 
 H                     12.86833  -4.67138   7.45908 
 H                     15.23051  -4.08881   6.72964 
 H                     15.18026  -5.44089   5.58652 
 H                     14.90539  -5.54188   8.41416 
 

 GradGradGradGradGradGradGradGradGradGradGradGradGradGradGradGradGradGrad
 Berny optimization.
 Initialization pass.
                           ----------------------------
                           !    Initial Parameters    !
                           ! (Angstroms and Degrees)  !
 --------------------------                            --------------------------
 ! Name  Definition              Value          Derivative Info.                !
 --------------------------------------------------------------------------------
 ! R1    R(1,2)                  1.4923         estimate D2E/DX2                !
 ! R2    R(1,19)                 1.093          estimate D2E/DX2                !
 ! R3    R(1,20)                 1.0942         estimate D2E/DX2                !
 ! R4    R(1,21)                 1.0942         estimate D2E/DX2                !
 ! R5    R(2,3)                  1.3315         estimate D2E/DX2                !
 ! R6    R(2,22)                 1.0904         estimate D2E/DX2                !
 ! R7    R(3,4)                  1.4985         estimate D2E/DX2                !
 ! R8    R(3,23)                 1.0917         estimate D2E/DX2                !
 ! R9    R(4,5)                  1.5207         estimate D2E/DX2                !
 ! R10   R(4,24)                 1.0964         estimate D2E/DX2                !
 ! R11   R(4,25)                 1.0965         estimate D2E/DX2                !
 ! R12   R(5,6)                  1.5205         estimate D2E/DX2                !
 ! R13   R(5,26)                 1.0982         estimate D2E/DX2                !
 ! R14   R(5,27)                 1.0981         estimate D2E/DX2                !
 ! R15   R(6,7)                  1.5173         estimate D2E/DX2                !
 ! R16   R(6,28)                 1.097          estimate D2E/DX2                !
 ! R17   R(6,29)                 1.0968         estimate D2E/DX2                !
 ! R18   R(7,8)                  1.5094         estimate D2E/DX2                !
 ! R19   R(7,30)                 1.0953         estimate D2E/DX2                !
 ! R20   R(7,31)                 1.0968         estimate D2E/DX2                !
 ! R21   R(8,9)                  1.5355         estimate D2E/DX2                !
 ! R22   R(8,32)                 1.1017         estimate D2E/DX2                !
 ! R23   R(8,33)                 1.0979         estimate D2E/DX2                !
 ! R24   R(9,10)                 1.4996         estimate D2E/DX2                !
 ! R25   R(9,34)                 1.0898         estimate D2E/DX2                !
 ! R26   R(9,35)                 1.0983         estimate D2E/DX2                !
 ! R27   R(10,11)                1.4108         estimate D2E/DX2                !
 ! R28   R(10,36)                1.0647         estimate D2E/DX2                !
 ! R29   R(10,37)                1.0971         estimate D2E/DX2                !
 ! R30   R(11,12)                1.4474         estimate D2E/DX2                !
 ! R31   R(12,13)                1.5622         estimate D2E/DX2                !
 ! R32   R(12,16)                1.5405         estimate D2E/DX2                !
 ! R33   R(12,38)                1.0977         estimate D2E/DX2                !
 ! R34   R(13,14)                1.5374         estimate D2E/DX2                !
 ! R35   R(13,39)                1.0942         estimate D2E/DX2                !
 ! R36   R(13,40)                1.0967         estimate D2E/DX2                !
 ! R37   R(14,15)                1.5069         estimate D2E/DX2                !
 ! R38   R(14,41)                1.0791         estimate D2E/DX2                !
 ! R39   R(14,42)                1.0943         estimate D2E/DX2                !
 ! R40   R(15,43)                1.0959         estimate D2E/DX2                !
 ! R41   R(15,44)                1.0965         estimate D2E/DX2                !
 ! R42   R(15,45)                1.0868         estimate D2E/DX2                !
 ! R43   R(16,17)                1.5231         estimate D2E/DX2                !
 ! R44   R(16,46)                1.0992         estimate D2E/DX2                !
 ! R45   R(16,47)                1.0987         estimate D2E/DX2                !
 ! R46   R(17,18)                1.4198         estimate D2E/DX2                !
 ! R47   R(17,48)                1.0922         estimate D2E/DX2                !
 ! R48   R(17,49)                1.0943         estimate D2E/DX2                !
 ! R49   R(18,50)                0.9731         estimate D2E/DX2                !
 ! A1    A(2,1,19)             110.0237         estimate D2E/DX2                !
 ! A2    A(2,1,20)             110.5413         estimate D2E/DX2                !
 ! A3    A(2,1,21)             110.5466         estimate D2E/DX2                !
 ! A4    A(19,1,20)            108.123          estimate D2E/DX2                !
 ! A5    A(19,1,21)            108.1242         estimate D2E/DX2                !
 ! A6    A(20,1,21)            109.4141         estimate D2E/DX2                !
 ! A7    A(1,2,3)              122.4638         estimate D2E/DX2                !
 ! A8    A(1,2,22)             117.4527         estimate D2E/DX2                !
 ! A9    A(3,2,22)             120.0835         estimate D2E/DX2                !
 ! A10   A(2,3,4)              122.6577         estimate D2E/DX2                !
 ! A11   A(2,3,23)             119.5467         estimate D2E/DX2                !
 ! A12   A(4,3,23)             117.7956         estimate D2E/DX2                !
 ! A13   A(3,4,5)              110.8064         estimate D2E/DX2                !
 ! A14   A(3,4,24)             109.6078         estimate D2E/DX2                !
 ! A15   A(3,4,25)             109.5718         estimate D2E/DX2                !
 ! A16   A(5,4,24)             109.3313         estimate D2E/DX2                !
 ! A17   A(5,4,25)             109.3231         estimate D2E/DX2                !
 ! A18   A(24,4,25)            108.1538         estimate D2E/DX2                !
 ! A19   A(4,5,6)              110.5714         estimate D2E/DX2                !
 ! A20   A(4,5,26)             110.0935         estimate D2E/DX2                !
 ! A21   A(4,5,27)             110.2076         estimate D2E/DX2                !
 ! A22   A(6,5,26)             109.4497         estimate D2E/DX2                !
 ! A23   A(6,5,27)             109.5344         estimate D2E/DX2                !
 ! A24   A(26,5,27)            106.9097         estimate D2E/DX2                !
 ! A25   A(5,6,7)              108.908          estimate D2E/DX2                !
 ! A26   A(5,6,28)             110.2188         estimate D2E/DX2                !
 ! A27   A(5,6,29)             110.0754         estimate D2E/DX2                !
 ! A28   A(7,6,28)             110.3257         estimate D2E/DX2                !
 ! A29   A(7,6,29)             110.0219         estimate D2E/DX2                !
 ! A30   A(28,6,29)            107.2822         estimate D2E/DX2                !
 ! A31   A(6,7,8)              111.3498         estimate D2E/DX2                !
 ! A32   A(6,7,30)             109.8928         estimate D2E/DX2                !
 ! A33   A(6,7,31)             109.8549         estimate D2E/DX2                !
 ! A34   A(8,7,30)             108.7713         estimate D2E/DX2                !
 ! A35   A(8,7,31)             109.2994         estimate D2E/DX2                !
 ! A36   A(30,7,31)            107.5873         estimate D2E/DX2                !
 ! A37   A(7,8,9)              108.7893         estimate D2E/DX2                !
 ! A38   A(7,8,32)             109.3969         estimate D2E/DX2                !
 ! A39   A(7,8,33)             110.8157         estimate D2E/DX2                !
 ! A40   A(9,8,32)             111.2266         estimate D2E/DX2                !
 ! A41   A(9,8,33)             110.5236         estimate D2E/DX2                !
 ! A42   A(32,8,33)            106.0762         estimate D2E/DX2                !
 ! A43   A(8,9,10)             107.2446         estimate D2E/DX2                !
 ! A44   A(8,9,34)             112.644          estimate D2E/DX2                !
 ! A45   A(8,9,35)             109.0725         estimate D2E/DX2                !
 ! A46   A(10,9,34)            111.7245         estimate D2E/DX2                !
 ! A47   A(10,9,35)            108.2793         estimate D2E/DX2                !
 ! A48   A(34,9,35)            107.776          estimate D2E/DX2                !
 ! A49   A(9,10,11)            117.5863         estimate D2E/DX2                !
 ! A50   A(9,10,36)             96.5969         estimate D2E/DX2                !
 ! A51   A(9,10,37)            112.9404         estimate D2E/DX2                !
 ! A52   A(11,10,36)           104.2242         estimate D2E/DX2                !
 ! A53   A(11,10,37)           111.612          estimate D2E/DX2                !
 ! A54   A(36,10,37)           112.5387         estimate D2E/DX2                !
 ! A55   A(10,11,12)           111.4653         estimate D2E/DX2                !
 ! A56   A(11,12,13)           114.6437         estimate D2E/DX2                !
 ! A57   A(11,12,16)           105.5036         estimate D2E/DX2                !
 ! A58   A(11,12,38)           108.0184         estimate D2E/DX2                !
 ! A59   A(13,12,16)           110.5033         estimate D2E/DX2                !
 ! A60   A(13,12,38)           109.7506         estimate D2E/DX2                !
 ! A61   A(16,12,38)           108.1596         estimate D2E/DX2                !
 ! A62   A(12,13,14)           117.4601         estimate D2E/DX2                !
 ! A63   A(12,13,39)           108.6085         estimate D2E/DX2                !
 ! A64   A(12,13,40)           108.673          estimate D2E/DX2                !
 ! A65   A(14,13,39)           104.5982         estimate D2E/DX2                !
 ! A66   A(14,13,40)           109.8806         estimate D2E/DX2                !
 ! A67   A(39,13,40)           107.1107         estimate D2E/DX2                !
 ! A68   A(13,14,15)           113.6368         estimate D2E/DX2                !
 ! A69   A(13,14,41)           114.6037         estimate D2E/DX2                !
 ! A70   A(13,14,42)           110.3912         estimate D2E/DX2                !
 ! A71   A(15,14,41)            97.7619         estimate D2E/DX2                !
 ! A72   A(15,14,42)           113.0176         estimate D2E/DX2                !
 ! A73   A(41,14,42)           106.7603         estimate D2E/DX2                !
 ! A74   A(14,15,43)           109.3552         estimate D2E/DX2                !
 ! A75   A(14,15,44)           107.926          estimate D2E/DX2                !
 ! A76   A(14,15,45)           112.0952         estimate D2E/DX2                !
 ! A77   A(43,15,44)           107.1652         estimate D2E/DX2                !
 ! A78   A(43,15,45)           110.3721         estimate D2E/DX2                !
 ! A79   A(44,15,45)           109.7745         estimate D2E/DX2                !
 ! A80   A(12,16,17)           113.0809         estimate D2E/DX2                !
 ! A81   A(12,16,46)           109.8057         estimate D2E/DX2                !
 ! A82   A(12,16,47)           110.1127         estimate D2E/DX2                !
 ! A83   A(17,16,46)           109.323          estimate D2E/DX2                !
 ! A84   A(17,16,47)           110.0875         estimate D2E/DX2                !
 ! A85   A(46,16,47)           104.0427         estimate D2E/DX2                !
 ! A86   A(16,17,18)           110.4042         estimate D2E/DX2                !
 ! A87   A(16,17,48)           112.2572         estimate D2E/DX2                !
 ! A88   A(16,17,49)           110.4919         estimate D2E/DX2                !
 ! A89   A(18,17,48)           106.8227         estimate D2E/DX2                !
 ! A90   A(18,17,49)           108.5069         estimate D2E/DX2                !
 ! A91   A(48,17,49)           108.2106         estimate D2E/DX2                !
 ! A92   A(17,18,50)           107.0574         estimate D2E/DX2                !
 ! D1    D(19,1,2,3)           179.9887         estimate D2E/DX2                !
 ! D2    D(19,1,2,22)           -0.0091         estimate D2E/DX2                !
 ! D3    D(20,1,2,3)            60.6411         estimate D2E/DX2                !
 ! D4    D(20,1,2,22)         -119.3567         estimate D2E/DX2                !
 ! D5    D(21,1,2,3)           -60.6589         estimate D2E/DX2                !
 ! D6    D(21,1,2,22)          119.3433         estimate D2E/DX2                !
 ! D7    D(1,2,3,4)           -179.9944         estimate D2E/DX2                !
 ! D8    D(1,2,3,23)             0.0233         estimate D2E/DX2                !
 ! D9    D(22,2,3,4)             0.0033         estimate D2E/DX2                !
 ! D10   D(22,2,3,23)         -179.979          estimate D2E/DX2                !
 ! D11   D(2,3,4,5)           -179.9929         estimate D2E/DX2                !
 ! D12   D(2,3,4,24)            59.2572         estimate D2E/DX2                !
 ! D13   D(2,3,4,25)           -59.2769         estimate D2E/DX2                !
 ! D14   D(23,3,4,5)            -0.0103         estimate D2E/DX2                !
 ! D15   D(23,3,4,24)         -120.7601         estimate D2E/DX2                !
 ! D16   D(23,3,4,25)          120.7057         estimate D2E/DX2                !
 ! D17   D(3,4,5,6)            179.8502         estimate D2E/DX2                !
 ! D18   D(3,4,5,26)            58.7857         estimate D2E/DX2                !
 ! D19   D(3,4,5,27)           -58.9039         estimate D2E/DX2                !
 ! D20   D(24,4,5,6)           -59.2362         estimate D2E/DX2                !
 ! D21   D(24,4,5,26)          179.6993         estimate D2E/DX2                !
 ! D22   D(24,4,5,27)           62.0097         estimate D2E/DX2                !
 ! D23   D(25,4,5,6)            58.9868         estimate D2E/DX2                !
 ! D24   D(25,4,5,26)          -62.0777         estimate D2E/DX2                !
 ! D25   D(25,4,5,27)         -179.7673         estimate D2E/DX2                !
 ! D26   D(4,5,6,7)           -179.3396         estimate D2E/DX2                !
 ! D27   D(4,5,6,28)            59.5002         estimate D2E/DX2                !
 ! D28   D(4,5,6,29)           -58.6423         estimate D2E/DX2                !
 ! D29   D(26,5,6,7)           -57.8937         estimate D2E/DX2                !
 ! D30   D(26,5,6,28)         -179.054          estimate D2E/DX2                !
 ! D31   D(26,5,6,29)           62.8035         estimate D2E/DX2                !
 ! D32   D(27,5,6,7)            59.0165         estimate D2E/DX2                !
 ! D33   D(27,5,6,28)          -62.1437         estimate D2E/DX2                !
 ! D34   D(27,5,6,29)          179.7138         estimate D2E/DX2                !
 ! D35   D(5,6,7,8)            178.1695         estimate D2E/DX2                !
 ! D36   D(5,6,7,30)            57.581          estimate D2E/DX2                !
 ! D37   D(5,6,7,31)           -60.6032         estimate D2E/DX2                !
 ! D38   D(28,6,7,8)           -60.7356         estimate D2E/DX2                !
 ! D39   D(28,6,7,30)          178.6759         estimate D2E/DX2                !
 ! D40   D(28,6,7,31)           60.4917         estimate D2E/DX2                !
 ! D41   D(29,6,7,8)            57.4393         estimate D2E/DX2                !
 ! D42   D(29,6,7,30)          -63.1491         estimate D2E/DX2                !
 ! D43   D(29,6,7,31)          178.6667         estimate D2E/DX2                !
 ! D44   D(6,7,8,9)           -176.869          estimate D2E/DX2                !
 ! D45   D(6,7,8,32)            61.4465         estimate D2E/DX2                !
 ! D46   D(6,7,8,33)           -55.1649         estimate D2E/DX2                !
 ! D47   D(30,7,8,9)           -55.6236         estimate D2E/DX2                !
 ! D48   D(30,7,8,32)         -177.308          estimate D2E/DX2                !
 ! D49   D(30,7,8,33)           66.0805         estimate D2E/DX2                !
 ! D50   D(31,7,8,9)            61.5799         estimate D2E/DX2                !
 ! D51   D(31,7,8,32)          -60.1046         estimate D2E/DX2                !
 ! D52   D(31,7,8,33)         -176.716          estimate D2E/DX2                !
 ! D53   D(7,8,9,10)          -178.1215         estimate D2E/DX2                !
 ! D54   D(7,8,9,34)            58.5508         estimate D2E/DX2                !
 ! D55   D(7,8,9,35)           -61.0689         estimate D2E/DX2                !
 ! D56   D(32,8,9,10)          -57.5589         estimate D2E/DX2                !
 ! D57   D(32,8,9,34)          179.1135         estimate D2E/DX2                !
 ! D58   D(32,8,9,35)           59.4937         estimate D2E/DX2                !
 ! D59   D(33,8,9,10)           59.9966         estimate D2E/DX2                !
 ! D60   D(33,8,9,34)          -63.3311         estimate D2E/DX2                !
 ! D61   D(33,8,9,35)          177.0492         estimate D2E/DX2                !
 ! D62   D(8,9,10,11)          172.9506         estimate D2E/DX2                !
 ! D63   D(8,9,10,36)           63.1038         estimate D2E/DX2                !
 ! D64   D(8,9,10,37)          -54.7974         estimate D2E/DX2                !
 ! D65   D(34,9,10,11)         -63.1575         estimate D2E/DX2                !
 ! D66   D(34,9,10,36)        -173.0043         estimate D2E/DX2                !
 ! D67   D(34,9,10,37)          69.0945         estimate D2E/DX2                !
 ! D68   D(35,9,10,11)          55.3788         estimate D2E/DX2                !
 ! D69   D(35,9,10,36)         -54.468          estimate D2E/DX2                !
 ! D70   D(35,9,10,37)        -172.3692         estimate D2E/DX2                !
 ! D71   D(9,10,11,12)        -175.4217         estimate D2E/DX2                !
 ! D72   D(36,10,11,12)        -69.9857         estimate D2E/DX2                !
 ! D73   D(37,10,11,12)         51.7334         estimate D2E/DX2                !
 ! D74   D(10,11,12,13)         61.3864         estimate D2E/DX2                !
 ! D75   D(10,11,12,16)       -176.7993         estimate D2E/DX2                !
 ! D76   D(10,11,12,38)        -61.31           estimate D2E/DX2                !
 ! D77   D(11,12,13,14)        -68.6346         estimate D2E/DX2                !
 ! D78   D(11,12,13,39)        173.0265         estimate D2E/DX2                !
 ! D79   D(11,12,13,40)         56.8275         estimate D2E/DX2                !
 ! D80   D(16,12,13,14)        172.3184         estimate D2E/DX2                !
 ! D81   D(16,12,13,39)         53.9795         estimate D2E/DX2                !
 ! D82   D(16,12,13,40)        -62.2195         estimate D2E/DX2                !
 ! D83   D(38,12,13,14)         53.1218         estimate D2E/DX2                !
 ! D84   D(38,12,13,39)        -65.2171         estimate D2E/DX2                !
 ! D85   D(38,12,13,40)        178.5839         estimate D2E/DX2                !
 ! D86   D(11,12,16,17)        175.2089         estimate D2E/DX2                !
 ! D87   D(11,12,16,46)         52.813          estimate D2E/DX2                !
 ! D88   D(11,12,16,47)        -61.1741         estimate D2E/DX2                !
 ! D89   D(13,12,16,17)        -60.3391         estimate D2E/DX2                !
 ! D90   D(13,12,16,46)        177.265          estimate D2E/DX2                !
 ! D91   D(13,12,16,47)         63.2779         estimate D2E/DX2                !
 ! D92   D(38,12,16,17)         59.8165         estimate D2E/DX2                !
 ! D93   D(38,12,16,46)        -62.5794         estimate D2E/DX2                !
 ! D94   D(38,12,16,47)       -176.5665         estimate D2E/DX2                !
 ! D95   D(12,13,14,15)       -179.028          estimate D2E/DX2                !
 ! D96   D(12,13,14,41)         69.7149         estimate D2E/DX2                !
 ! D97   D(12,13,14,42)        -50.8547         estimate D2E/DX2                !
 ! D98   D(39,13,14,15)        -58.5663         estimate D2E/DX2                !
 ! D99   D(39,13,14,41)       -169.8234         estimate D2E/DX2                !
 ! D100  D(39,13,14,42)         69.607          estimate D2E/DX2                !
 ! D101  D(40,13,14,15)         56.1094         estimate D2E/DX2                !
 ! D102  D(40,13,14,41)        -55.1477         estimate D2E/DX2                !
 ! D103  D(40,13,14,42)       -175.7172         estimate D2E/DX2                !
 ! D104  D(13,14,15,43)        -56.3773         estimate D2E/DX2                !
 ! D105  D(13,14,15,44)       -172.6345         estimate D2E/DX2                !
 ! D106  D(13,14,15,45)         66.362          estimate D2E/DX2                !
 ! D107  D(41,14,15,43)         64.8425         estimate D2E/DX2                !
 ! D108  D(41,14,15,44)        -51.4147         estimate D2E/DX2                !
 ! D109  D(41,14,15,45)       -172.4181         estimate D2E/DX2                !
 ! D110  D(42,14,15,43)        176.8123         estimate D2E/DX2                !
 ! D111  D(42,14,15,44)         60.5551         estimate D2E/DX2                !
 ! D112  D(42,14,15,45)        -60.4484         estimate D2E/DX2                !
 ! D113  D(12,16,17,18)       -178.9515         estimate D2E/DX2                !
 ! D114  D(12,16,17,48)         61.9783         estimate D2E/DX2                !
 ! D115  D(12,16,17,49)        -58.9142         estimate D2E/DX2                !
 ! D116  D(46,16,17,18)        -56.2867         estimate D2E/DX2                !
 ! D117  D(46,16,17,48)       -175.3568         estimate D2E/DX2                !
 ! D118  D(46,16,17,49)         63.7507         estimate D2E/DX2                !
 ! D119  D(47,16,17,18)         57.4176         estimate D2E/DX2                !
 ! D120  D(47,16,17,48)        -61.6525         estimate D2E/DX2                !
 ! D121  D(47,16,17,49)        177.455          estimate D2E/DX2                !
 ! D122  D(16,17,18,50)        -62.8997         estimate D2E/DX2                !
 ! D123  D(48,17,18,50)         59.4209         estimate D2E/DX2                !
 ! D124  D(49,17,18,50)        175.8758         estimate D2E/DX2                !
 --------------------------------------------------------------------------------
 Trust Radius=3.00D-01 FncErr=1.00D-07 GrdErr=1.00D-06 EigMax=2.50D+02 EigMin=1.00D-04
 Number of steps in this run=    275 maximum allowed number of steps=    300.
 GradGradGradGradGradGradGradGradGradGradGradGradGradGradGradGradGradGrad

                          Input orientation:                          
 ---------------------------------------------------------------------
 Center     Atomic      Atomic             Coordinates (Angstroms)
 Number     Number       Type             X           Y           Z
 ---------------------------------------------------------------------
      1          6           0        1.035800    0.092450    0.020230
      2          6           0        2.528030    0.082930    0.032550
      3          6           0        3.230960   -0.616780    0.920870
      4          6           0        4.729270   -0.629380    0.937300
      5          6           0        5.249760   -1.513730    2.059640
      6          6           0        6.770160   -1.525580    2.069110
      7          6           0        7.247830   -2.429740    3.190030
      8          6           0        8.754370   -2.516940    3.221510
      9          6           0        9.169770   -3.503760    4.322210
     10          6           0       10.668850   -3.528640    4.354360
     11          8           0       11.288080   -4.253930    5.394020
     12          6           0       12.727120   -4.102480    5.361290
     13          6           0       13.232210   -2.636020    5.548200
     14          6           0       12.944310   -1.637230    4.415420
     15          6           0       13.488720   -0.256260    4.674700
     16          6           0       13.261940   -5.005260    6.489170
     17          6           0       14.783190   -5.065940    6.534820
     18          8           0       15.213110   -5.929730    7.576450
     19          1           0        0.672270    0.730470   -0.789400
     20          1           0        0.646550    0.485560    0.964300
     21          1           0        0.646630   -0.917400   -0.141290
     22          1           0        3.040780    0.678490   -0.723310
     23          1           0        2.708570   -1.210350    1.673640
     24          1           0        5.104290    0.391480    1.076010
     25          1           0        5.104000   -1.003480   -0.022870
     26          1           0        4.876840   -2.539230    1.935760
     27          1           0        4.879340   -1.154060    3.028770
     28          1           0        7.156380   -0.508370    2.209220
     29          1           0        7.149840   -1.888530    1.106230
     30          1           0        6.839190   -3.437110    3.056080
     31          1           0        6.886430   -2.050950    4.153820
     32          1           0        9.175110   -1.515270    3.404290
     33          1           0        9.147000   -2.838610    2.247940
     34          1           0        8.752940   -4.499430    4.172190
     35          1           0        8.810540   -3.132400    5.291390
     36          1           0       10.802190   -2.509260    4.631090
     37          1           0       11.113680   -3.761200    3.378850
     38          1           0       13.088730   -4.500220    4.404170
     39          1           0       14.323040   -2.650520    5.632460
     40          1           0       12.840500   -2.247880    6.496130
     41          1           0       11.905160   -1.366520    4.308430
     42          1           0       13.263700   -2.049410    3.453330
     43          1           0       13.087820    0.120130    5.622680
     44          1           0       13.120670    0.405900    3.882050
     45          1           0       14.575330   -0.241610    4.691020
     46          1           0       12.860650   -6.022140    6.374230
     47          1           0       12.868330   -4.671380    7.459080
     48          1           0       15.230510   -4.088810    6.729640
     49          1           0       15.180260   -5.440890    5.586520
     50          1           0       14.905390   -5.541880    8.414160
 ---------------------------------------------------------------------
                    Distance matrix (angstroms):
                    1          2          3          4          5
     1  C    0.000000
     2  C    1.492311   0.000000
     3  C    2.476467   1.331472   0.000000
     4  C    3.873471   2.484233   1.498453   0.000000
     5  C    4.949390   3.750497   2.485331   1.520734   0.000000
     6  C    6.300700   4.972982   3.830184   2.499880   1.520476
     7  C    7.416090   6.209646   4.956930   3.828738   2.471667
     8  C    8.754052   7.462982   6.277867   4.998192   3.826051
     9  C    9.879333   8.682064   7.427869   6.279946   4.944282
    10  C   11.166585   9.899214   8.694250   7.440472   6.220301
    11  O   12.364380  11.148641   9.907326   8.718813   7.422135
    12  C   13.520774  12.244777  11.047375   9.777511   8.573997
    13  C   13.665849  12.344819  11.203326   9.878613   8.783456
    14  C   12.811015  11.430984  10.373156   8.977748   8.048046
    15  C   13.298906  11.908036  10.928991   9.530758   8.735000
    16  C   14.741517  13.520150  12.283537  11.080525   9.798293
    17  C   16.063611  14.797950  13.592847  12.332745  11.114482
    18  O   17.156900  15.936554  14.700208  13.493811  12.214933
    19  H    1.093034   2.130435   3.359613   4.614102   5.840109
    20  H    1.094221   2.137811   2.810020   4.232307   5.136776
    21  H    1.094230   2.137884   2.810217   4.232524   5.136975
    22  H    2.217259   1.090380   2.101719   2.705392   4.174953
    23  H    2.688719   2.097223   1.091732   2.227768   2.588181
    24  H    4.213870   2.796628   2.133078   1.096374   2.149073
    25  H    4.213451   2.796244   2.132712   1.096494   2.149058
    26  H    5.034738   4.001855   2.726671   2.160145   1.098210
    27  H    5.037648   4.004515   2.729298   2.161494   1.098083
    28  H    6.527952   5.148704   4.132859   2.742861   2.160630
    29  H    6.518064   5.138149   4.124237   2.733707   2.158650
    30  H    7.439994   6.333918   5.052990   4.101748   2.686740
    31  H    7.477339   6.366629   5.086381   4.125555   2.711620
    32  H    8.960189   7.622765   6.504428   5.161040   4.149272
    33  H    8.907602   7.566645   6.457335   5.110265   4.120588
    34  H    9.893350   8.768361   7.492551   6.452265   5.064538
    35  H    9.931333   8.801345   7.520738   6.471474   5.073801
    36  H   11.109064   9.814670   8.641223   7.352441   6.199429
    37  H   11.300204   9.984410   8.835515   7.518654   6.416930
    38  H   13.622946  12.314411  11.153032   9.842924   8.710074
    39  H   14.682362  13.339903  12.221678  10.870601   9.817420
    40  H   13.666213  12.391835  11.228859   9.965550   8.822741
    41  H   11.775408  10.407431   9.342345   7.962493   7.026598
    42  H   12.880034  11.467485  10.446131   9.010182   8.151844
    43  H   13.290576  11.948226  10.945672   9.611447   8.763557
    44  H   12.690784  11.275060  10.374046   8.953153   8.304058
    45  H   14.326435  12.920685  11.960331  10.544462   9.772856
    46  H   14.750885  13.573939  12.316167  11.169665   9.842108
    47  H   14.766155  13.589651  12.331540  11.185512   9.857348
    48  H   16.247736  14.953509  13.776284  12.481783  11.316153
    49  H   16.176130  14.880796  13.704966  12.409233  11.246168
    50  H   17.163020  15.971503  14.720677  13.549521  12.240797
                    6          7          8          9         10
     6  C    0.000000
     7  C    1.517279   0.000000
     8  C    2.499582   1.509390   0.000000
     9  C    3.840284   2.475723   1.535549   0.000000
    10  C    4.943116   3.777118   2.443792   1.499631   0.000000
    11  O    6.237830   4.950642   3.762528   2.489733   1.410810
    12  C    7.277653   6.126585   4.782817   3.754050   2.362134
    13  C    7.422616   6.435551   5.047645   4.331217   2.965272
    14  C    6.605889   5.880437   4.444649   4.211861   2.959540
    15  C    7.317057   6.773254   5.443942   5.415149   4.331600
    16  C    8.590012   7.327151   6.098158   4.867861   3.669051
    17  C    9.832872   8.655566   7.336354   6.232699   4.903620
    18  O   11.000488   9.743526   8.504585   7.279929   6.066086
    19  H    7.102472   8.310282   9.589234  10.782614  12.022059
    20  H    6.539410   7.551804   8.935701   9.991772  11.316042
    21  H    6.538606   7.547232   8.922018   9.962731  11.290453
    22  H    5.154009   6.532579   7.643133   8.972904  10.083161
    23  H    4.092955   4.938748   6.376110   7.349950   8.713598
    24  H    2.726993   4.125909   5.136649   6.499141   7.555081
    25  H    2.724896   4.117396   5.112902   6.454580   7.516923
    26  H    2.151727   2.684544   4.085204   5.005468   6.354206
    27  H    2.152713   2.695016   4.112232   5.059829   6.396424
    28  H    1.097047   2.159170   2.759104   4.182204   5.105008
    29  H    1.096826   2.155164   2.728337   4.126937   5.061990
    30  H    2.152399   1.095319   2.131196   2.653136   4.044775
    31  H    2.153032   1.096806   2.139053   2.711578   4.065770
    32  H    2.750745   2.143962   1.101714   2.190137   2.680961
    33  H    2.721286   2.159063   1.097938   2.178426   2.688712
    34  H    4.147065   2.741097   2.198650   1.089776   2.155535
    35  H    4.138612   2.711366   2.160173   1.098301   2.118572
    36  H    4.877359   3.836203   2.486069   1.936293   1.064657
    37  H    5.057626   4.093072   2.671944   2.176003   1.097077
    38  H    7.363784   6.314835   4.911086   4.044490   2.608116
    39  H    8.426681   7.488178   6.069647   5.385254   3.969602
    40  H    7.547798   6.499333   5.243280   4.447181   3.308110
    41  H    5.604291   4.906320   3.525952   3.471360   2.491051
    42  H    6.660069   6.033628   4.539425   4.430615   3.119811
    43  H    7.432970   6.820931   5.612356   5.493170   4.557804
    44  H    6.880868   6.558201   5.295648   5.575733   4.659947
    45  H    8.333287   7.793147   6.420293   6.324375   5.116492
    46  H    8.709029   7.385676   6.252008   4.916871   3.886053
    47  H    8.725567   7.405387   6.286754   4.988250   3.972764
    48  H    9.993408   8.888449   7.531145   6.547562   5.173441
    49  H    9.921270   8.816668   7.445456   6.440260   5.052498
    50  H   11.071237   9.778301   8.599356   7.334530   6.203498
                   11         12         13         14         15
    11  O    0.000000
    12  C    1.447358   0.000000
    13  C    2.533978   1.562228   0.000000
    14  C    3.247749   2.649396   1.537419   0.000000
    15  C    4.619697   3.980559   2.547952   1.506880   0.000000
    16  C    2.379070   1.540506   2.549433   3.967991   5.088883
    17  C    3.765180   2.555944   3.046879   4.430507   5.316834
    18  O    4.793450   3.798147   4.345836   5.793541   6.601662
    19  H   13.257992  14.370379  14.465494  13.538801  13.967513
    20  H   12.463039  13.650048  13.753372  12.948026  13.388006
    21  H   12.450404  13.651423  13.918361  13.134485  13.731356
    22  H   11.391596  12.397791  12.417047  11.395131  11.797106
    23  H    9.834256  11.060494  11.304501  10.605185  11.230685
    24  H    8.858008   9.831930   9.758551   8.759751   9.147065
    25  H    8.840304   9.833867   9.988484   9.031640   9.639970
    26  H    7.483566   8.706601   9.103367   8.488014   9.320849
    27  H    7.501703   8.701809   8.849529   8.197560   8.811161
    28  H    6.422080   7.340730   7.251992   6.296172   6.800050
    29  H    6.411341   7.356165   7.568690   6.677557   7.455178
    30  H    5.091737   6.358021   6.908192   6.508446   7.546787
    31  H    5.075996   6.307172   6.523460   6.077624   6.861666
    32  H    3.990479   4.810434   4.723610   3.904373   4.669719
    33  H    4.060194   4.909947   5.255635   4.534407   5.604304
    34  H    2.824902   4.167209   5.042773   5.081233   6.378450
    35  H    2.721501   4.035535   4.456850   4.482289   5.526107
    36  H    1.965203   2.603247   2.600415   2.322849   3.506473
    37  H    2.081852   2.578707   3.234235   2.989470   4.427713
    38  H    2.069493   1.097742   2.191947   2.866652   4.271343
    39  H    3.440750   2.174553   1.094176   2.099724   2.710327
    40  H    2.765663   2.177213   1.096659   2.170950   2.775670
    41  H    3.145859   3.044603   2.215789   1.079149   1.968373
    42  H    3.539670   2.853651   2.175680   1.094312   2.181230
    43  H    4.735372   4.246041   2.760934   2.136910   1.095927
    44  H    5.230531   4.761147   3.470126   2.118954   1.096454
    45  H    5.234399   4.332604   2.876096   2.164240   1.086831
    46  H    2.561319   2.174620   3.505166   4.803267   6.043860
    47  H    2.633615   2.178144   2.815415   4.298338   5.256514
    48  H    4.165801   2.852986   2.738540   4.073398   4.684554
    49  H    4.073696   2.803563   3.415211   4.564951   5.529296
    50  H    4.885181   4.017057   4.411041   5.923010   6.627842
                   16         17         18         19         20
    16  C    0.000000
    17  C    1.523144   0.000000
    18  O    2.417413   1.419844   0.000000
    19  H   15.632529  16.922193  18.049425   0.000000
    20  H   14.826374  16.176972  17.235462   1.770905   0.000000
    21  H   14.826316  16.174769  17.229896   1.770926   1.786232
    22  H   13.740342  14.952027  16.146833   2.370002   2.935573
    23  H   12.205093  13.575459  14.610929   3.738966   2.762463
    24  H   11.179193  12.379949  13.579457   4.820526   4.460132
    25  H   11.179128  12.377140  13.572461   4.820206   4.802146
    26  H    9.855189  11.210325  12.253626   5.982963   5.290410
    27  H    9.852619  11.210773  12.258679   5.985759   4.986672
    28  H    8.707345   9.881826  11.095459   7.250526   6.701911
    29  H    8.720540   9.891085  11.100062   7.239578   6.924538
    30  H    7.449625   8.823936   9.837146   8.377789   7.623101
    31  H    7.404656   8.781694   9.802700   8.413531   7.452719
    32  H    6.196668   7.338804   8.564568   9.743135   9.093581
    33  H    6.294056   7.423273   8.645561   9.684256   9.217130
    34  H    5.094638   6.501297   7.441004  10.828964  10.042621
    35  H    4.975665   6.399785   7.351153  10.868726   9.922907
    36  H    3.966465   5.099918   6.311179  11.937037  11.204969
    37  H    3.979547   5.012763   6.255213  12.106711  11.551010
    38  H    2.152276   2.780450   4.076745  14.439590  13.838300
    39  H    2.721155   2.619207   3.914657  15.460107  14.787599
    40  H    2.789409   3.423011   4.511362  14.491906  13.666208
    41  H    4.453864   5.188986   6.515011  12.512516  11.889899
    42  H    4.237143   4.572077   5.988088  13.574704  13.107777
    43  H    5.201033   5.531871   6.703348  13.986893  13.289817
    44  H    6.008135   6.304141   7.626736  13.300017  12.811061
    45  H    5.258393   5.168846   6.409928  14.975815  14.437040
    46  H    1.099222   2.153199   2.643471  15.667544  14.859399
    47  H    1.098695   2.162550   2.663684  15.683153  14.769838
    48  H    2.184714   1.092169   2.026420  17.079338  16.335725
    49  H    2.164371   1.094315   2.049357  17.006464  16.362043
    50  H    2.587368   1.942517   0.973076  18.072897  17.179784
                   21         22         23         24         25
    21  H    0.000000
    22  H    2.935569   0.000000
    23  H    2.762497   3.069764   0.000000
    24  H    4.802678   2.752817   2.943212   0.000000
    25  H    4.459774   2.752547   2.942622   1.775796   0.000000
    26  H    4.983889   4.560207   2.556565   3.062673   2.499272
    27  H    5.293498   4.562526   2.559646   2.500514   3.063601
    28  H    6.933185   5.191005   4.534604   2.510970   3.072397
    29  H    6.692618   5.178917   4.528439   3.063272   2.498728
    30  H    7.410797   6.756469   4.891996   4.646359   4.291081
    31  H    7.659505   6.784192   4.930762   4.314441   4.660364
    32  H    9.255461   7.712306   6.701064   5.062426   5.346147
    33  H    9.036358   7.647499   6.665916   5.305696   4.986996
    34  H    9.856435   9.132664   7.320875   6.842513   6.567721
    35  H   10.053341   9.164586   7.349587   6.627477   6.819978
    36  H   11.333359   9.953433   8.714377   7.315665   7.509733
    37  H   11.403408  10.085151   8.947651   7.659020   7.435924
    38  H   13.722378  12.412550  11.226164   9.937639   9.776594
    39  H   14.946039  13.370397  12.354848  10.723822  10.940119
    40  H   13.946899  12.518725  11.268934   9.807796  10.193102
    41  H   12.114298  10.396043   9.567851   7.732460   8.071415
    42  H   13.167885  11.375142  10.736950   8.842260   8.930769
    43  H   13.750746  11.896486  11.184540   9.191441   9.842567
    44  H   13.173461  11.085478  10.765740   8.493316   9.027832
    45  H   14.758611  12.775265  12.282631  10.157249  10.606946
    46  H   14.754411  13.845698  12.178407  11.373952  11.237235
    47  H   14.873733  13.861939  12.193062  11.254175  11.389376
    48  H   16.430371  15.061976  13.807521  12.432894  12.556347
    49  H   16.263338  14.987586  13.738674  12.485448  12.356653
    50  H   17.259600  16.215897  14.593121  13.605689  13.705758
                   26         27         28         29         30
    26  H    0.000000
    27  H    1.764475   0.000000
    28  H    3.065204   2.504693   0.000000
    29  H    2.505606   3.064437   1.766769   0.000000
    30  H    2.431486   3.008999   3.065175   2.509286   0.000000
    31  H    3.032599   2.469526   2.496777   3.063261   1.768814
    32  H    4.656200   4.327254   2.552902   3.085793   3.044871
    33  H    4.292010   4.654066   3.064977   2.488936   2.517395
    34  H    4.885505   5.244396   4.725549   4.334379   2.456962
    35  H    5.204431   4.948496   4.372820   4.671263   2.995944
    36  H    6.509645   6.283641   4.812582   5.113668   4.364279
    37  H    6.517200   6.766589   5.254442   4.937988   4.298893
    38  H    8.796230   8.971209   7.479669   7.277894   6.481072
    39  H   10.144391   9.909695   8.226080   8.515996   7.953896
    40  H    9.181598   8.752091   7.328896   7.846258   7.018827
    41  H    7.510133   7.144565   5.262510   5.756705   5.614248
    42  H    8.537117   8.442713   6.420434   6.550881   6.584668
    43  H    9.385402   8.702360   6.872314   7.726101   7.634577
    44  H    8.967863   8.430960   6.261550   6.972833   7.409989
    45  H   10.340755   9.879669   7.827599   8.408387   8.528312
    46  H    9.776088   9.929331   8.960338   8.800676   7.345099
    47  H    9.945705   9.788930   8.804434   8.989109   7.567058
    48  H   11.514381  11.377870   9.921962  10.087676   9.183355
    49  H   11.309648  11.446744  10.005926   9.857987   8.943808
    50  H   12.310865  12.197421  11.130349  11.265051   9.909726
                   31         32         33         34         35
    31  H    0.000000
    32  H    2.467145   0.000000
    33  H    3.059896   1.757602   0.000000
    34  H    3.078839   3.110162   2.572226   0.000000
    35  H    2.483103   2.511806   3.076054   1.767681   0.000000
    36  H    3.971273   2.267255   2.920193   2.893232   2.188828
    37  H    4.625492   2.966969   2.449073   2.597588   3.059028
    38  H    6.673090   5.022560   4.790356   4.341992   4.578319
    39  H    7.605855   5.723174   6.187224   6.047882   5.544023
    40  H    6.401261   4.850905   5.660214   5.213283   4.298180
    41  H    5.067544   2.879717   3.744344   4.446367   3.696108
    42  H    6.415626   4.123624   4.361539   5.183272   4.937810
    43  H    6.732635   4.785926   5.972694   6.498880   5.383663
    44  H    6.706394   4.414362   5.383978   6.574459   5.751785
    45  H    7.917164   5.695635   6.494599   7.231766   6.476875
    46  H    7.509452   6.535719   6.399401   4.903153   5.091810
    47  H    7.319462   6.327893   6.660580   5.269691   4.851082
    48  H    8.967240   7.372173   7.658833   6.976251   6.648255
    49  H    9.073695   7.498963   7.370088   6.648091   6.781560
    50  H    9.728351   8.610952   8.859401   7.545439   7.259785
                   36         37         38         39         40
    36  H    0.000000
    37  H    1.797911   0.000000
    38  H    3.040342   2.344836   0.000000
    39  H    3.663206   4.075826   2.540395   0.000000
    40  H    2.775140   3.871625   3.083983   1.762376   0.000000
    41  H    1.620650   2.687946   3.351131   3.041029   2.537260
    42  H    2.767239   2.749247   2.634612   2.496426   3.078493
    43  H    3.622299   4.898645   4.778326   3.033540   2.536051
    44  H    3.799285   4.652520   4.933928   3.721738   3.735567
    45  H    4.402546   5.108065   4.519737   2.598616   3.208298
    46  H    4.429009   4.139572   2.499879   3.749217   3.776282
    47  H    4.115972   4.533817   3.067629   3.088138   2.607949
    48  H    5.148680   5.318215   3.188148   2.023854   3.025838
    49  H    5.354885   4.922625   2.580176   2.919435   4.061672
    50  H    6.351744   6.549980   4.523862   4.054251   4.335095
                   41         42         43         44         45
    41  H    0.000000
    42  H    1.744467   0.000000
    43  H    2.309993   3.073096   0.000000
    44  H    2.191058   2.496559   1.764238   0.000000
    45  H    2.922603   2.553506   1.792075   1.785984   0.000000
    46  H    5.182209   4.947392   6.192246   6.899150   6.260020
    47  H    4.666518   4.803861   5.136060   6.215914   5.495350
    48  H    4.932654   4.331478   4.850944   5.723863   4.402974
    49  H    5.381476   4.441378   5.941764   6.429003   5.310402
    50  H    6.579668   6.285088   6.569192   7.687739   6.485644
                   46         47         48         49         50
    46  H    0.000000
    47  H    1.732487   0.000000
    48  H    3.079012   2.539954   0.000000
    49  H    2.517723   3.073052   1.771262   0.000000
    50  H    2.927956   2.412377   2.248271   2.842763   0.000000
 Stoichiometry    C16H32O2
 Framework group  C1[X(C16H32O2)]
 Deg. of freedom   144
 Full point group                 C1      NOp   1
 Largest Abelian subgroup         C1      NOp   1
 Largest concise Abelian subgroup C1      NOp   1
                         Standard orientation:                         
 ---------------------------------------------------------------------
 Center     Atomic      Atomic             Coordinates (Angstroms)
 Number     Number       Type             X           Y           Z
 ---------------------------------------------------------------------
      1          6           0        9.439687   -0.321278   -0.317283
      2          6           0        8.159323    0.295504    0.137953
      3          6           0        6.970826   -0.234465   -0.143870
      4          6           0        5.682597    0.381192    0.310877
      5          6           0        4.494338   -0.443391   -0.158945
      6          6           0        3.190516    0.183896    0.308395
      7          6           0        2.033621   -0.675694   -0.165771
      8          6           0        0.710149   -0.125439    0.307410
      9          6           0       -0.408911   -1.078661   -0.136418
     10          6           0       -1.708192   -0.477204    0.309688
     11          8           0       -2.898484   -1.101212   -0.119503
     12          6           0       -4.067133   -0.355191    0.295897
     13          6           0       -4.152529    1.094920   -0.278942
     14          6           0       -3.124762    2.119999    0.227581
     15          6           0       -3.299965    3.494469   -0.364723
     16          6           0       -5.275374   -1.191196   -0.167143
     17          6           0       -6.609829   -0.614967    0.288003
     18          8           0       -7.679845   -1.440258   -0.147794
     19          1           0       10.286711    0.278644    0.025307
     20          1           0        9.475908   -0.368616   -1.409879
     21          1           0        9.547994   -1.329375    0.094240
     22          1           0        8.223553    1.214168    0.721784
     23          1           0        6.916735   -1.154703   -0.728776
     24          1           0        5.599461    1.398454   -0.089501
     25          1           0        5.671275    0.442921    1.405574
     26          1           0        4.567894   -1.467398    0.231012
     27          1           0        4.493899   -0.518083   -1.254484
     28          1           0        3.096162    1.202342   -0.088312
     29          1           0        3.179392    0.258111    1.402651
     30          1           0        2.147276   -1.696454    0.214826
     31          1           0        2.033370   -0.728581   -1.261301
     32          1           0        0.563316    0.883672   -0.109613
     33          1           0        0.704629   -0.007097    1.398938
     34          1           0       -0.277893   -2.088767    0.251052
     35          1           0       -0.415512   -1.138431   -1.233071
     36          1           0       -1.645640    0.403809   -0.284784
     37          1           0       -1.731465   -0.258491    1.384490
     38          1           0       -4.075468   -0.320395    1.393056
     39          1           0       -5.123354    1.521078   -0.008558
     40          1           0       -4.117332    1.041271   -1.373723
     41          1           0       -2.113630    1.945141   -0.106486
     42          1           0       -3.099141    2.125594    1.321579
     43          1           0       -3.260371    3.426663   -1.457834
     44          1           0       -2.449441    4.109512   -0.047640
     45          1           0       -4.229214    3.960702   -0.047984
     46          1           0       -5.179005   -2.221757    0.202920
     47          1           0       -5.263879   -1.298391   -1.260536
     48          1           0       -6.791687    0.380970   -0.121714
     49          1           0       -6.645600   -0.547438    1.379647
     50          1           0       -7.668479   -1.432271   -1.120771
 ---------------------------------------------------------------------
 Rotational constants (GHZ):           1.1267613           0.0744577           0.0706587
 Standard basis: 6-31G(2df,p) (6D, 7F)
 There are   718 symmetry adapted cartesian basis functions of A   symmetry.
 There are   664 symmetry adapted basis functions of A   symmetry.
   664 basis functions,  1016 primitive gaussians,   718 cartesian basis functions
    72 alpha electrons       72 beta electrons
       nuclear repulsion energy      1269.2224342665 Hartrees.
 NAtoms=   50 NActive=   50 NUniq=   50 SFac= 1.00D+00 NAtFMM=   60 NAOKFM=F Big=F
 Integral buffers will be    131072 words long.
 Raffenetti 2 integral format.
 Two-electron integral symmetry is turned on.
 One-electron integrals computed using PRISM.
 PrsmSu:  requested number of processors reduced to:  12 ShMem   1 Linda.
 NBasis=   664 RedAO= T EigKep=  4.43D-04  NBF=   664
 NBsUse=   664 1.00D-06 EigRej= -1.00D+00 NBFU=   664
 ExpMin= 1.61D-01 ExpMax= 5.48D+03 ExpMxC= 8.25D+02 IAcc=3 IRadAn=         5 AccDes= 0.00D+00
 Harris functional with IExCor=  402 and IRadAn=       5 diagonalized for initial guess.
 HarFok:  IExCor=  402 AccDes= 0.00D+00 IRadAn=         5 IDoV= 1 UseB2=F ITyADJ=14
 ICtDFT=  3500011 ScaDFX=  1.000000  1.000000  1.000000  1.000000
 FoFCou: FMM=F IPFlag=           0 FMFlag=      100000 FMFlg1=           0
         NFxFlg=           0 DoJE=T BraDBF=F KetDBF=T FulRan=T
         wScrn=  0.000000 ICntrl=       500 IOpCl=  0 I1Cent=   200000004 NGrid=           0
         NMat0=    1 NMatS0=      1 NMatT0=    0 NMatD0=    1 NMtDS0=    0 NMtDT0=    0
 Petite list used in FoFCou.
 Requested convergence on RMS density matrix=1.00D-08 within 128 cycles.
 Requested convergence on MAX density matrix=1.00D-06.
 Requested convergence on             energy=1.00D-06.
 No special actions if energy rises.
 Integral accuracy reduced to 1.0D-05 until final iterations.
 Initial convergence to 1.0D-05 achieved.  Increase integral accuracy.
 SCF Done:  E(RB3LYP) =  -779.419509865     A.U. after   12 cycles
            NFock= 12  Conv=0.58D-08     -V/T= 2.0077

 **********************************************************************

            Population analysis using the SCF density.

 **********************************************************************

 Orbital symmetries:
       Occupied  (A) (A) (A) (A) (A) (A) (A) (A) (A) (A) (A) (A)
                 (A) (A) (A) (A) (A) (A) (A) (A) (A) (A) (A) (A)
                 (A) (A) (A) (A) (A) (A) (A) (A) (A) (A) (A) (A)
                 (A) (A) (A) (A) (A) (A) (A) (A) (A) (A) (A) (A)
                 (A) (A) (A) (A) (A) (A) (A) (A) (A) (A) (A) (A)
                 (A) (A) (A) (A) (A) (A) (A) (A) (A) (A) (A) (A)
       Virtual   (A) (A) (A) (A) (A) (A) (A) (A) (A) (A) (A) (A)
                 (A) (A) (A) (A) (A) (A) (A) (A) (A) (A) (A) (A)
                 (A) (A) (A) (A) (A) (A) (A) (A) (A) (A) (A) (A)
                 (A) (A) (A) (A) (A) (A) (A) (A) (A) (A) (A) (A)
                 (A) (A) (A) (A) (A) (A) (A) (A) (A) (A) (A) (A)
                 (A) (A) (A) (A) (A) (A) (A) (A) (A) (A) (A) (A)
                 (A) (A) (A) (A) (A) (A) (A) (A) (A) (A) (A) (A)
                 (A) (A) (A) (A) (A) (A) (A) (A) (A) (A) (A) (A)
                 (A) (A) (A) (A) (A) (A) (A) (A) (A) (A) (A) (A)
                 (A) (A) (A) (A) (A) (A) (A) (A) (A) (A) (A) (A)
                 (A) (A) (A) (A) (A) (A) (A) (A) (A) (A) (A) (A)
                 (A) (A) (A) (A) (A) (A) (A) (A) (A) (A) (A) (A)
                 (A) (A) (A) (A) (A) (A) (A) (A) (A) (A) (A) (A)
                 (A) (A) (A) (A) (A) (A) (A) (A) (A) (A) (A) (A)
                 (A) (A) (A) (A) (A) (A) (A) (A) (A) (A) (A) (A)
                 (A) (A) (A) (A) (A) (A) (A) (A) (A) (A) (A) (A)
                 (A) (A) (A) (A) (A) (A) (A) (A) (A) (A) (A) (A)
                 (A) (A) (A) (A) (A) (A) (A) (A) (A) (A) (A) (A)
                 (A) (A) (A) (A) (A) (A) (A) (A) (A) (A) (A) (A)
                 (A) (A) (A) (A) (A) (A) (A) (A) (A) (A) (A) (A)
                 (A) (A) (A) (A) (A) (A) (A) (A) (A) (A) (A) (A)
                 (A) (A) (A) (A) (A) (A) (A) (A) (A) (A) (A) (A)
                 (A) (A) (A) (A) (A) (A) (A) (A) (A) (A) (A) (A)
                 (A) (A) (A) (A) (A) (A) (A) (A) (A) (A) (A) (A)
                 (A) (A) (A) (A) (A) (A) (A) (A) (A) (A) (A) (A)
                 (A) (A) (A) (A) (A) (A) (A) (A) (A) (A) (A) (A)
                 (A) (A) (A) (A) (A) (A) (A) (A) (A) (A) (A) (A)
                 (A) (A) (A) (A) (A) (A) (A) (A) (A) (A) (A) (A)
                 (A) (A) (A) (A) (A) (A) (A) (A) (A) (A) (A) (A)
                 (A) (A) (A) (A) (A) (A) (A) (A) (A) (A) (A) (A)
                 (A) (A) (A) (A) (A) (A) (A) (A) (A) (A) (A) (A)
                 (A) (A) (A) (A) (A) (A) (A) (A) (A) (A) (A) (A)
                 (A) (A) (A) (A) (A) (A) (A) (A) (A) (A) (A) (A)
                 (A) (A) (A) (A) (A) (A) (A) (A) (A) (A) (A) (A)
                 (A) (A) (A) (A) (A) (A) (A) (A) (A) (A) (A) (A)
                 (A) (A) (A) (A) (A) (A) (A) (A) (A) (A) (A) (A)
                 (A) (A) (A) (A) (A) (A) (A) (A) (A) (A) (A) (A)
                 (A) (A) (A) (A) (A) (A) (A) (A) (A) (A) (A) (A)
                 (A) (A) (A) (A) (A) (A) (A) (A) (A) (A) (A) (A)
                 (A) (A) (A) (A) (A) (A) (A) (A) (A) (A) (A) (A)
                 (A) (A) (A) (A) (A) (A) (A) (A) (A) (A) (A) (A)
                 (A) (A) (A) (A) (A) (A) (A) (A) (A) (A) (A) (A)
                 (A) (A) (A) (A) (A) (A) (A) (A) (A) (A) (A) (A)
                 (A) (A) (A) (A) (A) (A) (A) (A) (A) (A) (A) (A)
                 (A) (A) (A) (A) (A) (A) (A) (A) (A) (A) (A) (A)
                 (A) (A) (A) (A) (A) (A) (A) (A) (A) (A) (A) (A)
                 (A) (A) (A) (A) (A) (A) (A) (A) (A) (A) (A) (A)
                 (A) (A) (A) (A) (A) (A) (A) (A) (A) (A) (A) (A)
                 (A) (A) (A) (A) (A) (A) (A) (A) (A) (A) (A) (A)
                 (A) (A) (A) (A)
 The electronic state is 1-A.
 Alpha  occ. eigenvalues --  -19.12749 -19.12729 -10.23172 -10.22236 -10.20397
 Alpha  occ. eigenvalues --  -10.18165 -10.17717 -10.17492 -10.17439 -10.17293
 Alpha  occ. eigenvalues --  -10.17201 -10.17196 -10.17143 -10.17126 -10.17120
 Alpha  occ. eigenvalues --  -10.17117 -10.16956 -10.16699  -1.01653  -1.00805
 Alpha  occ. eigenvalues --   -0.81930  -0.80444  -0.79702  -0.77701  -0.76383
 Alpha  occ. eigenvalues --   -0.73295  -0.69720  -0.68706  -0.65071  -0.62809
 Alpha  occ. eigenvalues --   -0.59664  -0.58471  -0.58256  -0.57394  -0.57008
 Alpha  occ. eigenvalues --   -0.53800  -0.50535  -0.49770  -0.48645  -0.47110
 Alpha  occ. eigenvalues --   -0.45746  -0.45287  -0.44823  -0.44197  -0.43334
 Alpha  occ. eigenvalues --   -0.42700  -0.41970  -0.40841  -0.40210  -0.40045
 Alpha  occ. eigenvalues --   -0.39226  -0.38637  -0.38261  -0.37836  -0.36945
 Alpha  occ. eigenvalues --   -0.35736  -0.35124  -0.34821  -0.34732  -0.33754
 Alpha  occ. eigenvalues --   -0.33486  -0.33222  -0.32970  -0.32617  -0.32487
 Alpha  occ. eigenvalues --   -0.32250  -0.31189  -0.29309  -0.28624  -0.25835
 Alpha  occ. eigenvalues --   -0.23710  -0.22969
 Alpha virt. eigenvalues --    0.02189   0.07228   0.07575   0.08981   0.09613
 Alpha virt. eigenvalues --    0.10486   0.10963   0.11251   0.11654   0.11995
 Alpha virt. eigenvalues --    0.12315   0.12838   0.13234   0.13943   0.14265
 Alpha virt. eigenvalues --    0.14750   0.15060   0.15951   0.16325   0.17362
 Alpha virt. eigenvalues --    0.17808   0.18122   0.18403   0.18672   0.19116
 Alpha virt. eigenvalues --    0.19440   0.19654   0.20151   0.20371   0.20621
 Alpha virt. eigenvalues --    0.20889   0.21611   0.22276   0.22824   0.22966
 Alpha virt. eigenvalues --    0.23482   0.24586   0.24904   0.25635   0.25744
 Alpha virt. eigenvalues --    0.26319   0.26811   0.27371   0.28135   0.30071
 Alpha virt. eigenvalues --    0.30757   0.31638   0.33467   0.35157   0.38467
 Alpha virt. eigenvalues --    0.41634   0.43339   0.45379   0.47002   0.47105
 Alpha virt. eigenvalues --    0.48065   0.48748   0.48939   0.49796   0.50555
 Alpha virt. eigenvalues --    0.50826   0.51109   0.51479   0.52270   0.52761
 Alpha virt. eigenvalues --    0.53539   0.53771   0.54782   0.56039   0.56473
 Alpha virt. eigenvalues --    0.56783   0.57852   0.58325   0.58816   0.59234
 Alpha virt. eigenvalues --    0.59656   0.60052   0.60959   0.61510   0.62278
 Alpha virt. eigenvalues --    0.62800   0.63338   0.64031   0.65438   0.65693
 Alpha virt. eigenvalues --    0.66171   0.67438   0.67629   0.68855   0.69522
 Alpha virt. eigenvalues --    0.70125   0.70417   0.70717   0.72059   0.72218
 Alpha virt. eigenvalues --    0.72815   0.72998   0.73357   0.73615   0.73870
 Alpha virt. eigenvalues --    0.74176   0.75059   0.75338   0.75885   0.75983
 Alpha virt. eigenvalues --    0.76385   0.76768   0.77411   0.77691   0.78488
 Alpha virt. eigenvalues --    0.79125   0.79500   0.79821   0.80242   0.80383
 Alpha virt. eigenvalues --    0.80426   0.81211   0.81823   0.82478   0.82679
 Alpha virt. eigenvalues --    0.83259   0.83410   0.84186   0.85737   0.86215
 Alpha virt. eigenvalues --    0.86447   0.87146   0.87565   0.88278   0.88429
 Alpha virt. eigenvalues --    0.89208   0.89832   0.91483   0.91760   0.92563
 Alpha virt. eigenvalues --    0.94295   0.94916   0.95203   0.97446   0.98379
 Alpha virt. eigenvalues --    0.99184   1.00363   1.01209   1.01526   1.04781
 Alpha virt. eigenvalues --    1.05696   1.07023   1.08039   1.09540   1.11134
 Alpha virt. eigenvalues --    1.12480   1.13007   1.14660   1.15448   1.18015
 Alpha virt. eigenvalues --    1.18733   1.19062   1.20489   1.20928   1.21287
 Alpha virt. eigenvalues --    1.21645   1.22584   1.22988   1.24406   1.25221
 Alpha virt. eigenvalues --    1.26064   1.26850   1.27307   1.28875   1.29224
 Alpha virt. eigenvalues --    1.31335   1.31551   1.33056   1.34549   1.37063
 Alpha virt. eigenvalues --    1.37341   1.38614   1.39239   1.40074   1.40674
 Alpha virt. eigenvalues --    1.41035   1.41544   1.41936   1.42211   1.42781
 Alpha virt. eigenvalues --    1.44135   1.46776   1.47714   1.48413   1.50497
 Alpha virt. eigenvalues --    1.51794   1.52440   1.53970   1.54956   1.56184
 Alpha virt. eigenvalues --    1.57704   1.58269   1.58778   1.60070   1.60156
 Alpha virt. eigenvalues --    1.61476   1.62170   1.62733   1.63067   1.64760
 Alpha virt. eigenvalues --    1.65890   1.66915   1.68089   1.69595   1.70361
 Alpha virt. eigenvalues --    1.72319   1.73366   1.73858   1.75169   1.75591
 Alpha virt. eigenvalues --    1.78336   1.78953   1.80684   1.81881   1.82423
 Alpha virt. eigenvalues --    1.83890   1.84742   1.85415   1.85866   1.86793
 Alpha virt. eigenvalues --    1.87836   1.88442   1.89392   1.90017   1.90213
 Alpha virt. eigenvalues --    1.91583   1.91847   1.93708   1.94564   1.95230
 Alpha virt. eigenvalues --    1.95670   1.95812   1.97192   1.98500   2.00262
 Alpha virt. eigenvalues --    2.02915   2.02972   2.05776   2.06113   2.13268
 Alpha virt. eigenvalues --    2.13430   2.14264   2.14814   2.15322   2.16801
 Alpha virt. eigenvalues --    2.18902   2.19300   2.19703   2.20597   2.21003
 Alpha virt. eigenvalues --    2.22795   2.24403   2.27011   2.27813   2.28736
 Alpha virt. eigenvalues --    2.29363   2.29721   2.30806   2.34622   2.35436
 Alpha virt. eigenvalues --    2.36023   2.36431   2.38337   2.38690   2.40710
 Alpha virt. eigenvalues --    2.40718   2.41344   2.44001   2.45767   2.46792
 Alpha virt. eigenvalues --    2.48570   2.49225   2.50468   2.52926   2.56319
 Alpha virt. eigenvalues --    2.58013   2.58309   2.60668   2.62432   2.63844
 Alpha virt. eigenvalues --    2.64526   2.65430   2.67351   2.69991   2.70945
 Alpha virt. eigenvalues --    2.71944   2.73059   2.73456   2.74119   2.74234
 Alpha virt. eigenvalues --    2.75652   2.76026   2.76591   2.76794   2.77480
 Alpha virt. eigenvalues --    2.78013   2.78435   2.78822   2.79334   2.80586
 Alpha virt. eigenvalues --    2.81240   2.82171   2.82376   2.83092   2.83437
 Alpha virt. eigenvalues --    2.83783   2.84189   2.84792   2.85069   2.85633
 Alpha virt. eigenvalues --    2.86703   2.87442   2.88877   2.89273   2.90221
 Alpha virt. eigenvalues --    2.90934   2.91594   2.91641   2.92285   2.92765
 Alpha virt. eigenvalues --    2.93319   2.93983   2.94878   2.95336   2.96126
 Alpha virt. eigenvalues --    2.97183   2.98210   2.98703   2.99336   3.00429
 Alpha virt. eigenvalues --    3.00814   3.01949   3.02161   3.02687   3.03106
 Alpha virt. eigenvalues --    3.03798   3.05203   3.06871   3.07850   3.08996
 Alpha virt. eigenvalues --    3.10594   3.12327   3.12803   3.15625   3.16321
 Alpha virt. eigenvalues --    3.17647   3.19239   3.19904   3.20851   3.21377
 Alpha virt. eigenvalues --    3.22127   3.23445   3.24532   3.25219   3.25662
 Alpha virt. eigenvalues --    3.27308   3.28466   3.30941   3.32720   3.33637
 Alpha virt. eigenvalues --    3.34850   3.35665   3.36768   3.37316   3.38689
 Alpha virt. eigenvalues --    3.39151   3.40237   3.41263   3.42143   3.43357
 Alpha virt. eigenvalues --    3.44529   3.45250   3.45714   3.46399   3.48486
 Alpha virt. eigenvalues --    3.49790   3.50120   3.51219   3.51946   3.52770
 Alpha virt. eigenvalues --    3.54338   3.55407   3.56015   3.56815   3.58051
 Alpha virt. eigenvalues --    3.58733   3.59484   3.60383   3.60986   3.62756
 Alpha virt. eigenvalues --    3.63214   3.64269   3.65428   3.67222   3.68401
 Alpha virt. eigenvalues --    3.70897   3.71676   3.71783   3.72328   3.72976
 Alpha virt. eigenvalues --    3.74457   3.74967   3.76711   3.77053   3.77633
 Alpha virt. eigenvalues --    3.78279   3.79668   3.80139   3.80582   3.81791
 Alpha virt. eigenvalues --    3.82595   3.83520   3.85012   3.85738   3.87011
 Alpha virt. eigenvalues --    3.88485   3.90130   3.90751   3.92095   3.94633
 Alpha virt. eigenvalues --    3.95451   4.00846   4.01677   4.09917   4.12577
 Alpha virt. eigenvalues --    4.15332   4.16493   4.17584   4.19516   4.24208
 Alpha virt. eigenvalues --    4.24339   4.26493   4.29173   4.30566   4.32440
 Alpha virt. eigenvalues --    4.33186   4.34811   4.35912   4.36274   4.38284
 Alpha virt. eigenvalues --    4.39918   4.41200   4.42594   4.43435   4.43705
 Alpha virt. eigenvalues --    4.44466   4.44985   4.46349   4.47853   4.47994
 Alpha virt. eigenvalues --    4.49201   4.49420   4.50986   4.51767   4.52770
 Alpha virt. eigenvalues --    4.53315   4.53613   4.54590   4.55648   4.56192
 Alpha virt. eigenvalues --    4.56633   4.56875   4.58339   4.58813   4.59232
 Alpha virt. eigenvalues --    4.59622   4.59950   4.60573   4.61287   4.61498
 Alpha virt. eigenvalues --    4.61934   4.62338   4.62865   4.63796   4.63955
 Alpha virt. eigenvalues --    4.64845   4.65572   4.65876   4.66251   4.67246
 Alpha virt. eigenvalues --    4.67824   4.69543   4.69947   4.70134   4.70897
 Alpha virt. eigenvalues --    4.71783   4.72424   4.73364   4.74448   4.74996
 Alpha virt. eigenvalues --    4.75467   4.75891   4.77108   4.77305   4.78174
 Alpha virt. eigenvalues --    4.78344   4.79863   4.80029   4.80196   4.80961
 Alpha virt. eigenvalues --    4.81541   4.82159   4.82356   4.83709   4.83817
 Alpha virt. eigenvalues --    4.86253   4.87539   4.88665   4.89934   4.90793
 Alpha virt. eigenvalues --    4.91934   4.92649   4.93024   4.93316   4.94262
 Alpha virt. eigenvalues --    4.95220   4.96019   4.97071   4.98668   4.98803
 Alpha virt. eigenvalues --    4.99866   5.01721   5.02335   5.03087   5.06458
 Alpha virt. eigenvalues --    5.10401   5.10904   5.14532   5.18716   5.21377
 Alpha virt. eigenvalues --    5.25524   5.26577   5.27603   5.29784   5.32453
 Alpha virt. eigenvalues --    5.34896   5.35902   5.38361   5.39831   5.41732
 Alpha virt. eigenvalues --    5.43654   5.45342   5.48060   5.48389   5.49695
 Alpha virt. eigenvalues --    5.50554   5.52294   5.52997   5.55873   5.60348
 Alpha virt. eigenvalues --    5.61074   5.65312   5.65419   5.69411   5.74055
 Alpha virt. eigenvalues --    5.77064   5.88221   5.90300   5.96961   6.04415
 Alpha virt. eigenvalues --    6.05694   6.09753   6.10837   6.21676   6.34175
 Alpha virt. eigenvalues --    6.47812   6.54755   7.03179   7.19011  10.30050
 Alpha virt. eigenvalues --   11.17085  11.20490  11.26330  11.42320  11.54843
 Alpha virt. eigenvalues --   11.80077  11.81981  11.93399  12.09751  12.16858
 Alpha virt. eigenvalues --   12.24993  12.29321  12.42317  12.62422  12.64590
 Alpha virt. eigenvalues --   13.18600  13.64074
          Condensed to atoms (all electrons):
               1          2          3          4          5          6
     1  C    5.005963   0.374978  -0.006722   0.004524  -0.000172   0.000002
     2  C    0.374978   4.775557   0.699296  -0.014330   0.001188  -0.000175
     3  C   -0.006722   0.699296   4.658699   0.414390  -0.028350   0.001899
     4  C    0.004524  -0.014330   0.414390   4.881125   0.421562  -0.037831
     5  C   -0.000172   0.001188  -0.028350   0.421562   4.791999   0.421843
     6  C    0.000002  -0.000175   0.001899  -0.037831   0.421843   4.837167
     7  C   -0.000000   0.000002  -0.000127   0.002019  -0.034953   0.427999
     8  C    0.000000  -0.000000   0.000001  -0.000177   0.002055  -0.039655
     9  C   -0.000000   0.000000  -0.000000   0.000001  -0.000158   0.001885
    10  C    0.000000  -0.000000   0.000000  -0.000000   0.000001  -0.000131
    11  O    0.000000   0.000000  -0.000000   0.000000  -0.000000   0.000000
    12  C    0.000000  -0.000000   0.000000  -0.000000   0.000000  -0.000000
    13  C    0.000000  -0.000000   0.000000   0.000000   0.000000   0.000000
    14  C    0.000000  -0.000000  -0.000000  -0.000000  -0.000000  -0.000000
    15  C    0.000000   0.000000   0.000000  -0.000000   0.000000   0.000000
    16  C    0.000000   0.000000  -0.000000   0.000000  -0.000000   0.000000
    17  C    0.000000   0.000000   0.000000   0.000000   0.000000   0.000000
    18  O    0.000000   0.000000   0.000000   0.000000   0.000000   0.000000
    19  H    0.371120  -0.017156   0.001581  -0.000166   0.000001  -0.000000
    20  H    0.374456  -0.023611  -0.009393  -0.000019   0.000006  -0.000000
    21  H    0.374467  -0.023597  -0.009380  -0.000019   0.000006  -0.000000
    22  H   -0.064325   0.363247  -0.029354  -0.014481   0.000350  -0.000004
    23  H   -0.012214  -0.049366   0.374345  -0.069587  -0.003234   0.000211
    24  H   -0.000071  -0.007534  -0.024583   0.356470  -0.030284  -0.003907
    25  H   -0.000072  -0.007523  -0.024583   0.356568  -0.030143  -0.004122
    26  H   -0.000002   0.000362  -0.000659  -0.035061   0.365936  -0.033559
    27  H   -0.000002   0.000354  -0.000634  -0.035119   0.365482  -0.033440
    28  H    0.000000   0.000006   0.000214  -0.002722  -0.029874   0.360200
    29  H    0.000000   0.000006   0.000229  -0.002920  -0.030074   0.361913
    30  H    0.000000   0.000000   0.000009   0.000205  -0.003589  -0.033139
    31  H    0.000000   0.000000   0.000009   0.000157  -0.002884  -0.032896
    32  H    0.000000   0.000000   0.000000   0.000010   0.000145  -0.001843
    33  H    0.000000   0.000000   0.000000   0.000008   0.000211  -0.003481
    34  H    0.000000   0.000000   0.000000   0.000000   0.000010   0.000186
    35  H    0.000000   0.000000   0.000000   0.000000   0.000011   0.000139
    36  H    0.000000  -0.000000   0.000000   0.000000   0.000000   0.000034
    37  H    0.000000   0.000000   0.000000   0.000000   0.000000   0.000016
    38  H    0.000000   0.000000   0.000000   0.000000   0.000000   0.000000
    39  H    0.000000   0.000000  -0.000000  -0.000000  -0.000000  -0.000000
    40  H    0.000000   0.000000   0.000000   0.000000   0.000000   0.000000
    41  H   -0.000000   0.000000   0.000000   0.000000   0.000000  -0.000000
    42  H    0.000000   0.000000   0.000000   0.000000   0.000000   0.000000
    43  H    0.000000   0.000000  -0.000000   0.000000  -0.000000   0.000000
    44  H    0.000000   0.000000  -0.000000   0.000000  -0.000000  -0.000000
    45  H    0.000000   0.000000  -0.000000   0.000000  -0.000000  -0.000000
    46  H    0.000000   0.000000   0.000000   0.000000   0.000000   0.000000
    47  H    0.000000   0.000000   0.000000   0.000000   0.000000   0.000000
    48  H    0.000000   0.000000   0.000000  -0.000000   0.000000  -0.000000
    49  H    0.000000   0.000000   0.000000   0.000000  -0.000000   0.000000
    50  H    0.000000   0.000000   0.000000   0.000000   0.000000  -0.000000
               7          8          9         10         11         12
     1  C   -0.000000   0.000000  -0.000000   0.000000   0.000000   0.000000
     2  C    0.000002  -0.000000   0.000000  -0.000000   0.000000  -0.000000
     3  C   -0.000127   0.000001  -0.000000   0.000000  -0.000000   0.000000
     4  C    0.002019  -0.000177   0.000001  -0.000000   0.000000  -0.000000
     5  C   -0.034953   0.002055  -0.000158   0.000001  -0.000000   0.000000
     6  C    0.427999  -0.039655   0.001885  -0.000131   0.000000  -0.000000
     7  C    4.775950   0.431822  -0.038769   0.001115  -0.000024  -0.000000
     8  C    0.431822   4.830532   0.388629  -0.037135   0.001097  -0.000232
     9  C   -0.038769   0.388629   4.961290   0.417327  -0.018616   0.002866
    10  C    0.001115  -0.037135   0.417327   4.664052   0.358475  -0.070971
    11  O   -0.000024   0.001097  -0.018616   0.358475   7.761303   0.348616
    12  C   -0.000000  -0.000232   0.002866  -0.070971   0.348616   4.740446
    13  C   -0.000000   0.000048   0.000198  -0.002526  -0.038565   0.352457
    14  C    0.000001  -0.000169   0.000565  -0.012591   0.001432  -0.023039
    15  C    0.000000   0.000005  -0.000046   0.000649  -0.000061   0.001920
    16  C   -0.000000   0.000001  -0.000196   0.002043  -0.020651   0.313642
    17  C    0.000000   0.000000   0.000000  -0.000173   0.001486  -0.029672
    18  O   -0.000000   0.000000  -0.000000   0.000000  -0.000010   0.003358
    19  H    0.000000  -0.000000   0.000000  -0.000000   0.000000   0.000000
    20  H    0.000000  -0.000000   0.000000   0.000000   0.000000   0.000000
    21  H    0.000000  -0.000000   0.000000   0.000000   0.000000   0.000000
    22  H    0.000000   0.000000  -0.000000   0.000000   0.000000   0.000000
    23  H    0.000016   0.000000   0.000000   0.000000   0.000000   0.000000
    24  H    0.000163   0.000009   0.000000   0.000000   0.000000   0.000000
    25  H    0.000175   0.000009   0.000000   0.000000   0.000000   0.000000
    26  H   -0.003432   0.000213   0.000008   0.000000   0.000000   0.000000
    27  H   -0.002786   0.000207   0.000008   0.000000   0.000000   0.000000
    28  H   -0.030083  -0.002494   0.000121   0.000013  -0.000000   0.000000
    29  H   -0.031525  -0.003337   0.000125   0.000012   0.000000   0.000000
    30  H    0.366800  -0.034683  -0.003824   0.000286   0.000001   0.000000
    31  H    0.363164  -0.031582  -0.002987   0.000378  -0.000000   0.000000
    32  H   -0.029944   0.361456  -0.031598  -0.003218   0.000011   0.000015
    33  H   -0.031057   0.366356  -0.036379  -0.001357  -0.000028   0.000005
    34  H   -0.002875  -0.026641   0.350713  -0.026101   0.001324   0.000079
    35  H   -0.003238  -0.027302   0.351259  -0.015532   0.001340   0.000171
    36  H    0.000434  -0.004096  -0.039394   0.363219  -0.037836  -0.007004
    37  H    0.000104   0.001014  -0.050323   0.362691  -0.037202  -0.004901
    38  H    0.000000   0.000044  -0.000000  -0.005341  -0.034708   0.348212
    39  H    0.000000  -0.000001   0.000005  -0.000174   0.002294  -0.015065
    40  H    0.000000   0.000005  -0.000070   0.000366  -0.000726  -0.020884
    41  H   -0.000005   0.000385   0.000109  -0.014100   0.000473  -0.001147
    42  H    0.000000   0.000004  -0.000016   0.001424  -0.000245  -0.002017
    43  H    0.000000  -0.000000   0.000001   0.000054  -0.000006   0.000152
    44  H   -0.000000  -0.000000   0.000001   0.000036   0.000001  -0.000125
    45  H   -0.000000  -0.000000   0.000000  -0.000028   0.000002   0.000071
    46  H    0.000000   0.000000   0.000001   0.000286   0.002324  -0.011557
    47  H    0.000000   0.000000   0.000005   0.000237   0.001594  -0.018696
    48  H   -0.000000   0.000000   0.000000   0.000009  -0.000052   0.002435
    49  H   -0.000000   0.000000   0.000000   0.000002  -0.000038  -0.002214
[...]
 00224,-0.00000351,0.00003098,-0.00001429,0.00000445,-0.00001306,0.0000
 1102,0.00001837,-0.00005048,0.00005109,-0.00021687,-0.00001825,0.00014
 204,-0.00002425,-0.00015162,-0.00532905,0.00271013,-0.00011561,-0.0000
 5484,-0.00009808,0.00012452,-0.00042340,-0.00063755,-0.00001578,0.0000
 3130,0.00000415,0.00009389,0.00004444,-0.00026233,-0.00002399,-0.00004
 265,-0.00003520,0.00001774,0.00002365,0.00001111,-0.00000829,-0.000007
 39,-0.00000336,0.00435820,-0.00152468,-0.01585167,-0.00745677,0.054855
 96,0.00000177,0.00000090,-0.00000121,-0.00000134,0.00000029,0.00000024
 ,0.00000361,-0.00000292,-0.00000710,-0.00000357,0.00000481,0.00000295,
 0.00000398,-0.00000596,-0.00001152,-0.00000827,0.00001220,0.00000815,0
 .00001049,-0.00001280,-0.00003342,-0.00002108,0.00002679,0.00004310,0.
 00010988,0.00007613,-0.00007129,-0.00011293,-0.00017495,-0.00012306,-0
 .00095051,-0.00037017,0.00159858,0.00520938,-0.00074228,-0.01622511,-0
 .00070569,-0.00143416,0.00049845,-0.00016773,0.00016365,0.00038152,-0.
 00002540,0.00005001,-0.00002036,0.05604482,-0.02391053,-0.27956996,0.0
 0030946,0.00145728,-0.00334647,-0.00071312,-0.00146117,0.00212530,-0.0
 0000100,0.00000124,0.00000002,-0.00000087,-0.00000040,0.00000122,-0.00
 000142,0.00000032,-0.00000045,-0.00000074,-0.00000057,0.00000133,-0.00
 000230,0.00000060,0.00000216,-0.00000040,-0.00000114,0.00000224,0.0000
 0012,-0.00000003,-0.00000071,-0.00000438,-0.00000006,0.00000408,-0.000
 00060,0.00000081,-0.00000002,-0.00000023,-0.00000211,0.00000559,0.0000
 0058,-0.00000122,-0.00000257,-0.00001367,0.00000090,0.00000991,-0.0000
 0260,0.00000203,0.00000063,0.00000649,-0.00000673,0.00002277,0.0000096
 5,-0.00000140,-0.00000841,-0.00009087,0.00001695,0.00003776,-0.0000590
 0,0.00003476,0.00000905,0.00003496,0.00000647,0.00018611,0.00018097,0.
 00014163,-0.00001303,-0.00002449,0.00286845,-0.00012931,0.00005534,0.0
 0013443,0.00004219,0.00027955,0.00068922,0.00090930,-0.00000156,-0.000
 01651,-0.00001093,-0.00008809,-0.00025481,0.00012297,0.00000940,0.0000
 3196,0.00002058,0.00001483,0.00002149,0.00000314,0.00000643,-0.0000027
 6,-0.00000135,0.00380489,-0.00117079,-0.01450327,-0.06491503,0.0246999
 8,0.30595325,0.00000155,0.00000126,-0.00000181,-0.00000079,-0.00000136
 ,0.00000251,0.00000508,-0.00000490,-0.00000811,-0.00000497,0.00000394,
 0.00000554,0.00000271,-0.00000927,-0.00000702,-0.00000641,0.00000675,0
 .00001218,0.00001076,-0.00001572,-0.00001516,0.00000054,-0.00000244,0.
 00003095,0.00008246,0.00006620,0.00001269,0.00001214,-0.00029658,0.000
 13441,0.00004556,0.00107437,-0.00011322,-0.00097963,-0.00183737,0.0002
 2801,-0.00127606,-0.00003969,-0.00029061,0.00069425,0.00018698,0.00009
 068,-0.00000234,0.00008137,-0.00000067,-0.02166774,-0.01020542,-0.0168
 9249,-0.18390231,-0.06993826,-0.09239130,0.00148672,-0.00858698,0.0021
 9172,-0.00000204,0.00000308,0.00000067,-0.00000039,-0.00000029,0.00000
 074,-0.00000324,0.00000026,-0.00000083,-0.00000006,-0.00000033,-0.0000
 0023,-0.00000069,0.00000077,0.00000110,-0.00000050,-0.00000027,-0.0000
 0116,-0.00000025,0.00000218,0.00000055,-0.00000051,-0.00000039,0.00000
 037,-0.00000134,0.00000390,-0.00000002,-0.00000009,-0.00000017,-0.0000
 0310,0.00000149,0.00000308,0.00000052,-0.00000120,-0.00000147,-0.00000
 007,-0.00000476,0.00001024,-0.00000088,-0.00000021,0.00000140,-0.00000
 870,0.00001268,0.00001236,0.00000590,0.00000103,-0.00001344,-0.0000038
 6,-0.00005722,0.00005008,-0.00000500,0.00001935,0.00007027,-0.00005060
 ,0.00015658,0.00016631,0.00011952,0.00004643,0.00017254,-0.00007779,0.
 00131887,0.00012843,0.00001747,0.00007728,-0.00003386,0.00002651,-0.00
 000126,-0.00031226,0.00011964,-0.00004966,-0.00003015,0.00004951,-0.00
 000264,0.00001491,-0.00000248,0.00000961,-0.00002041,0.00001695,0.0000
 4090,0.00002683,-0.00000718,-0.00429682,0.00322063,0.00070816,0.001528
 56,-0.00062759,0.00062807,0.20000860,-0.00000036,-0.00000062,0.0000003
 0,0.00000081,0.00000068,-0.00000019,-0.00000021,0.00000150,0.00000278,
 0.00000115,-0.00000313,-0.00000171,-0.00000056,0.00000199,0.00000338,0
 .00000106,-0.00000638,-0.00000441,-0.00000316,0.00000290,0.00000641,-0
 .00000786,-0.00000780,-0.00001058,-0.00005495,-0.00004323,-0.00001924,
 0.00011178,0.00019035,0.00008139,-0.00020757,0.00014441,-0.00016937,-0
 .00084445,0.00074108,0.00004935,0.00036181,-0.00098151,-0.00002730,-0.
 00001424,-0.00007195,0.00003089,-0.00001226,0.00000649,-0.00000606,0.0
 1302187,0.00905358,0.00787453,-0.07039851,-0.08382105,-0.04915135,-0.0
 2743603,-0.03482442,-0.00897821,0.00000025,0.00000008,-0.00000017,0.00
 000002,-0.00000009,-0.00000028,0.00000033,-0.00000017,0.00000022,-0.00
 000011,-0.00000022,-0.00000039,0.00000015,-0.00000049,-0.00000051,0.00
 000007,0.,0.,0.00000036,0.00000118,0.00000011,0.00000040,-0.00000041,-
 0.00000047,0.00000006,0.00000112,-0.00000006,0.00000017,-0.00000002,0.
 00000046,0.00000104,0.00000240,0.00000070,0.00000073,-0.00000064,-0.00
 000080,0.00000103,0.00000115,-0.00000004,0.00000059,-0.00000018,0.0000
 0200,-0.00000262,0.00000197,-0.00000109,0.00000259,0.00000218,-0.00000
 057,0.00002772,-0.00002016,-0.00000031,-0.00001489,-0.00004151,0.00000
 286,-0.00006315,-0.00011365,-0.00004319,-0.00000927,-0.00006887,0.0000
 2651,0.00030491,-0.00159024,0.00014619,0.00002328,-0.00001463,-0.00001
 336,-0.00001381,-0.00000385,0.00000661,-0.00000125,0.00000899,-0.00000
 696,-0.00000062,-0.00000013,-0.00000031,0.00000594,0.00000054,0.000003
 77,0.00000307,-0.00000258,-0.00000107,0.00373668,-0.00190303,-0.000147
 04,-0.00083649,0.00053214,-0.00019572,0.08341356,0.11069414,0.00000072
 ,-0.00000009,-0.00000082,0.00000001,-0.00000015,0.00000076,0.00000204,
 -0.00000108,-0.00000233,-0.00000102,0.00000008,0.00000112,0.00000126,-
 0.00000250,-0.00000085,-0.00000092,-0.00000056,0.00000116,0.00000342,-
 0.00000389,0.00000027,0.00000092,-0.00000615,-0.00000127,0.00001578,0.
 00000347,0.00001754,0.00000184,-0.00008181,-0.00007729,0.00008802,0.00
 020526,0.00016130,-0.00031852,-0.00047594,-0.00008848,-0.00077166,0.00
 003086,0.00002722,0.00034895,-0.00000723,0.00001812,-0.00002554,0.0000
 4572,0.00000696,0.00366737,-0.00014896,0.00219228,-0.09355984,-0.05261
 056,-0.12279699,0.01016415,0.00977578,0.01032012,-0.00000074,0.0000014
 1,0.00000028,-0.00000019,-0.00000015,0.00000029,-0.00000126,0.00000006
 ,-0.00000027,-0.00000014,-0.00000021,0.00000010,-0.00000053,0.00000009
 ,0.00000046,-0.00000015,-0.00000045,-0.00000002,0.00000014,0.00000153,
 0.00000010,-0.00000061,-0.00000009,0.00000041,-0.00000058,0.00000197,-
 0.00000010,-0.00000022,-0.00000092,0.00000028,0.00000149,0.00000235,-0
 .00000010,-0.00000162,0.00000001,0.00000070,-0.00000185,0.00000491,-0.
 00000039,-0.00000008,-0.00000321,0.00000175,0.00000602,0.00000726,0.00
 000019,-0.00000457,0.00000122,0.00000220,-0.00000770,0.00001543,-0.000
 00136,-0.00000840,-0.00001487,0.00001100,0.00002976,0.00004838,-0.0000
 0467,-0.00004152,-0.00005631,0.00009408,0.00053455,0.00011488,0.000306
 93,0.00015253,-0.00005461,-0.00006040,-0.00000866,-0.00015358,0.000050
 88,-0.00002984,0.00001459,-0.00001745,0.00000972,-0.00000485,-0.000008
 53,0.00000741,-0.00001408,0.00000404,0.00002730,0.00001809,0.00000772,
 0.00097483,0.00021708,0.00142604,-0.00024627,0.00086512,0.00097315,0.1
 0151498,0.05493375,0.12144913,-0.00000033,-0.00000010,0.00000044,0.000
 00008,-0.00000019,-0.00000021,-0.00000153,0.00000041,0.00000126,0.0000
 0059,-0.00000013,-0.00000002,-0.00000172,0.00000061,0.00000131,0.00000
 068,0.00000075,0.00000085,-0.00000435,-0.00000062,0.00000249,0.0000027
 3,0.00000546,0.00000112,-0.00002349,-0.00001331,-0.00000663,0.00005169
 ,0.00005986,0.00014076,0.00010847,-0.00012958,-0.00065445,0.00040401,-
 0.00135875,0.00139230,-0.00005972,0.00005785,-0.00002509,0.00010893,0.
 00001751,0.00000892,-0.00000633,0.00001392,-0.00000675,-0.00840514,0.0
 0495776,0.02832624,-0.06886121,0.00343480,0.06086264,0.00053002,-0.001
 86127,0.00579916,0.00000031,-0.00000052,0.00000002,0.00000028,0.000000
 16,-0.00000034,0.00000041,-0.00000008,0.00000007,0.00000021,0.00000028
 ,-0.00000031,0.00000076,-0.00000003,-0.00000046,0.00000013,0.00000059,
 -0.00000096,-0.00000027,-0.00000071,0.00000028,0.00000158,0.00000005,-
 0.00000127,0.00000038,-0.00000091,0.00000004,0.00000010,0.00000130,-0.
 00000267,-0.00000135,-0.00000130,0.00000082,0.00000484,-0.00000050,-0.
 00000326,0.00000150,-0.00000234,-0.00000030,-0.00000136,0.00000524,-0.
 00000999,-0.00000601,-0.00000417,0.00000407,0.00002639,-0.00000812,-0.
 00001249,0.00000996,-0.00000776,-0.00000401,-0.00000123,0.00004089,-0.
 00007350,-0.00004419,-0.00001731,0.00002899,0.00029430,0.00054640,-0.0
 0082061,0.00008041,0.00013025,-0.00008310,-0.00005237,-0.00009076,-0.0
 0012735,-0.00000687,-0.00002428,0.00001509,0.00001176,0.00001787,-0.00
 000326,-0.00000514,-0.00000102,-0.00000083,0.00000524,0.00000184,0.000
 00392,0.00000358,0.00000091,-0.00000678,0.00121538,-0.00089130,-0.0000
 2653,-0.00445124,0.00309494,0.00047800,0.00667839,-0.00202403,-0.02349
 194,0.07204652,-0.00000009,0.00000002,0.00000026,0.00000011,0.00000025
 ,-0.00000029,-0.00000035,0.00000022,0.00000086,0.00000020,-0.00000011,
 -0.00000056,-0.00000012,0.00000050,0.00000005,0.00000026,0.00000031,-0
 .00000122,-0.00000061,0.00000030,-0.00000033,-0.00000081,0.00000360,-0
 .00000191,-0.00000386,-0.00000935,0.00000287,0.00003848,0.00005938,-0.
 00006280,-0.00027674,-0.00004754,0.00048562,0.00049553,0.00120905,-0.0
 0181842,-0.00005343,-0.00018922,0.00016481,0.00001214,-0.00002138,-0.0
 0004864,-0.00000184,-0.00001636,0.00002014,0.00455215,-0.00153002,-0.0
 1667778,0.00641175,-0.04859619,-0.03102794,-0.01124025,-0.00810435,0.0
 4126978,0.00000018,-0.00000027,-0.00000014,-0.00000005,-0.00000004,-0.
 00000003,0.00000029,-0.00000003,0.00000008,-0.00000005,-0.00000004,-0.
 00000006,-0.00000002,-0.00000007,-0.00000014,0.00000008,0.00000001,0.0
 0000031,0.00000003,-0.00000018,0.,-0.00000034,-0.00000009,0.00000023,0
 .00000016,-0.00000028,-0.00000010,0.00000012,-0.00000004,0.00000106,-0
 .00000025,-0.00000044,0.00000004,-0.00000158,0.00000009,0.00000093,0.0
 0000047,-0.00000095,-0.00000025,0.00000127,-0.00000089,0.00000496,-0.0
 0000110,-0.00000185,-0.00000070,-0.00001442,0.00000522,0.00000430,0.00
 000289,-0.00000355,0.00000025,0.00000280,-0.00002363,0.00004939,-0.000
 00616,-0.00002347,-0.00000917,-0.00012090,-0.00026995,0.00077299,-0.00
 004028,0.00010555,-0.00007679,-0.00003834,0.00014704,0.00010763,-0.000
 00220,-0.00000601,0.00001169,-0.00001349,-0.00004033,0.00004754,-0.000
 00069,0.00001167,0.00000877,-0.00000375,-0.00000695,-0.00000195,-0.000
 00189,0.00000162,-0.00000810,-0.00032230,0.00058774,0.00072559,0.00353
 165,-0.00137538,0.00040074,0.00377584,0.00103117,-0.01236728,-0.005183
 13,0.06366769,0.00000033,-0.00000038,-0.00000001,-0.00000011,0.0000010
 4,-0.00000081,0.00000039,0.00000073,0.00000036,0.00000103,-0.00000061,
 -0.00000140,0.00000091,0.00000091,-0.00000039,0.00000122,-0.00000064,-
 0.00000407,0.00000186,0.00000207,0.00000078,0.00000291,0.00000081,-0.0
 0001175,0.00000317,-0.00000991,0.00001629,0.00006171,0.00003169,-0.000
 14826,-0.00012941,-0.00018182,0.00052415,0.00001815,0.00067855,-0.0003
 8535,-0.00015887,-0.00022432,0.00015671,0.00009369,-0.00000570,-0.0000
 8204,0.00000258,-0.00001558,0.00002169,0.00102315,-0.00165626,-0.00268
 548,0.06226712,-0.01973017,-0.28370393,0.00422500,0.00814840,-0.012468
 64,0.00000015,-0.00000011,-0.00000028,-0.00000033,-0.00000018,0.000000
 39,0.00000031,0.00000003,0.,-0.00000030,-0.00000024,0.00000060,-0.0000
 0097,-0.00000027,0.00000063,-0.00000012,-0.00000070,0.00000159,0.00000
 033,0.00000025,-0.00000046,-0.00000171,-0.00000004,0.00000167,0.000000
 16,0.00000007,-0.00000028,-0.00000055,-0.00000128,0.00000388,0.0000007
 0,0.00000020,-0.00000089,-0.00000406,0.00000053,0.00000374,0.00000011,
 -0.00000003,-0.00000025,-0.00000045,-0.00000455,0.00000989,0.00000161,
 0.00000011,-0.00000281,-0.00001501,0.00000749,0.00000926,0.00000299,-0
 .00000158,0.00000102,-0.00001272,-0.00003843,0.00004345,-0.00000322,-0
 .00001599,-0.00002607,-0.00002301,-0.00064420,0.00068621,0.00012670,-0
 .00001609,-0.00014124,-0.00002460,0.00012146,0.00007082,-0.00000175,-0
 .00002433,0.00002998,-0.00001857,-0.00003339,0.00006017,-0.00000622,0.
 00001521,0.00001271,-0.00000393,-0.00001232,-0.00000117,-0.00000146,0.
 00000385,-0.00001600,0.00027586,0.00011894,0.00073693,0.00044944,0.000
 19751,0.00143212,0.00400284,-0.00288925,-0.01579396,-0.07208647,0.0142
 5738,0.30992176,-0.00000188,-0.00000145,0.00000209,0.00000023,0.000002
 67,-0.00000259,-0.00000503,0.00000556,0.00000857,0.00000385,-0.0000030
 9,-0.00000576,-0.00000239,0.00000730,0.00000247,0.00000366,-0.00000227
 ,-0.00001019,-0.00000541,0.00001195,0.00000351,0.00000109,0.00000624,-
 0.00001753,-0.00000654,0.00000179,-0.00001564,-0.00004032,0.00010014,-
 0.00010047,0.00003419,-0.00015100,0.00011801,-0.00032319,0.00083958,0.
 00000508,0.00029556,-0.00010050,0.00011281,-0.00012623,-0.00000594,-0.
 00007193,0.00004095,-0.00003516,0.00003706,0.00146091,-0.00022368,-0.0
 0250280,-0.00298941,-0.00019712,0.00640312,-0.03394478,-0.00279838,0.1
 1991505,0.00000227,-0.00000366,-0.00000120,0.00000016,0.00000023,-0.00
 000083,0.00000425,-0.00000018,0.00000129,-0.00000014,-0.00000007,0.000
 00009,-0.00000004,-0.00000090,-0.00000093,0.00000041,-0.00000025,0.000
 00221,0.00000091,-0.00000244,-0.00000112,-0.00000085,0.00000049,0.0000
 0127,0.00000122,-0.00000330,0.00000018,-0.00000017,-0.00000111,0.00000
 513,-0.00000085,-0.00000330,-0.00000155,-0.00000267,0.00000211,0.00000
 396,0.00000266,-0.00000860,0.00000148,-0.00000039,-0.00000432,0.000011
 81,-0.00000484,-0.00001051,-0.00000733,-0.00001177,0.00001102,0.000011
 30,0.00000872,-0.00002294,0.00000600,-0.00001162,-0.00002503,0.0000369
 3,-0.00000970,-0.00005567,-0.00001801,-0.00011865,-0.00017649,0.000182
 34,-0.00016751,-0.00003361,0.00002433,0.00000136,0.00000912,0.00000476
 ,-0.00000157,0.00005366,-0.00001937,0.00000863,-0.00000258,-0.00000303
 ,0.00000225,-0.00000386,-0.00000507,-0.00001912,-0.00001611,-0.0000123
 9,-0.00003136,-0.00000197,-0.00000115,-0.00027634,0.00003978,-0.000400
 71,0.00038055,0.00024470,0.00071420,0.00002160,0.00092498,0.00097114,0
 .00034422,-0.00149735,-0.00007057,0.03548312,0.00000279,0.00000289,-0.
 00000175,-0.00000216,-0.00000276,0.00000117,0.00000392,-0.00000779,-0.
 00001227,-0.00000481,0.00001023,0.00000727,0.00000348,-0.00000876,-0.0
 0001173,-0.00000624,0.00002034,0.00001570,0.00000860,-0.00002044,-0.00
 002695,-0.00000620,0.00003823,0.00004033,0.00000922,-0.00001282,-0.000
 04143,0.00020157,0.00006115,0.00031704,-0.00049969,0.00028188,-0.00042
 902,0.00014709,-0.00096525,0.00005772,-0.00002507,0.00008617,-0.000101
 42,0.00001720,-0.00004155,0.00008436,-0.00002265,0.00002613,-0.0000480
 8,-0.00030132,0.00189832,0.00148108,-0.01225870,-0.00805746,0.04743493
 ,0.00995282,-0.04309395,-0.04629586,-0.00000194,0.00000187,0.00000111,
 -0.00000052,-0.00000004,0.00000167,-0.00000356,0.00000037,-0.00000167,
 -0.00000017,0.00000027,0.00000117,-0.00000104,0.00000211,0.00000245,-0
 .00000056,-0.00000044,-0.00000037,-0.00000129,-0.00000180,-0.00000012,
 -0.00000167,0.00000096,0.00000191,-0.00000088,-0.00000137,0.00000053,-
 0.00000064,-0.00000054,-0.00000155,-0.00000225,-0.00000512,-0.00000210
 ,-0.00000310,0.00000195,0.00000315,-0.00000194,-0.00000063,0.00000055,
 -0.00000135,-0.00000090,-0.00000512,-0.00000150,-0.00000768,-0.0000034
 4,0.00000174,0.00000096,0.00000451,-0.00000864,0.00000611,0.00000220,-
 0.00000540,0.00000841,-0.00005965,0.00001507,-0.00000228,-0.00000815,0
 .00009348,0.00032092,-0.00037375,-0.00007876,-0.00002675,0.00003512,0.
 00002783,-0.00005420,-0.00003276,-0.00001496,0.00001948,-0.00001524,0.
 00000972,0.00002438,-0.00002786,0.00000307,-0.00001044,0.00000742,0.00
 001840,0.00004544,0.00000115,0.00000387,-0.00001015,0.00001133,0.00009
 033,-0.00007554,-0.00022896,0.00080164,-0.00056764,-0.00107483,-0.0005
 1891,0.00110086,-0.00029977,-0.00076742,-0.00656247,0.00192116,0.00313
 152,0.05557934,-0.00000125,-0.00000153,0.00000145,0.00000210,0.0000019
 5,-0.00000205,-0.00000427,0.00000493,0.00000854,0.00000362,-0.00000461
 ,-0.00000526,-0.00000207,0.00000775,0.00000711,0.00000604,-0.00000873,
 -0.00001116,-0.00000779,0.00001598,0.00001937,0.00001015,-0.00001530,-
 0.00002857,-0.00001049,0.00001071,0.00003853,-0.00013746,-0.00002217,-
 0.00023310,0.00049033,-0.00043925,0.00030978,0.00023439,0.00041919,-0.
 00021604,0.00003435,-0.00005304,0.00015384,-0.00002434,0.00001166,-0.0
 0009389,0.00001934,-0.00002394,0.00005093,-0.00127104,-0.00176084,0.00
 213299,0.00373719,-0.00422466,-0.01529866,0.12270095,0.00573574,-0.480
 62447,0.00000177,-0.00000208,-0.00000077,0.00000015,-0.00000001,-0.000
 00095,0.00000296,-0.00000025,0.00000143,-0.00000104,-0.00000057,-0.000
 00022,0.00000084,-0.00000089,-0.00000178,0.00000052,0.00000023,0.00000
 044,0.00000068,-0.00000093,-0.00000012,0.00000099,-0.00000005,-0.00000
 086,0.00000040,-0.00000191,0.00000027,0.00000050,-0.00000023,0.0000012
 7,-0.00000017,-0.00000023,0.00000058,0.00000269,0.00000050,-0.00000207
 ,0.00000202,-0.00000527,0.00000011,0.00000025,-0.00000132,0.00000336,-
 0.00000178,-0.00000203,-0.00000058,0.00000138,0.00000457,-0.00000224,0
 .00000663,-0.00001161,-0.00000043,-0.00000162,-0.00001506,0.00004539,-
 0.00000535,-0.00001119,0.00000744,0.00001580,-0.00023960,0.00010146,0.
 00003461,0.00003334,0.00001213,0.00002310,-0.00002456,-0.00002122,0.00
 000802,0.00000194,0.00000751,-0.00000153,-0.00000252,0.00000381,0.0000
 0416,-0.00000298,-0.00001144,-0.00001626,-0.00003006,-0.00000935,-0.00
 001262,0.00000486,-0.00000360,-0.00020552,0.00015695,-0.00027257,-0.00
 066618,0.00056413,-0.00031834,-0.00003992,-0.00150219,0.00177870,0.000
 38080,0.00376637,0.00172875,-0.12531600,-0.00233118,0.49074455\\-0.000
 00405,0.00000040,-0.00000132,0.00000439,-0.00000245,-0.00000090,-0.000
 00189,0.00000065,0.00000216,0.00000114,-0.00000432,-0.00000443,-0.0000
 0099,0.00000216,0.00000287,0.00000279,-0.00000068,-0.00000032,-0.00000
 102,0.00000058,-0.00000008,-0.00000019,-0.00000100,-0.00000141,0.00000
 085,0.00000112,0.00000207,-0.00000017,0.00000282,0.00000193,0.00000382
 ,0.00000282,0.00000602,-0.00000112,0.00000478,-0.00000772,-0.00000138,
 0.00000080,-0.00000183,-0.00000200,-0.00000650,0.00000153,-0.00000051,
 -0.00000071,0.00000083,0.00000134,-0.00000299,0.00000147,0.00000345,0.
 00000272,0.00000247,0.00000010,-0.00000145,-0.00000008,-0.00000006,0.0
 0000032,0.00000063,-0.00000080,0.00000157,-0.00000005,0.00000023,0.000
 00068,0.00000189,0.00000034,-0.00000043,0.00000020,0.00000018,0.000000
 28,-0.00000078,0.00000017,0.00000105,0.00000097,0.00000008,0.00000231,
 0.00000069,0.00000074,-0.00000070,-0.00000026,-0.00000073,-0.00000034,
 -0.00000109,0.,0.00000083,0.00000051,-0.00000023,0.00000009,-0.0000007
 5,-0.00000025,-0.00000107,-0.00000063,0.00000023,-0.00000011,0.0000010
 8,-0.00000075,-0.00000025,-0.00000036,0.00000022,0.00000027,0.00000048
 ,0.00000084,0.00000062,-0.00000037,-0.00000012,-0.00000026,-0.00000117
 ,0.00000332,-0.00000040,-0.00000280,0.00000009,0.00000044,-0.00000110,
 -0.00000038,-0.00000215,0.00000285,-0.00000021,-0.00000049,-0.00000180
 ,0.00000100,0.00000003,0.00000126,-0.00000414,-0.00000013,0.00000031,-
 0.00000127,0.00000136,-0.00000073,-0.00000094,0.00000073,-0.00000026,0
 .00000094,-0.00000027,-0.00000023,-0.00000073,-0.00000062,0.00000117,0
 .00000025,0.00000126,-0.00000067,-0.00000044,-0.00000172,-0.00000052,-
 0.00000051,-0.00000044,-0.00000138,-0.00000144,-0.00000141,-0.00000033
 ,-0.00000015,0.00000020,-0.00000004\\\@


 IT IS THE BEHAVIOR AND DISTRIBUTION OF THE ELECTRONS 
 AROUND THE NUCLEUS THAT GIVES THE FUNDAMENTAL 
 CHARACTER OF AN ATOM:  IT MUST BE THE SAME FOR MOLECULES.

                               -- C. A. COULSON, 1951
 Job cpu time:       0 days 19 hours 10 minutes 21.4 seconds.
 Elapsed time:       0 days  4 hours 49 minutes 47.5 seconds.
 File lengths (MBytes):  RWF=   1531 Int=      0 D2E=      0 Chk=     37 Scr=      1
 Normal termination of Gaussian 16 at Sun May 28 16:17:16 2023.
### All Done ###
