### Starting Gaussian ###
 Entering Gaussian System, Link 0=g16
 Initial command:
 /cluster/software/gaussian/gaussian-16-A.03/avx2/g16/l1.exe "/local/scratch/cz9n3/Gau-14891.inp" -scrdir="/local/scratch/cz9n3/"
 Entering Link 1 = /cluster/software/gaussian/gaussian-16-A.03/avx2/g16/l1.exe PID=     14892.
  
 Copyright (c) 1988,1990,1992,1993,1995,1998,2003,2009,2016,
            Gaussian, Inc.  All Rights Reserved.
  
 This is part of the Gaussian(R) 16 program.  It is based on
 the Gaussian(R) 09 system (copyright 2009, Gaussian, Inc.),
 the Gaussian(R) 03 system (copyright 2003, Gaussian, Inc.),
 the Gaussian(R) 98 system (copyright 1998, Gaussian, Inc.),
 the Gaussian(R) 94 system (copyright 1995, Gaussian, Inc.),
 the Gaussian 92(TM) system (copyright 1992, Gaussian, Inc.),
 the Gaussian 90(TM) system (copyright 1990, Gaussian, Inc.),
 the Gaussian 88(TM) system (copyright 1988, Gaussian, Inc.),
 the Gaussian 86(TM) system (copyright 1986, Carnegie Mellon
 University), and the Gaussian 82(TM) system (copyright 1983,
 Carnegie Mellon University). Gaussian is a federally registered
 trademark of Gaussian, Inc.
  
 This software contains proprietary and confidential information,
 including trade secrets, belonging to Gaussian, Inc.
  
 This software is provided under written license and may be
 used, copied, transmitted, or stored only in accord with that
 written license.
  
 The following legend is applicable only to US Government
 contracts under FAR:
  
                    RESTRICTED RIGHTS LEGEND
  
 Use, reproduction and disclosure by the US Government is
 subject to restrictions as set forth in subparagraphs (a)
 and (c) of the Commercial Computer Software - Restricted
 Rights clause in FAR 52.227-19.
  
 Gaussian, Inc.
 340 Quinnipiac St., Bldg. 40, Wallingford CT 06492
  
  
 ---------------------------------------------------------------
 Warning -- This program may not be used in any manner that
 competes with the business of Gaussian, Inc. or will provide
 assistance to any competitor of Gaussian, Inc.  The licensee
 of this program is prohibited from giving any competitor of
 Gaussian, Inc. access to this program.  By using this program,
 the user acknowledges that Gaussian, Inc. is engaged in the
 business of creating and licensing software in the field of
 computational chemistry and represents and warrants to the
 licensee that it is not a competitor of Gaussian, Inc. and that
 it will not use this program in any manner prohibited above.
 ---------------------------------------------------------------
  

 Cite this work as:
 Gaussian 16, Revision A.03,
 M. J. Frisch, G. W. Trucks, H. B. Schlegel, G. E. Scuseria, 
 M. A. Robb, J. R. Cheeseman, G. Scalmani, V. Barone, 
 G. A. Petersson, H. Nakatsuji, X. Li, M. Caricato, A. V. Marenich, 
 J. Bloino, B. G. Janesko, R. Gomperts, B. Mennucci, H. P. Hratchian, 
 J. V. Ortiz, A. F. Izmaylov, J. L. Sonnenberg, D. Williams-Young, 
 F. Ding, F. Lipparini, F. Egidi, J. Goings, B. Peng, A. Petrone, 
 T. Henderson, D. Ranasinghe, V. G. Zakrzewski, J. Gao, N. Rega, 
 G. Zheng, W. Liang, M. Hada, M. Ehara, K. Toyota, R. Fukuda, 
 J. Hasegawa, M. Ishida, T. Nakajima, Y. Honda, O. Kitao, H. Nakai, 
 T. Vreven, K. Throssell, J. A. Montgomery, Jr., J. E. Peralta, 
 F. Ogliaro, M. J. Bearpark, J. J. Heyd, E. N. Brothers, K. N. Kudin, 
 V. N. Staroverov, T. A. Keith, R. Kobayashi, J. Normand, 
 K. Raghavachari, A. P. Rendell, J. C. Burant, S. S. Iyengar, 
 J. Tomasi, M. Cossi, J. M. Millam, M. Klene, C. Adamo, R. Cammi, 
 J. W. Ochterski, R. L. Martin, K. Morokuma, O. Farkas, 
 J. B. Foresman, and D. J. Fox, Gaussian, Inc., Wallingford CT, 2016.
 
 ******************************************
 Gaussian 16:  ES64L-G16RevA.03 25-Dec-2016
                22-May-2023 
 ******************************************
 %chk=CCdCC1CCdC1C1CdCCdC1.chk
 %NProcShared=20
 Will use up to   20 processors via shared memory.
 -----------------------------
 # opt freq b3lyp/6-31g(2df,p)
 -----------------------------
 1/18=20,19=15,26=3,38=1/1,3;
 2/9=110,12=2,17=6,18=5,40=1/2;
 3/5=1,6=6,7=104,11=2,25=1,30=1,71=1,74=-5/1,2,3;
 4//1;
 5/5=2,38=5/2;
 6/7=2,8=2,9=2,10=2,28=1/1;
 7//1,2,3,16;
 1/18=20,19=15,26=3/3(2);
 2/9=110/2;
 99//99;
 2/9=110/2;
 3/5=1,6=6,7=104,11=2,25=1,30=1,71=1,74=-5/1,2,3;
 4/5=5,16=3,69=1/1;
 5/5=2,38=5/2;
 7//1,2,3,16;
 1/18=20,19=15,26=3/3(-5);
 2/9=110/2;
 6/7=2,8=2,9=2,10=2,19=2,28=1/1;
 99/9=1/99;
 -------------------
 Title Card Required
 -------------------
 Symbolic Z-matrix:
 Charge =  0 Multiplicity = 1
 C                     0.96913   0.01917   0.08686 
 C                     2.45779  -0.00619   0.07114 
 C                     3.17802   0.38197  -0.99209 
 C                     4.66713   0.34169  -1.00512 
 C                     5.4141    0.52879   0.34322 
 C                     5.91815   1.8324   -0.21461 
 C                     5.31954   1.66578  -1.41397 
 C                     5.33523   2.49215  -2.69687 
 C                     5.74456   1.65638  -3.88699 
 C                     4.77386   1.63835  -4.81483 
 C                     3.65615   2.40849  -4.3406 
 C                     3.94607   2.90051  -3.1256 
 H                     0.60813  -0.2989    1.0699 
 H                     0.56862  -0.6695   -0.66185 
 H                     0.59345   1.02958  -0.09976 
 H                     2.93569  -0.35579   0.98047 
 H                     2.67667   0.70082  -1.90162 
 H                     5.01615  -0.53158  -1.57269 
 H                     6.17146  -0.24018   0.53605 
 H                     4.81289   0.62533   1.25297 
 H                     6.5588    2.5973    0.21366 
 H                     5.97915   3.37155  -2.5917 
 H                     6.70016   1.16225  -3.97668 
 H                     4.80586   1.12976  -5.7662 
 H                     2.73346   2.54343  -4.88238 
 H                     3.28549   3.50528  -2.52368 
 

 GradGradGradGradGradGradGradGradGradGradGradGradGradGradGradGradGradGrad
 Berny optimization.
 Initialization pass.
                           ----------------------------
                           !    Initial Parameters    !
                           ! (Angstroms and Degrees)  !
 --------------------------                            --------------------------
 ! Name  Definition              Value          Derivative Info.                !
 --------------------------------------------------------------------------------
 ! R1    R(1,2)                  1.489          estimate D2E/DX2                !
 ! R2    R(1,13)                 1.0945         estimate D2E/DX2                !
 ! R3    R(1,14)                 1.0933         estimate D2E/DX2                !
 ! R4    R(1,15)                 1.094          estimate D2E/DX2                !
 ! R5    R(2,3)                  1.3416         estimate D2E/DX2                !
 ! R6    R(2,16)                 1.0851         estimate D2E/DX2                !
 ! R7    R(3,4)                  1.4897         estimate D2E/DX2                !
 ! R8    R(3,17)                 1.0864         estimate D2E/DX2                !
 ! R9    R(4,5)                  1.5527         estimate D2E/DX2                !
 ! R10   R(4,7)                  1.5317         estimate D2E/DX2                !
 ! R11   R(4,18)                 1.0984         estimate D2E/DX2                !
 ! R12   R(5,6)                  1.5049         estimate D2E/DX2                !
 ! R13   R(5,19)                 1.0964         estimate D2E/DX2                !
 ! R14   R(5,20)                 1.0947         estimate D2E/DX2                !
 ! R15   R(6,7)                  1.3508         estimate D2E/DX2                !
 ! R16   R(6,21)                 1.0858         estimate D2E/DX2                !
 ! R17   R(7,8)                  1.5261         estimate D2E/DX2                !
 ! R18   R(8,9)                  1.5108         estimate D2E/DX2                !
 ! R19   R(8,12)                 1.5101         estimate D2E/DX2                !
 ! R20   R(8,22)                 1.095          estimate D2E/DX2                !
 ! R21   R(9,10)                 1.3429         estimate D2E/DX2                !
 ! R22   R(9,23)                 1.0795         estimate D2E/DX2                !
 ! R23   R(10,11)                1.4378         estimate D2E/DX2                !
 ! R24   R(10,24)                1.0793         estimate D2E/DX2                !
 ! R25   R(11,12)                1.3425         estimate D2E/DX2                !
 ! R26   R(11,25)                1.0785         estimate D2E/DX2                !
 ! R27   R(12,26)                1.0791         estimate D2E/DX2                !
 ! A1    A(2,1,13)             109.5305         estimate D2E/DX2                !
 ! A2    A(2,1,14)             110.3839         estimate D2E/DX2                !
 ! A3    A(2,1,15)             110.9316         estimate D2E/DX2                !
 ! A4    A(13,1,14)            108.1324         estimate D2E/DX2                !
 ! A5    A(13,1,15)            107.9601         estimate D2E/DX2                !
 ! A6    A(14,1,15)            109.8254         estimate D2E/DX2                !
 ! A7    A(1,2,3)              122.6959         estimate D2E/DX2                !
 ! A8    A(1,2,16)             115.9103         estimate D2E/DX2                !
 ! A9    A(3,2,16)             121.3931         estimate D2E/DX2                !
 ! A10   A(2,3,4)              122.3942         estimate D2E/DX2                !
 ! A11   A(2,3,17)             120.0439         estimate D2E/DX2                !
 ! A12   A(4,3,17)             117.5101         estimate D2E/DX2                !
 ! A13   A(3,4,5)              118.0355         estimate D2E/DX2                !
 ! A14   A(3,4,7)              113.8745         estimate D2E/DX2                !
 ! A15   A(3,4,18)             110.0983         estimate D2E/DX2                !
 ! A16   A(5,4,7)               85.5676         estimate D2E/DX2                !
 ! A17   A(5,4,18)             113.0561         estimate D2E/DX2                !
 ! A18   A(7,4,18)             114.4566         estimate D2E/DX2                !
 ! A19   A(4,5,6)               86.7683         estimate D2E/DX2                !
 ! A20   A(4,5,19)             113.6106         estimate D2E/DX2                !
 ! A21   A(4,5,20)             117.9089         estimate D2E/DX2                !
 ! A22   A(6,5,19)             116.1922         estimate D2E/DX2                !
 ! A23   A(6,5,20)             114.5574         estimate D2E/DX2                !
 ! A24   A(19,5,20)            107.1609         estimate D2E/DX2                !
 ! A25   A(5,6,7)               94.2347         estimate D2E/DX2                !
 ! A26   A(5,6,21)             131.4276         estimate D2E/DX2                !
 ! A27   A(7,6,21)             134.3152         estimate D2E/DX2                !
 ! A28   A(4,7,6)               93.3473         estimate D2E/DX2                !
 ! A29   A(4,7,8)              134.1772         estimate D2E/DX2                !
 ! A30   A(6,7,8)              132.4593         estimate D2E/DX2                !
 ! A31   A(7,8,9)              111.4351         estimate D2E/DX2                !
 ! A32   A(7,8,12)             112.0641         estimate D2E/DX2                !
 ! A33   A(7,8,22)             111.1112         estimate D2E/DX2                !
 ! A34   A(9,8,12)             100.0898         estimate D2E/DX2                !
 ! A35   A(9,8,22)             111.1378         estimate D2E/DX2                !
 ! A36   A(12,8,22)            110.5519         estimate D2E/DX2                !
 ! A37   A(8,9,10)             110.8455         estimate D2E/DX2                !
 ! A38   A(8,9,23)             123.9523         estimate D2E/DX2                !
 ! A39   A(10,9,23)            125.1903         estimate D2E/DX2                !
 ! A40   A(9,10,11)            109.0764         estimate D2E/DX2                !
 ! A41   A(9,10,24)            126.4365         estimate D2E/DX2                !
 ! A42   A(11,10,24)           124.4863         estimate D2E/DX2                !
 ! A43   A(10,11,12)           109.0825         estimate D2E/DX2                !
 ! A44   A(10,11,25)           124.5004         estimate D2E/DX2                !
 ! A45   A(12,11,25)           126.4091         estimate D2E/DX2                !
 ! A46   A(8,12,11)            110.8853         estimate D2E/DX2                !
 ! A47   A(8,12,26)            123.803          estimate D2E/DX2                !
 ! A48   A(11,12,26)           125.3116         estimate D2E/DX2                !
 ! D1    D(13,1,2,3)          -177.5468         estimate D2E/DX2                !
 ! D2    D(13,1,2,16)            2.1573         estimate D2E/DX2                !
 ! D3    D(14,1,2,3)            63.5012         estimate D2E/DX2                !
 ! D4    D(14,1,2,16)         -116.7947         estimate D2E/DX2                !
 ! D5    D(15,1,2,3)           -58.4706         estimate D2E/DX2                !
 ! D6    D(15,1,2,16)          121.2336         estimate D2E/DX2                !
 ! D7    D(1,2,3,4)           -179.4085         estimate D2E/DX2                !
 ! D8    D(1,2,3,17)            -2.0912         estimate D2E/DX2                !
 ! D9    D(16,2,3,4)             0.9032         estimate D2E/DX2                !
 ! D10   D(16,2,3,17)          178.2205         estimate D2E/DX2                !
 ! D11   D(2,3,4,5)            -29.7795         estimate D2E/DX2                !
 ! D12   D(2,3,4,7)           -127.824          estimate D2E/DX2                !
 ! D13   D(2,3,4,18)           102.081          estimate D2E/DX2                !
 ! D14   D(17,3,4,5)           152.8387         estimate D2E/DX2                !
 ! D15   D(17,3,4,7)            54.7943         estimate D2E/DX2                !
 ! D16   D(17,3,4,18)          -75.3007         estimate D2E/DX2                !
 ! D17   D(3,4,5,6)           -112.7738         estimate D2E/DX2                !
 ! D18   D(3,4,5,19)           129.9814         estimate D2E/DX2                !
 ! D19   D(3,4,5,20)             3.4033         estimate D2E/DX2                !
 ! D20   D(7,4,5,6)              1.9751         estimate D2E/DX2                !
 ! D21   D(7,4,5,19)          -115.2697         estimate D2E/DX2                !
 ! D22   D(7,4,5,20)           118.1521         estimate D2E/DX2                !
 ! D23   D(18,4,5,6)           116.7025         estimate D2E/DX2                !
 ! D24   D(18,4,5,19)           -0.5424         estimate D2E/DX2                !
 ! D25   D(18,4,5,20)         -127.1205         estimate D2E/DX2                !
 ! D26   D(3,4,7,6)            116.5652         estimate D2E/DX2                !
 ! D27   D(3,4,7,8)            -64.8166         estimate D2E/DX2                !
 ! D28   D(5,4,7,6)             -2.2008         estimate D2E/DX2                !
 ! D29   D(5,4,7,8)            176.4174         estimate D2E/DX2                !
 ! D30   D(18,4,7,6)          -115.5461         estimate D2E/DX2                !
 ! D31   D(18,4,7,8)            63.0721         estimate D2E/DX2                !
 ! D32   D(4,5,6,7)             -2.2391         estimate D2E/DX2                !
 ! D33   D(4,5,6,21)           179.3281         estimate D2E/DX2                !
 ! D34   D(19,5,6,7)           112.5505         estimate D2E/DX2                !
 ! D35   D(19,5,6,21)          -65.8823         estimate D2E/DX2                !
 ! D36   D(20,5,6,7)          -121.5558         estimate D2E/DX2                !
 ! D37   D(20,5,6,21)           60.0115         estimate D2E/DX2                !
 ! D38   D(5,6,7,4)              2.2702         estimate D2E/DX2                !
 ! D39   D(5,6,7,8)           -176.3865         estimate D2E/DX2                !
 ! D40   D(21,6,7,4)          -179.3722         estimate D2E/DX2                !
 ! D41   D(21,6,7,8)             1.9711         estimate D2E/DX2                !
 ! D42   D(4,7,8,9)            -52.4106         estimate D2E/DX2                !
 ! D43   D(4,7,8,12)            58.8257         estimate D2E/DX2                !
 ! D44   D(4,7,8,22)          -176.9424         estimate D2E/DX2                !
 ! D45   D(6,7,8,9)            125.7195         estimate D2E/DX2                !
 ! D46   D(6,7,8,12)          -123.0442         estimate D2E/DX2                !
 ! D47   D(6,7,8,22)             1.1877         estimate D2E/DX2                !
 ! D48   D(7,8,9,10)           120.0842         estimate D2E/DX2                !
 ! D49   D(7,8,9,23)           -61.1118         estimate D2E/DX2                !
 ! D50   D(12,8,9,10)            1.4147         estimate D2E/DX2                !
 ! D51   D(12,8,9,23)         -179.7813         estimate D2E/DX2                !
 ! D52   D(22,8,9,10)         -115.3989         estimate D2E/DX2                !
 ! D53   D(22,8,9,23)           63.405          estimate D2E/DX2                !
 ! D54   D(7,8,12,11)         -119.487          estimate D2E/DX2                !
 ! D55   D(7,8,12,26)           60.3716         estimate D2E/DX2                !
 ! D56   D(9,8,12,11)           -1.2808         estimate D2E/DX2                !
 ! D57   D(9,8,12,26)          178.5778         estimate D2E/DX2                !
 ! D58   D(22,8,12,11)         115.9701         estimate D2E/DX2                !
 ! D59   D(22,8,12,26)         -64.1713         estimate D2E/DX2                !
 ! D60   D(8,9,10,11)           -1.0851         estimate D2E/DX2                !
 ! D61   D(8,9,10,24)          179.2249         estimate D2E/DX2                !
 ! D62   D(23,9,10,11)        -179.8711         estimate D2E/DX2                !
 ! D63   D(23,9,10,24)           0.4389         estimate D2E/DX2                !
 ! D64   D(9,10,11,12)           0.214          estimate D2E/DX2                !
 ! D65   D(9,10,11,25)        -178.8187         estimate D2E/DX2                !
 ! D66   D(24,10,11,12)        179.9114         estimate D2E/DX2                !
 ! D67   D(24,10,11,25)          0.8787         estimate D2E/DX2                !
 ! D68   D(10,11,12,8)           0.7464         estimate D2E/DX2                !
 ! D69   D(10,11,12,26)       -179.1097         estimate D2E/DX2                !
 ! D70   D(25,11,12,8)         179.7558         estimate D2E/DX2                !
 ! D71   D(25,11,12,26)         -0.1002         estimate D2E/DX2                !
 --------------------------------------------------------------------------------
 Trust Radius=3.00D-01 FncErr=1.00D-07 GrdErr=1.00D-06 EigMax=2.50D+02 EigMin=1.00D-04
 Number of steps in this run=    156 maximum allowed number of steps=    156.
 GradGradGradGradGradGradGradGradGradGradGradGradGradGradGradGradGradGrad

                          Input orientation:                          
 ---------------------------------------------------------------------
 Center     Atomic      Atomic             Coordinates (Angstroms)
 Number     Number       Type             X           Y           Z
 ---------------------------------------------------------------------
      1          6           0        0.969130    0.019170    0.086860
      2          6           0        2.457790   -0.006190    0.071140
      3          6           0        3.178020    0.381970   -0.992090
      4          6           0        4.667130    0.341690   -1.005120
      5          6           0        5.414100    0.528790    0.343220
      6          6           0        5.918150    1.832400   -0.214610
      7          6           0        5.319540    1.665780   -1.413970
      8          6           0        5.335230    2.492150   -2.696870
      9          6           0        5.744560    1.656380   -3.886990
     10          6           0        4.773860    1.638350   -4.814830
     11          6           0        3.656150    2.408490   -4.340600
     12          6           0        3.946070    2.900510   -3.125600
     13          1           0        0.608130   -0.298900    1.069900
     14          1           0        0.568620   -0.669500   -0.661850
     15          1           0        0.593450    1.029580   -0.099760
     16          1           0        2.935690   -0.355790    0.980470
     17          1           0        2.676670    0.700820   -1.901620
     18          1           0        5.016150   -0.531580   -1.572690
     19          1           0        6.171460   -0.240180    0.536050
     20          1           0        4.812890    0.625330    1.252970
     21          1           0        6.558800    2.597300    0.213660
     22          1           0        5.979150    3.371550   -2.591700
     23          1           0        6.700160    1.162250   -3.976680
     24          1           0        4.805860    1.129760   -5.766200
     25          1           0        2.733460    2.543430   -4.882380
     26          1           0        3.285490    3.505280   -2.523680
 ---------------------------------------------------------------------
                    Distance matrix (angstroms):
                    1          2          3          4          5
     1  C    0.000000
     2  C    1.488959   0.000000
     3  C    2.484945   1.341588   0.000000
     4  C    3.869321   2.482043   1.489712   0.000000
     5  C    4.481427   3.016621   2.608575   1.552737   0.000000
     6  C    5.279345   3.928888   3.196331   2.100517   1.504872
     7  C    4.887728   3.631893   2.532244   1.531670   2.095091
     8  C    5.738259   4.709909   3.465933   2.816532   3.619827
     9  C    6.424692   5.406828   4.073290   3.345809   4.390369
    10  C    6.412821   5.651672   4.328803   4.025743   5.314745
    11  C    5.703624   5.170125   3.943084   4.052057   5.344327
    12  C    5.242537   4.569795   3.388925   3.400577   4.451166
    13  H    1.094467   2.122367   3.364479   4.603427   4.930566
    14  H    1.093271   2.132186   2.832599   4.235342   5.091634
    15  H    1.094025   2.139577   2.809921   4.229390   4.866794
    16  H    2.192371   1.085122   2.119907   2.725240   2.707598
    17  H    2.708208   2.107025   1.086399   2.212378   3.544351
    18  H    4.408606   3.086004   2.133165   1.098431   2.225637
    19  H    5.228123   3.749965   3.418035   2.230871   1.096400
    20  H    4.062233   2.709619   2.787888   2.280497   1.094723
    21  H    6.156886   4.859707   4.217961   3.186160   2.367669
    22  H    6.596471   5.558761   4.398030   3.663152   4.124842
    23  H    7.117843   5.978947   4.682103   3.692790   4.551567
    24  H    7.086058   6.393618   5.099135   4.827855   6.168965
    25  H    5.846203   5.577985   4.472572   4.860029   6.208985
    26  H    4.932890   4.443940   3.480285   3.771373   4.648611
                    6          7          8          9         10
     6  C    0.000000
     7  C    1.350763   0.000000
     8  C    2.633758   1.526095   0.000000
     9  C    3.680692   2.509294   1.510777   0.000000
    10  C    4.744373   3.444469   2.351567   1.342934   0.000000
    11  C    4.740498   3.447267   2.351203   2.265588   1.437806
    12  C    3.674755   2.518066   1.510077   2.315630   2.265344
    13  H    5.864189   5.676880   6.657627   7.401134   7.465674
    14  H    5.922584   5.347005   6.071071   6.526990   6.344877
    15  H    5.386106   4.946496   5.600765   6.424167   6.330744
    16  H    3.887346   3.937363   5.233678   5.969149   6.398513
    17  H    3.825398   2.855471   3.302912   3.777134   3.709981
    18  H    2.871652   2.223877   3.241687   3.267068   3.908807
    19  H    2.218838   2.856752   4.314705   4.831404   5.840726
    20  H    2.198274   2.907198   4.399897   5.324496   6.151905
    21  H    1.085781   2.247815   3.159013   4.285283   5.421375
    22  H    2.832536   2.175267   1.095006   2.162086   3.065781
    23  H    3.900489   2.954173   2.295557   1.079528   2.154019
    24  H    5.705352   4.415098   3.399577   2.165622   1.079256
    25  H    5.695252   4.414516   3.398278   3.293081   2.233151
    26  H    3.880880   2.958475   2.293003   3.365126   3.309085
                   11         12         13         14         15
    11  C    0.000000
    12  C    1.342521   0.000000
    13  H    6.774503   6.243420   0.000000
    14  H    5.704390   5.497473   1.771402   0.000000
    15  H    5.409829   4.888369   1.770079   1.789814   0.000000
    16  H    6.039378   5.337056   2.329972   2.898042   2.927838
    17  H    3.134349   2.819244   3.756092   2.803334   2.773912
    18  H    4.260861   3.916100   5.144712   4.541935   4.915996
    19  H    6.092943   5.312624   5.589194   5.745528   5.755931
    20  H    5.983789   5.009960   4.309028   4.832903   4.449379
    21  H    5.403916   4.250759   6.673200   6.879008   6.175871
    22  H    3.063081   2.154145   7.465077   7.023407   6.379683
    23  H    3.309312   3.366140   8.044611   7.206885   7.234640
    24  H    2.233678   3.293564   8.148268   6.873567   7.061372
    25  H    1.078467   2.164302   6.930044   5.729077   5.453883
    26  H    2.154422   1.079083   5.878253   5.317573   4.387660
                   16         17         18         19         20
    16  H    0.000000
    17  H    3.080578   0.000000
    18  H    3.298157   2.664615   0.000000
    19  H    3.268193   4.363631   2.422073   0.000000
    20  H    2.135587   3.810587   3.060083   1.763177   0.000000
    21  H    4.736630   4.810611   3.919274   2.881885   2.831437
    22  H    5.993005   4.302951   4.147309   4.781673   4.866557
    23  H    6.406951   4.550523   3.388822   4.755109   5.585634
    24  H    7.156951   4.433105   4.515506   6.592416   7.037276
    25  H    6.543652   3.504763   5.061661   6.994835   6.756157
    26  H    5.225829   2.936429   4.493974   5.631984   4.989003
                   21         22         23         24         25
    21  H    0.000000
    22  H    2.967407   0.000000
    23  H    4.431512   2.705371   0.000000
    24  H    6.401968   4.059517   2.606110   0.000000
    25  H    6.372264   4.058017   4.296820   2.659782   0.000000
    26  H    4.362570   2.697835   4.388732   4.297506   2.606407
                   26
    26  H    0.000000
 Stoichiometry    C12H14
 Framework group  C1[X(C12H14)]
 Deg. of freedom    72
 Full point group                 C1      NOp   1
 Largest Abelian subgroup         C1      NOp   1
 Largest concise Abelian subgroup C1      NOp   1
                         Standard orientation:                         
 ---------------------------------------------------------------------
 Center     Atomic      Atomic             Coordinates (Angstroms)
 Number     Number       Type             X           Y           Z
 ---------------------------------------------------------------------
      1          6           0        3.436103   -1.912096    0.163696
      2          6           0        2.765291   -0.628423   -0.181550
      3          6           0        1.437033   -0.524236   -0.338817
      4          6           0        0.774128    0.760893   -0.696924
      5          6           0        1.441823    2.081978   -0.227981
      6          6           0        0.249033    2.266038    0.670916
      7          6           0       -0.374364    1.148045    0.239607
      8          6           0       -1.736888    0.539656    0.559542
      9          6           0       -2.538221    0.288891   -0.696416
     10          6           0       -2.836860   -1.014526   -0.820474
     11          6           0       -2.263513   -1.735151    0.283726
     12          6           0       -1.618965   -0.871405    1.084265
     13          1           0        4.510986   -1.743070    0.281650
     14          1           0        3.292463   -2.643865   -0.635756
     15          1           0        3.052101   -2.312511    1.106618
     16          1           0        3.417200    0.231477   -0.295902
     17          1           0        0.807772   -1.405143   -0.247730
     18          1           0        0.512478    0.766201   -1.763724
     19          1           0        1.563005    2.821086   -1.028685
     20          1           0        2.400400    2.013648    0.296309
     21          1           0       -0.001727    3.048495    1.380705
     22          1           0       -2.293108    1.166605    1.264235
     23          1           0       -2.841628    1.064743   -1.382986
     24          1           0       -3.408594   -1.468302   -1.615458
     25          1           0       -2.336201   -2.802459    0.420332
     26          1           0       -1.082751   -1.134902    1.982855
 ---------------------------------------------------------------------
 Rotational constants (GHZ):           1.3678410           0.6694252           0.5089668
 Standard basis: 6-31G(2df,p) (6D, 7F)
 There are   442 symmetry adapted cartesian basis functions of A   symmetry.
 There are   406 symmetry adapted basis functions of A   symmetry.
   406 basis functions,   626 primitive gaussians,   442 cartesian basis functions
    43 alpha electrons       43 beta electrons
       nuclear repulsion energy       646.2483472824 Hartrees.
 NAtoms=   26 NActive=   26 NUniq=   26 SFac= 1.00D+00 NAtFMM=   60 NAOKFM=F Big=F
 Integral buffers will be    131072 words long.
 Raffenetti 2 integral format.
 Two-electron integral symmetry is turned on.
 One-electron integrals computed using PRISM.
 PrsmSu:  requested number of processors reduced to:  13 ShMem   1 Linda.
 NBasis=   406 RedAO= T EigKep=  2.73D-04  NBF=   406
 NBsUse=   406 1.00D-06 EigRej= -1.00D+00 NBFU=   406
 ExpMin= 1.61D-01 ExpMax= 3.05D+03 ExpMxC= 4.57D+02 IAcc=3 IRadAn=         5 AccDes= 0.00D+00
 Harris functional with IExCor=  402 and IRadAn=       5 diagonalized for initial guess.
 HarFok:  IExCor=  402 AccDes= 0.00D+00 IRadAn=         5 IDoV= 1 UseB2=F ITyADJ=14
 ICtDFT=  3500011 ScaDFX=  1.000000  1.000000  1.000000  1.000000
 FoFCou: FMM=F IPFlag=           0 FMFlag=      100000 FMFlg1=           0
         NFxFlg=           0 DoJE=T BraDBF=F KetDBF=T FulRan=T
         wScrn=  0.000000 ICntrl=       500 IOpCl=  0 I1Cent=   200000004 NGrid=           0
         NMat0=    1 NMatS0=      1 NMatT0=    0 NMatD0=    1 NMtDS0=    0 NMtDT0=    0
 Petite list used in FoFCou.
 Requested convergence on RMS density matrix=1.00D-08 within 128 cycles.
 Requested convergence on MAX density matrix=1.00D-06.
 Requested convergence on             energy=1.00D-06.
 No special actions if energy rises.
 Integral accuracy reduced to 1.0D-05 until final iterations.
 Initial convergence to 1.0D-05 achieved.  Increase integral accuracy.
 SCF Done:  E(RB3LYP) =  -465.614766089     A.U. after   13 cycles
            NFock= 13  Conv=0.89D-08     -V/T= 2.0084

 **********************************************************************

            Population analysis using the SCF density.

 **********************************************************************

 Orbital symmetries:
       Occupied  (A) (A) (A) (A) (A) (A) (A) (A) (A) (A) (A) (A)
                 (A) (A) (A) (A) (A) (A) (A) (A) (A) (A) (A) (A)
                 (A) (A) (A) (A) (A) (A) (A) (A) (A) (A) (A) (A)
                 (A) (A) (A) (A) (A) (A) (A)
       Virtual   (A) (A) (A) (A) (A) (A) (A) (A) (A) (A) (A) (A)
                 (A) (A) (A) (A) (A) (A) (A) (A) (A) (A) (A) (A)
                 (A) (A) (A) (A) (A) (A) (A) (A) (A) (A) (A) (A)
                 (A) (A) (A) (A) (A) (A) (A) (A) (A) (A) (A) (A)
                 (A) (A) (A) (A) (A) (A) (A) (A) (A) (A) (A) (A)
                 (A) (A) (A) (A) (A) (A) (A) (A) (A) (A) (A) (A)
                 (A) (A) (A) (A) (A) (A) (A) (A) (A) (A) (A) (A)
                 (A) (A) (A) (A) (A) (A) (A) (A) (A) (A) (A) (A)
                 (A) (A) (A) (A) (A) (A) (A) (A) (A) (A) (A) (A)
                 (A) (A) (A) (A) (A) (A) (A) (A) (A) (A) (A) (A)
                 (A) (A) (A) (A) (A) (A) (A) (A) (A) (A) (A) (A)
                 (A) (A) (A) (A) (A) (A) (A) (A) (A) (A) (A) (A)
                 (A) (A) (A) (A) (A) (A) (A) (A) (A) (A) (A) (A)
                 (A) (A) (A) (A) (A) (A) (A) (A) (A) (A) (A) (A)
                 (A) (A) (A) (A) (A) (A) (A) (A) (A) (A) (A) (A)
                 (A) (A) (A) (A) (A) (A) (A) (A) (A) (A) (A) (A)
                 (A) (A) (A) (A) (A) (A) (A) (A) (A) (A) (A) (A)
                 (A) (A) (A) (A) (A) (A) (A) (A) (A) (A) (A) (A)
                 (A) (A) (A) (A) (A) (A) (A) (A) (A) (A) (A) (A)
                 (A) (A) (A) (A) (A) (A) (A) (A) (A) (A) (A) (A)
                 (A) (A) (A) (A) (A) (A) (A) (A) (A) (A) (A) (A)
                 (A) (A) (A) (A) (A) (A) (A) (A) (A) (A) (A) (A)
                 (A) (A) (A) (A) (A) (A) (A) (A) (A) (A) (A) (A)
                 (A) (A) (A) (A) (A) (A) (A) (A) (A) (A) (A) (A)
                 (A) (A) (A) (A) (A) (A) (A) (A) (A) (A) (A) (A)
                 (A) (A) (A) (A) (A) (A) (A) (A) (A) (A) (A) (A)
                 (A) (A) (A) (A) (A) (A) (A) (A) (A) (A) (A) (A)
                 (A) (A) (A) (A) (A) (A) (A) (A) (A) (A) (A) (A)
                 (A) (A) (A) (A) (A) (A) (A) (A) (A) (A) (A) (A)
                 (A) (A) (A) (A) (A) (A) (A) (A) (A) (A) (A) (A)
                 (A) (A) (A)
 The electronic state is 1-A.
 Alpha  occ. eigenvalues --  -10.19699 -10.18711 -10.18591 -10.17774 -10.17732
 Alpha  occ. eigenvalues --  -10.17634 -10.17622 -10.17617 -10.17228 -10.16940
 Alpha  occ. eigenvalues --  -10.16911 -10.16690  -0.86964  -0.84795  -0.77747
 Alpha  occ. eigenvalues --   -0.72206  -0.70116  -0.69580  -0.63036  -0.61760
 Alpha  occ. eigenvalues --   -0.55360  -0.53698  -0.52788  -0.51352  -0.49611
 Alpha  occ. eigenvalues --   -0.47156  -0.46140  -0.42233  -0.40928  -0.40628
 Alpha  occ. eigenvalues --   -0.39149  -0.38572  -0.36596  -0.36261  -0.35038
 Alpha  occ. eigenvalues --   -0.34433  -0.33492  -0.32787  -0.31623  -0.29235
 Alpha  occ. eigenvalues --   -0.23724  -0.22704  -0.21024
 Alpha virt. eigenvalues --   -0.01818   0.01719   0.03510   0.09276   0.11490
 Alpha virt. eigenvalues --    0.11681   0.12626   0.12856   0.13888   0.14485
 Alpha virt. eigenvalues --    0.15347   0.16702   0.16972   0.17259   0.18063
 Alpha virt. eigenvalues --    0.18537   0.18967   0.19580   0.21748   0.21996
 Alpha virt. eigenvalues --    0.23131   0.23847   0.26683   0.26891   0.31387
 Alpha virt. eigenvalues --    0.32902   0.33590   0.34424   0.36546   0.39784
 Alpha virt. eigenvalues --    0.41035   0.42834   0.44895   0.46447   0.47154
 Alpha virt. eigenvalues --    0.49015   0.49830   0.50722   0.51029   0.51482
 Alpha virt. eigenvalues --    0.52405   0.52974   0.54530   0.55137   0.55442
 Alpha virt. eigenvalues --    0.56028   0.57515   0.59202   0.59448   0.60091
 Alpha virt. eigenvalues --    0.60843   0.63211   0.64032   0.65209   0.66049
 Alpha virt. eigenvalues --    0.66764   0.67736   0.69005   0.70262   0.72095
 Alpha virt. eigenvalues --    0.73085   0.73826   0.74565   0.75026   0.75223
 Alpha virt. eigenvalues --    0.75690   0.76955   0.77790   0.78490   0.79968
 Alpha virt. eigenvalues --    0.80218   0.80395   0.81151   0.81681   0.82361
 Alpha virt. eigenvalues --    0.83105   0.84121   0.84599   0.85455   0.86574
 Alpha virt. eigenvalues --    0.87821   0.90556   0.91303   0.93181   0.98765
 Alpha virt. eigenvalues --    0.99476   1.00360   1.02213   1.03813   1.04830
 Alpha virt. eigenvalues --    1.05540   1.06680   1.08119   1.10052   1.13588
 Alpha virt. eigenvalues --    1.14491   1.15307   1.19898   1.21532   1.23637
 Alpha virt. eigenvalues --    1.25054   1.26208   1.26803   1.29236   1.29573
 Alpha virt. eigenvalues --    1.31192   1.33442   1.35055   1.35654   1.38038
 Alpha virt. eigenvalues --    1.40301   1.42761   1.43327   1.44735   1.46588
 Alpha virt. eigenvalues --    1.47055   1.51035   1.52499   1.54464   1.55102
 Alpha virt. eigenvalues --    1.55932   1.58084   1.58447   1.59105   1.60514
 Alpha virt. eigenvalues --    1.63345   1.64122   1.65697   1.66045   1.66465
 Alpha virt. eigenvalues --    1.69369   1.71515   1.75040   1.76569   1.78342
 Alpha virt. eigenvalues --    1.79161   1.79804   1.81686   1.85060   1.86087
 Alpha virt. eigenvalues --    1.87088   1.88411   1.90449   1.93533   1.94255
 Alpha virt. eigenvalues --    1.95980   1.99213   2.01512   2.02399   2.05116
 Alpha virt. eigenvalues --    2.08571   2.12181   2.13528   2.17330   2.18670
 Alpha virt. eigenvalues --    2.22292   2.24297   2.26372   2.29091   2.30073
 Alpha virt. eigenvalues --    2.32773   2.35120   2.36309   2.39000   2.41621
 Alpha virt. eigenvalues --    2.44767   2.46255   2.46524   2.47667   2.48645
 Alpha virt. eigenvalues --    2.52179   2.53619   2.55816   2.58814   2.62628
 Alpha virt. eigenvalues --    2.64791   2.65624   2.71042   2.72112   2.73502
 Alpha virt. eigenvalues --    2.75181   2.75905   2.78110   2.79313   2.81094
 Alpha virt. eigenvalues --    2.83280   2.83529   2.86502   2.88318   2.89260
 Alpha virt. eigenvalues --    2.90300   2.91466   2.92374   2.93756   2.95251
 Alpha virt. eigenvalues --    2.95915   2.96698   2.97796   2.98774   2.99647
 Alpha virt. eigenvalues --    3.01752   3.02843   3.03977   3.04832   3.05825
 Alpha virt. eigenvalues --    3.06856   3.07344   3.10648   3.13149   3.13383
 Alpha virt. eigenvalues --    3.14334   3.16079   3.18101   3.18295   3.18964
 Alpha virt. eigenvalues --    3.21892   3.23413   3.24660   3.26546   3.26812
 Alpha virt. eigenvalues --    3.27841   3.29708   3.30593   3.32372   3.34197
 Alpha virt. eigenvalues --    3.34538   3.36322   3.36559   3.37983   3.40535
 Alpha virt. eigenvalues --    3.41570   3.43758   3.44477   3.44667   3.46900
 Alpha virt. eigenvalues --    3.48017   3.49090   3.51475   3.52337   3.53234
 Alpha virt. eigenvalues --    3.54595   3.55169   3.56972   3.58030   3.59002
 Alpha virt. eigenvalues --    3.61317   3.62135   3.67240   3.68789   3.69978
 Alpha virt. eigenvalues --    3.72260   3.73663   3.76264   3.77926   3.80559
 Alpha virt. eigenvalues --    3.87582   3.90800   3.93584   3.94276   3.99980
 Alpha virt. eigenvalues --    4.00294   4.02754   4.05170   4.06949   4.09459
 Alpha virt. eigenvalues --    4.13408   4.16112   4.18990   4.21871   4.25093
 Alpha virt. eigenvalues --    4.28149   4.29320   4.30529   4.31958   4.32429
 Alpha virt. eigenvalues --    4.34518   4.36078   4.39111   4.42247   4.43202
 Alpha virt. eigenvalues --    4.44736   4.46192   4.47016   4.48469   4.50496
 Alpha virt. eigenvalues --    4.51432   4.52169   4.53195   4.54573   4.55543
 Alpha virt. eigenvalues --    4.55823   4.56837   4.58603   4.60111   4.60986
 Alpha virt. eigenvalues --    4.61849   4.62905   4.63199   4.65797   4.66220
 Alpha virt. eigenvalues --    4.68689   4.70962   4.72097   4.73394   4.74437
 Alpha virt. eigenvalues --    4.75407   4.76659   4.78609   4.78933   4.80589
 Alpha virt. eigenvalues --    4.82575   4.84093   4.84997   4.86530   4.87693
 Alpha virt. eigenvalues --    4.91216   4.93384   4.94371   4.96122   4.98105
 Alpha virt. eigenvalues --    5.01166   5.02968   5.06586   5.09870   5.14784
 Alpha virt. eigenvalues --    5.15324   5.16585   5.22447   5.25402   5.29212
 Alpha virt. eigenvalues --    5.31552   5.32080   5.33889   5.38085   5.42865
 Alpha virt. eigenvalues --    5.45881   5.46029   5.50978   5.52698   5.54814
 Alpha virt. eigenvalues --    5.58864   5.64890   5.68983   5.70745   5.73100
 Alpha virt. eigenvalues --    5.74921   5.94612   6.11191   6.33153   6.67658
 Alpha virt. eigenvalues --    6.85506  10.13936  10.35397  10.54306  10.86885
 Alpha virt. eigenvalues --   11.37261  11.48545  11.77490  11.89608  12.02982
 Alpha virt. eigenvalues --   12.15566  12.61244  12.88575
          Condensed to atoms (all electrons):
               1          2          3          4          5          6
     1  C    5.004504   0.381780  -0.014522   0.004418   0.000467  -0.000075
     2  C    0.381780   4.760997   0.688309  -0.005734  -0.016619   0.000170
     3  C   -0.014522   0.688309   4.744878   0.399386  -0.003962  -0.013861
     4  C    0.004418  -0.005734   0.399386   4.946080   0.269137  -0.014966
     5  C    0.000467  -0.016619  -0.003962   0.269137   5.100722   0.279532
     6  C   -0.000075   0.000170  -0.013861  -0.014966   0.279532   5.067433
     7  C   -0.000115  -0.001539  -0.015052   0.348974   0.011387   0.630376
     8  C    0.000005  -0.000027  -0.003003  -0.058808   0.016737  -0.067807
     9  C   -0.000000   0.000001  -0.000154  -0.004805   0.000061   0.000992
    10  C    0.000000   0.000004   0.000195   0.002002   0.000020  -0.000062
    11  C   -0.000008   0.000129  -0.002075   0.000852  -0.000023  -0.000037
    12  C   -0.000016   0.000163  -0.000785  -0.011023   0.000114   0.000928
    13  H    0.371916  -0.018950   0.002004  -0.000149  -0.000000   0.000002
    14  H    0.372830  -0.025407  -0.006466  -0.000236  -0.000001  -0.000001
    15  H    0.374675  -0.022745  -0.010137   0.000117  -0.000005   0.000008
    16  H   -0.062642   0.365370  -0.026805  -0.016294   0.003743   0.000173
    17  H   -0.010128  -0.050580   0.361955  -0.052733   0.004506   0.000342
    18  H   -0.000263  -0.002064  -0.043336   0.339031  -0.028091  -0.004005
    19  H   -0.000015   0.000281   0.001950  -0.012468   0.341857  -0.010953
    20  H   -0.000033   0.004202  -0.006092  -0.007090   0.339991  -0.007864
    21  H    0.000000  -0.000042  -0.000251   0.014943  -0.058378   0.362726
    22  H   -0.000000   0.000003  -0.000019   0.004836  -0.000361  -0.008694
    23  H    0.000000   0.000000   0.000036  -0.000104  -0.000037   0.000418
    24  H    0.000000  -0.000000  -0.000004  -0.000010  -0.000000   0.000004
    25  H   -0.000000   0.000002  -0.000003  -0.000011  -0.000000   0.000005
    26  H   -0.000002  -0.000068   0.000428  -0.000562   0.000018   0.000317
               7          8          9         10         11         12
     1  C   -0.000115   0.000005  -0.000000   0.000000  -0.000008  -0.000016
     2  C   -0.001539  -0.000027   0.000001   0.000004   0.000129   0.000163
     3  C   -0.015052  -0.003003  -0.000154   0.000195  -0.002075  -0.000785
     4  C    0.348974  -0.058808  -0.004805   0.002002   0.000852  -0.011023
     5  C    0.011387   0.016737   0.000061   0.000020  -0.000023   0.000114
     6  C    0.630376  -0.067807   0.000992  -0.000062  -0.000037   0.000928
     7  C    4.443735   0.401583  -0.022613  -0.003976  -0.001740  -0.020195
     8  C    0.401583   5.041744   0.331990  -0.006796  -0.005245   0.332808
     9  C   -0.022613   0.331990   4.963692   0.592808   0.010509  -0.071768
    10  C   -0.003976  -0.006796   0.592808   4.807061   0.401370   0.011498
    11  C   -0.001740  -0.005245   0.010509   0.401370   4.818362   0.582658
    12  C   -0.020195   0.332808  -0.071768   0.011498   0.582658   4.968748
    13  H   -0.000001  -0.000000   0.000000  -0.000000   0.000000  -0.000000
    14  H   -0.000005  -0.000000   0.000000   0.000000  -0.000001   0.000000
    15  H    0.000033   0.000002   0.000000   0.000000   0.000001  -0.000006
    16  H    0.000258  -0.000010   0.000000   0.000000  -0.000000   0.000000
    17  H   -0.003292  -0.001258  -0.000509   0.000389   0.003355   0.009781
    18  H   -0.024244  -0.002491   0.004267  -0.000198   0.000176  -0.000664
    19  H   -0.009329  -0.000397   0.000058  -0.000001   0.000001  -0.000015
    20  H   -0.011860  -0.000464  -0.000011   0.000000  -0.000000   0.000035
    21  H   -0.044928  -0.006606   0.000067   0.000000  -0.000004   0.000056
    22  H   -0.023903   0.353528  -0.039495   0.003957   0.004029  -0.042444
    23  H    0.000293  -0.054055   0.372970  -0.047759   0.006259   0.006573
    24  H    0.000055   0.006994  -0.052392   0.377469  -0.054913   0.006193
    25  H    0.000051   0.007151   0.006125  -0.054685   0.377834  -0.053409
    26  H    0.000174  -0.053019   0.006549   0.006318  -0.048507   0.373804
              13         14         15         16         17         18
     1  C    0.371916   0.372830   0.374675  -0.062642  -0.010128  -0.000263
     2  C   -0.018950  -0.025407  -0.022745   0.365370  -0.050580  -0.002064
     3  C    0.002004  -0.006466  -0.010137  -0.026805   0.361955  -0.043336
     4  C   -0.000149  -0.000236   0.000117  -0.016294  -0.052733   0.339031
     5  C   -0.000000  -0.000001  -0.000005   0.003743   0.004506  -0.028091
     6  C    0.000002  -0.000001   0.000008   0.000173   0.000342  -0.004005
     7  C   -0.000001  -0.000005   0.000033   0.000258  -0.003292  -0.024244
     8  C   -0.000000  -0.000000   0.000002  -0.000010  -0.001258  -0.002491
     9  C    0.000000   0.000000   0.000000   0.000000  -0.000509   0.004267
    10  C   -0.000000   0.000000   0.000000   0.000000   0.000389  -0.000198
    11  C    0.000000  -0.000001   0.000001  -0.000000   0.003355   0.000176
    12  C   -0.000000   0.000000  -0.000006   0.000000   0.009781  -0.000664
    13  H    0.602504  -0.031268  -0.031624  -0.006692  -0.000025   0.000005
    14  H   -0.031268   0.586925  -0.029327   0.004074   0.002003   0.000056
    15  H   -0.031624  -0.029327   0.584982   0.004685   0.002366  -0.000015
    16  H   -0.006692   0.004074   0.004685   0.636797   0.007088  -0.000163
    17  H   -0.000025   0.002003   0.002366   0.007088   0.634974   0.000282
    18  H    0.000005   0.000056  -0.000015  -0.000163   0.000282   0.678338
    19  H   -0.000000   0.000000  -0.000000   0.000027  -0.000115  -0.000909
    20  H    0.000002   0.000010  -0.000023   0.003655   0.000067   0.003279
    21  H    0.000000  -0.000000   0.000000   0.000014   0.000020  -0.000711
    22  H    0.000000  -0.000000   0.000000   0.000000   0.000033  -0.000106
    23  H    0.000000  -0.000000  -0.000000   0.000000  -0.000003   0.000184
    24  H   -0.000000   0.000000  -0.000000   0.000000   0.000008   0.000002
    25  H    0.000000   0.000000  -0.000000   0.000000   0.000013   0.000002
    26  H   -0.000000   0.000001   0.000012   0.000000   0.000466   0.000007
              19         20         21         22         23         24
     1  C   -0.000015  -0.000033   0.000000  -0.000000   0.000000   0.000000
     2  C    0.000281   0.004202  -0.000042   0.000003   0.000000  -0.000000
     3  C    0.001950  -0.006092  -0.000251  -0.000019   0.000036  -0.000004
     4  C   -0.012468  -0.007090   0.014943   0.004836  -0.000104  -0.000010
     5  C    0.341857   0.339991  -0.058378  -0.000361  -0.000037  -0.000000
     6  C   -0.010953  -0.007864   0.362726  -0.008694   0.000418   0.000004
     7  C   -0.009329  -0.011860  -0.044928  -0.023903   0.000293   0.000055
     8  C   -0.000397  -0.000464  -0.006606   0.353528  -0.054055   0.006994
     9  C    0.000058  -0.000011   0.000067  -0.039495   0.372970  -0.052392
    10  C   -0.000001   0.000000   0.000000   0.003957  -0.047759   0.377469
    11  C    0.000001  -0.000000  -0.000004   0.004029   0.006259  -0.054913
    12  C   -0.000015   0.000035   0.000056  -0.042444   0.006573   0.006193
    13  H   -0.000000   0.000002   0.000000   0.000000   0.000000  -0.000000
    14  H    0.000000   0.000010  -0.000000  -0.000000  -0.000000   0.000000
    15  H   -0.000000  -0.000023   0.000000   0.000000  -0.000000  -0.000000
    16  H    0.000027   0.003655   0.000014   0.000000   0.000000   0.000000
    17  H   -0.000115   0.000067   0.000020   0.000033  -0.000003   0.000008
    18  H   -0.000909   0.003279  -0.000711  -0.000106   0.000184   0.000002
    19  H    0.637947  -0.047287   0.001013   0.000008  -0.000007   0.000000
    20  H   -0.047287   0.626498   0.001019   0.000005   0.000001   0.000000
    21  H    0.001013   0.001019   0.638061   0.002686   0.000007  -0.000000
    22  H    0.000008   0.000005   0.002686   0.642659  -0.000829  -0.000207
    23  H   -0.000007   0.000001   0.000007  -0.000829   0.622120  -0.004119
    24  H    0.000000   0.000000  -0.000000  -0.000207  -0.004119   0.626404
    25  H   -0.000000   0.000000  -0.000000  -0.000204  -0.000172  -0.002435
    26  H    0.000001  -0.000003   0.000001  -0.000792  -0.000102  -0.000169
              25         26
     1  C   -0.000000  -0.000002
     2  C    0.000002  -0.000068
     3  C   -0.000003   0.000428
     4  C   -0.000011  -0.000562
     5  C   -0.000000   0.000018
     6  C    0.000005   0.000317
     7  C    0.000051   0.000174
     8  C    0.007151  -0.053019
     9  C    0.006125   0.006549
    10  C   -0.054685   0.006318
    11  C    0.377834  -0.048507
    12  C   -0.053409   0.373804
    13  H    0.000000  -0.000000
    14  H    0.000000   0.000001
    15  H   -0.000000   0.000012
    16  H    0.000000   0.000000
    17  H    0.000013   0.000466
    18  H    0.000002   0.000007
    19  H   -0.000000   0.000001
    20  H    0.000000  -0.000003
    21  H   -0.000000   0.000001
    22  H   -0.000204  -0.000792
    23  H   -0.000172  -0.000102
    24  H   -0.002435  -0.000169
    25  H    0.627145  -0.004165
    26  H   -0.004165   0.618481
 Mulliken charges:
               1
     1  C   -0.422776
     2  C   -0.057638
     3  C   -0.052615
     4  C   -0.144783
     5  C   -0.260814
     6  C   -0.215103
     7  C    0.345873
     8  C   -0.232555
     9  C   -0.098342
    10  C   -0.089617
    11  C   -0.092981
    12  C   -0.093033
    13  H    0.112276
    14  H    0.126812
    15  H    0.127001
    16  H    0.086721
    17  H    0.090994
    18  H    0.081632
    19  H    0.098351
    20  H    0.101964
    21  H    0.090307
    22  H    0.105309
    23  H    0.098325
    24  H    0.097121
    25  H    0.096757
    26  H    0.100813
 Sum of Mulliken charges =  -0.00000
 Mulliken charges with hydrogens summed into heavy atoms:
               1
     1  C   -0.056687
     2  C    0.029083
     3  C    0.038379
     4  C   -0.063151
     5  C   -0.060499
     6  C   -0.124796
     7  C    0.345873
     8  C   -0.127246
     9  C   -0.000017
    10  C    0.007505
    11  C    0.003776
    12  C    0.007780
 Electronic spatial extent (au):  <R**2>=           2337.9470
 Charge=             -0.0000 electrons
 Dipole moment (field-independent basis, Debye):
    X=             -0.2047    Y=             -0.0797    Z=              0.0288  Tot=              0.2216
 Quadrupole moment (field-independent basis, Debye-Ang):
   XX=            -70.5046   YY=            -68.4234   ZZ=            -70.8926
   XY=              0.7035   XZ=              1.1374   YZ=              0.3527
 Traceless Quadrupole moment (field-independent basis, Debye-Ang):
   XX=             -0.5644   YY=              1.5168   ZZ=             -0.9524
   XY=              0.7035   XZ=              1.1374   YZ=              0.3527
 Octapole moment (field-independent basis, Debye-Ang**2):
  XXX=             13.2840  YYY=             -5.1551  ZZZ=              0.4484  XYY=             -5.3781
  XXY=              0.0500  XXZ=             -5.6735  XZZ=             -4.5664  YZZ=              1.2441
  YYZ=              1.7982  XYZ=             -3.5621
 Hexadecapole moment (field-independent basis, Debye-Ang**3):
 XXXX=          -2000.7927 YYYY=           -927.9767 ZZZZ=           -270.9866 XXXY=              7.9587
 XXXZ=             28.2406 YYYX=             18.3637 YYYZ=              9.3450 ZZZX=              6.7340
 ZZZY=             -1.8788 XXYY=           -478.8423 XXZZ=           -377.5174 YYZZ=           -193.0772
 XXYZ=             11.1183 YYXZ=             -0.0564 ZZXY=             -2.4526
 N-N= 6.462483472824D+02 E-N=-2.370646087337D+03  KE= 4.617540944982D+02
 PrsmSu:  requested number of processors reduced to:  13 ShMem   1 Linda.
 Calling FoFJK, ICntrl=      2127 FMM=F ISym2X=0 I1Cent= 0 IOpClX= 0 NMat=1 NMatS=1 NMatT=0.
 ***** Axes restored to original set *****
 -------------------------------------------------------------------
 Center     Atomic                   Forces (Hartrees/Bohr)
 Number     Number              X              Y              Z
 -------------------------------------------------------------------
      1        6          -0.006115072   -0.002680891    0.007270999
      2        6           0.006748337    0.007532962   -0.014664556
      3        6          -0.005116154   -0.014227374    0.021056492
      4        6          -0.001496915    0.005419733   -0.012407409
      5        6           0.003919544   -0.002047841    0.013632745
      6        6          -0.000450060   -0.001087530   -0.013633854
      7        6           0.017800250    0.017639764    0.005485431
      8        6          -0.013887354   -0.019714468    0.000725978
      9        6           0.012452939   -0.002062156   -0.005942521
     10        6           0.010456441   -0.007751435   -0.003143523
     11        6          -0.010262829    0.006279323    0.004861796
     12        6          -0.008459406    0.010605934    0.002993760
     13        1          -0.004131441    0.000476342   -0.001692120
     14        1          -0.004777215    0.001404551   -0.000770355
     15        1          -0.003503211   -0.001145623   -0.001770395
     16        1           0.003583244    0.000212429   -0.001516514
     17        1           0.000449498    0.000875821   -0.000528039
     18        1           0.001600211    0.000768819   -0.001571051
     19        1           0.001668265    0.000952149   -0.000410296
     20        1          -0.003263116   -0.001982844   -0.002308052
     21        1          -0.000287296   -0.000070281   -0.001952959
     22        1           0.002104470   -0.000280304    0.003896798
     23        1           0.002558156   -0.000322969    0.002324224
     24        1           0.001033741   -0.001771466   -0.001994075
     25        1          -0.002980479    0.001358372   -0.001055594
     26        1           0.000355454    0.001618982    0.003113092
 -------------------------------------------------------------------
 Cartesian Forces:  Max     0.021056492 RMS     0.006995120

 GradGradGradGradGradGradGradGradGradGradGradGradGradGradGradGradGradGrad
 Berny optimization.
 FormGI is forming the generalized inverse of G from B-inverse, IUseBI=4.
 Internal  Forces:  Max     0.020260264 RMS     0.004163260
 Search for a local minimum.
 Step number   1 out of a maximum of  156
 All quantities printed in internal units (Hartrees-Bohrs-Radians)
 Mixed Optimization -- RFO/linear search
 Second derivative matrix not updated -- first step.
 ITU=  0
     Eigenvalues ---    0.00421   0.00564   0.00835   0.00902   0.00912
     Eigenvalues ---    0.00925   0.01370   0.01569   0.01596   0.01712
     Eigenvalues ---    0.01741   0.02045   0.02141   0.02449   0.02861
     Eigenvalues ---    0.03402   0.04396   0.04949   0.05194   0.05738
     Eigenvalues ---    0.06378   0.07071   0.07222   0.07340   0.07575
     Eigenvalues ---    0.07639   0.07956   0.09747   0.12971   0.15982
     Eigenvalues ---    0.15989   0.15995   0.15997   0.16000   0.16000
     Eigenvalues ---    0.16000   0.16000   0.16000   0.16000   0.20112
     Eigenvalues ---    0.21228   0.21998   0.22000   0.22002   0.24977
     Eigenvalues ---    0.26146   0.27654   0.29647   0.29787   0.30463
     Eigenvalues ---    0.30902   0.33481   0.33564   0.33856   0.34083
     Eigenvalues ---    0.34240   0.34272   0.34302   0.34352   0.34437
     Eigenvalues ---    0.35232   0.35305   0.35383   0.36051   0.36084
     Eigenvalues ---    0.36105   0.36180   0.38154   0.50084   0.51375
     Eigenvalues ---    0.55928   0.56851
 RFO step:  Lambda=-1.11875758D-02 EMin= 4.20760643D-03
 Linear search not attempted -- first point.
 Iteration  1 RMS(Cart)=  0.05936965 RMS(Int)=  0.00098648
 Iteration  2 RMS(Cart)=  0.00182392 RMS(Int)=  0.00028071
 Iteration  3 RMS(Cart)=  0.00000184 RMS(Int)=  0.00028071
 Iteration  4 RMS(Cart)=  0.00000000 RMS(Int)=  0.00028071
 Variable       Old X    -DE/DX   Delta X   Delta X   Delta X     New X
                                 (Linear)    (Quad)   (Total)
    R1        2.81372   0.01852   0.00000   0.05340   0.05340   2.86713
    R2        2.06824  -0.00030   0.00000  -0.00083  -0.00083   2.06741
    R3        2.06598   0.00139   0.00000   0.00392   0.00392   2.06990
    R4        2.06741   0.00045   0.00000   0.00126   0.00126   2.06867
    R5        2.53523  -0.00769   0.00000  -0.01327  -0.01327   2.52196
    R6        2.05058   0.00024   0.00000   0.00066   0.00066   2.05124
    R7        2.81515   0.01271   0.00000   0.03675   0.03675   2.85189
    R8        2.05300   0.00049   0.00000   0.00135   0.00135   2.05435
    R9        2.93425   0.00691   0.00000   0.02773   0.02783   2.96208
   R10        2.89444   0.00438   0.00000   0.01269   0.01277   2.90721
   R11        2.07573   0.00071   0.00000   0.00203   0.00203   2.07776
   R12        2.84380   0.00540   0.00000   0.01750   0.01741   2.86120
   R13        2.07190   0.00041   0.00000   0.00117   0.00117   2.07307
   R14        2.06873  -0.00030   0.00000  -0.00085  -0.00085   2.06788
   R15        2.55257  -0.01078   0.00000  -0.02100  -0.02111   2.53147
   R16        2.05183  -0.00099   0.00000  -0.00272  -0.00272   2.04911
   R17        2.88390  -0.01145   0.00000  -0.03703  -0.03703   2.84687
   R18        2.85496   0.00529   0.00000   0.00965   0.00988   2.86484
   R19        2.85363   0.00651   0.00000   0.01363   0.01390   2.86753
   R20        2.06926   0.00139   0.00000   0.00392   0.00392   2.07318
   R21        2.53778   0.00223   0.00000   0.00534   0.00521   2.54299
   R22        2.04001   0.00222   0.00000   0.00597   0.00597   2.04598
   R23        2.71706   0.02026   0.00000   0.05617   0.05585   2.77291
   R24        2.03950   0.00262   0.00000   0.00705   0.00705   2.04655
   R25        2.53700   0.00300   0.00000   0.00687   0.00678   2.54378
   R26        2.03801   0.00325   0.00000   0.00871   0.00871   2.04672
   R27        2.03917   0.00243   0.00000   0.00652   0.00652   2.04569
    A1        1.91167   0.00547   0.00000   0.03602   0.03551   1.94718
    A2        1.92656   0.00449   0.00000   0.02426   0.02394   1.95050
    A3        1.93612   0.00269   0.00000   0.01353   0.01332   1.94944
    A4        1.88727  -0.00409   0.00000  -0.01961  -0.02019   1.86708
    A5        1.88426  -0.00337   0.00000  -0.01589  -0.01627   1.86799
    A6        1.91681  -0.00551   0.00000  -0.03977  -0.03978   1.87703
    A7        2.14145   0.00686   0.00000   0.02968   0.02966   2.17111
    A8        2.02302   0.00055   0.00000   0.00843   0.00841   2.03143
    A9        2.11871  -0.00741   0.00000  -0.03806  -0.03808   2.08063
   A10        2.13618   0.01573   0.00000   0.06811   0.06809   2.20427
   A11        2.09516  -0.00707   0.00000  -0.02923  -0.02926   2.06591
   A12        2.05094  -0.00863   0.00000  -0.03841  -0.03843   2.01251
   A13        2.06011   0.00165   0.00000   0.01157   0.01130   2.07141
   A14        1.98749   0.00461   0.00000   0.03591   0.03597   2.02346
   A15        1.92158  -0.00199   0.00000  -0.01141  -0.01117   1.91041
   A16        1.49344  -0.00306   0.00000  -0.00587  -0.00616   1.48728
   A17        1.97320   0.00052   0.00000  -0.00309  -0.00316   1.97004
   A18        1.99764  -0.00163   0.00000  -0.02556  -0.02564   1.97200
   A19        1.51439  -0.00290   0.00000  -0.00961  -0.00959   1.50481
   A20        1.98288   0.00157   0.00000   0.00623   0.00605   1.98893
   A21        2.05790  -0.00199   0.00000  -0.02709  -0.02684   2.03105
   A22        2.02794  -0.00162   0.00000  -0.02038  -0.02021   2.00773
   A23        1.99940   0.00396   0.00000   0.03460   0.03443   2.03384
   A24        1.87031   0.00045   0.00000   0.01101   0.01098   1.88129
   A25        1.64471   0.00248   0.00000   0.00887   0.00862   1.65333
   A26        2.29385   0.00041   0.00000   0.00559   0.00562   2.29947
   A27        2.34424  -0.00288   0.00000  -0.01392  -0.01389   2.33035
   A28        1.62922   0.00346   0.00000   0.00845   0.00838   1.63759
   A29        2.34183  -0.00566   0.00000  -0.01951  -0.01951   2.32232
   A30        2.31185   0.00220   0.00000   0.01075   0.01073   2.32258
   A31        1.94491  -0.00048   0.00000   0.02081   0.01912   1.96403
   A32        1.95589   0.00036   0.00000   0.02770   0.02643   1.98232
   A33        1.93926  -0.00293   0.00000  -0.05521  -0.05493   1.88433
   A34        1.74690   0.00755   0.00000   0.04370   0.04295   1.78985
   A35        1.93972  -0.00194   0.00000  -0.01693  -0.01701   1.92271
   A36        1.92949  -0.00166   0.00000  -0.00998  -0.00980   1.91969
   A37        1.93462  -0.00376   0.00000  -0.02871  -0.02859   1.90603
   A38        2.16338  -0.00081   0.00000  -0.00120  -0.00141   2.16196
   A39        2.18498   0.00459   0.00000   0.03042   0.03019   2.21518
   A40        1.90374   0.00046   0.00000   0.00876   0.00846   1.91220
   A41        2.20673  -0.00137   0.00000  -0.01103  -0.01093   2.19580
   A42        2.17270   0.00092   0.00000   0.00235   0.00245   2.17515
   A43        1.90385  -0.00007   0.00000   0.00702   0.00675   1.91060
   A44        2.17294   0.00110   0.00000   0.00278   0.00287   2.17581
   A45        2.20626  -0.00102   0.00000  -0.00957  -0.00949   2.19677
   A46        1.93531  -0.00413   0.00000  -0.02961  -0.02935   1.90596
   A47        2.16077  -0.00054   0.00000  -0.00042  -0.00058   2.16019
   A48        2.18710   0.00467   0.00000   0.03001   0.02984   2.21694
    D1       -3.09878  -0.00001   0.00000  -0.00035  -0.00034  -3.09911
    D2        0.03765   0.00030   0.00000   0.01103   0.01117   0.04883
    D3        1.10830  -0.00113   0.00000  -0.01343  -0.01372   1.09459
    D4       -2.03845  -0.00081   0.00000  -0.00205  -0.00221  -2.04066
    D5       -1.02050   0.00096   0.00000   0.01123   0.01131  -1.00919
    D6        2.11593   0.00128   0.00000   0.02261   0.02282   2.13875
    D7       -3.13127   0.00032   0.00000   0.00816   0.00805  -3.12322
    D8       -0.03650   0.00065   0.00000   0.01923   0.01915  -0.01735
    D9        0.01576  -0.00005   0.00000  -0.00398  -0.00390   0.01186
   D10        3.11053   0.00029   0.00000   0.00708   0.00719   3.11773
   D11       -0.51975   0.00001   0.00000   0.01359   0.01376  -0.50599
   D12       -2.23095   0.00019   0.00000  -0.00668  -0.00687  -2.23782
   D13        1.78165   0.00030   0.00000   0.00829   0.00828   1.78993
   D14        2.66754  -0.00034   0.00000   0.00265   0.00284   2.67038
   D15        0.95634  -0.00016   0.00000  -0.01762  -0.01779   0.93855
   D16       -1.31425  -0.00005   0.00000  -0.00265  -0.00264  -1.31689
   D17       -1.96827  -0.00386   0.00000  -0.06219  -0.06208  -2.03035
   D18        2.26860  -0.00099   0.00000  -0.03628  -0.03627   2.23234
   D19        0.05940  -0.00133   0.00000  -0.03320  -0.03320   0.02620
   D20        0.03447  -0.00000   0.00000  -0.02249  -0.02224   0.01224
   D21       -2.01184   0.00287   0.00000   0.00343   0.00357  -2.00826
   D22        2.06214   0.00252   0.00000   0.00651   0.00664   2.06879
   D23        2.03684  -0.00306   0.00000  -0.05330  -0.05315   1.98369
   D24       -0.00947  -0.00018   0.00000  -0.02738  -0.02734  -0.03681
   D25       -2.21867  -0.00053   0.00000  -0.02430  -0.02427  -2.24294
   D26        2.03445   0.00089   0.00000   0.04012   0.04020   2.07465
   D27       -1.13126   0.00091   0.00000   0.02696   0.02713  -1.10413
   D28       -0.03841  -0.00023   0.00000   0.02451   0.02458  -0.01383
   D29        3.07907  -0.00021   0.00000   0.01135   0.01151   3.09058
   D30       -2.01666   0.00079   0.00000   0.03350   0.03334  -1.98332
   D31        1.10082   0.00081   0.00000   0.02034   0.02027   1.12109
   D32       -0.03908  -0.00022   0.00000   0.02500   0.02503  -0.01405
   D33        3.12987  -0.00034   0.00000   0.00653   0.00631   3.13617
   D34        1.96438  -0.00021   0.00000   0.02370   0.02391   1.98828
   D35       -1.14986  -0.00033   0.00000   0.00523   0.00519  -1.14468
   D36       -2.12155   0.00267   0.00000   0.05332   0.05358  -2.06797
   D37        1.04740   0.00254   0.00000   0.03485   0.03486   1.08225
   D38        0.03962   0.00025   0.00000  -0.02515  -0.02531   0.01432
   D39       -3.07853   0.00041   0.00000  -0.01168  -0.01155  -3.09008
   D40       -3.13064   0.00047   0.00000  -0.00526  -0.00552  -3.13616
   D41        0.03440   0.00063   0.00000   0.00821   0.00823   0.04263
   D42       -0.91474  -0.00481   0.00000  -0.03931  -0.03957  -0.95431
   D43        1.02670   0.00437   0.00000   0.04245   0.04288   1.06958
   D44       -3.08823   0.00025   0.00000   0.00838   0.00829  -3.07994
   D45        2.19422  -0.00484   0.00000  -0.05742  -0.05773   2.13648
   D46       -2.14753   0.00433   0.00000   0.02434   0.02471  -2.12282
   D47        0.02073   0.00022   0.00000  -0.00974  -0.00988   0.01085
   D48        2.09587   0.00293   0.00000   0.02461   0.02504   2.12091
   D49       -1.06660   0.00363   0.00000   0.05062   0.05073  -1.01587
   D50        0.02469  -0.00139   0.00000  -0.03981  -0.04028  -0.01559
   D51       -3.13778  -0.00070   0.00000  -0.01380  -0.01460   3.13081
   D52       -2.01409  -0.00269   0.00000  -0.04458  -0.04449  -2.05858
   D53        1.10663  -0.00199   0.00000  -0.01857  -0.01880   1.08782
   D54       -2.08544  -0.00254   0.00000  -0.02498  -0.02552  -2.11096
   D55        1.05368  -0.00288   0.00000  -0.03635  -0.03673   1.01695
   D56       -0.02235   0.00125   0.00000   0.03499   0.03547   0.01311
   D57        3.11677   0.00091   0.00000   0.02362   0.02426   3.14103
   D58        2.02406   0.00227   0.00000   0.03422   0.03420   2.05826
   D59       -1.12000   0.00193   0.00000   0.02286   0.02299  -1.09702
   D60       -0.01894   0.00117   0.00000   0.03190   0.03158   0.01264
   D61        3.12806   0.00057   0.00000   0.01709   0.01706  -3.13806
   D62       -3.13934   0.00054   0.00000   0.00597   0.00539  -3.13395
   D63        0.00766  -0.00006   0.00000  -0.00883  -0.00913  -0.00147
   D64        0.00373  -0.00024   0.00000  -0.00765  -0.00775  -0.00401
   D65       -3.12098  -0.00074   0.00000  -0.02125  -0.02119   3.14102
   D66        3.14005   0.00034   0.00000   0.00675   0.00651  -3.13663
   D67        0.01534  -0.00016   0.00000  -0.00685  -0.00694   0.00840
   D68        0.01303  -0.00077   0.00000  -0.01966  -0.01944  -0.00642
   D69       -3.12605  -0.00041   0.00000  -0.00804  -0.00771  -3.13377
   D70        3.13733  -0.00024   0.00000  -0.00558  -0.00565   3.13169
   D71       -0.00175   0.00012   0.00000   0.00605   0.00608   0.00433
         Item               Value     Threshold  Converged?
 Maximum Force            0.020260     0.000450     NO 
 RMS     Force            0.004163     0.000300     NO 
 Maximum Displacement     0.234230     0.001800     NO 
 RMS     Displacement     0.059594     0.001200     NO 
 Predicted change in Energy=-6.123640D-03
 GradGradGradGradGradGradGradGradGradGradGradGradGradGradGradGradGradGrad

                          Input orientation:                          
 ---------------------------------------------------------------------
 Center     Atomic      Atomic             Coordinates (Angstroms)
 Number     Number       Type             X           Y           Z
 ---------------------------------------------------------------------
      1          6           0        0.900136   -0.023813    0.051841
      2          6           0        2.417147   -0.016575    0.075787
      3          6           0        3.185535    0.358320   -0.948955
      4          6           0        4.694372    0.361382   -0.979897
      5          6           0        5.473987    0.570538    0.363754
      6          6           0        5.998752    1.848364   -0.256108
      7          6           0        5.355685    1.679185   -1.419016
      8          6           0        5.332221    2.463125   -2.705260
      9          6           0        5.746432    1.629068   -3.901528
     10          6           0        4.748406    1.623387   -4.804191
     11          6           0        3.633571    2.438978   -4.309119
     12          6           0        3.946981    2.940575   -3.099910
     13          1           0        0.484181   -0.327795    1.016966
     14          1           0        0.509254   -0.719692   -0.698320
     15          1           0        0.494254    0.967389   -0.174274
     16          1           0        2.886764   -0.347916    0.996610
     17          1           0        2.701151    0.666193   -1.872212
     18          1           0        5.050799   -0.508682   -1.549859
     19          1           0        6.233863   -0.195516    0.561752
     20          1           0        4.865642    0.679283    1.266818
     21          1           0        6.667355    2.613239    0.123020
     22          1           0        6.006218    3.321167   -2.590894
     23          1           0        6.701183    1.125289   -3.984395
     24          1           0        4.758285    1.107811   -5.756527
     25          1           0        2.705081    2.601871   -4.842440
     26          1           0        3.328457    3.573665   -2.476612
 ---------------------------------------------------------------------
                    Distance matrix (angstroms):
                    1          2          3          4          5
     1  C    0.000000
     2  C    1.517217   0.000000
     3  C    2.524017   1.334564   0.000000
     4  C    3.950833   2.538321   1.509158   0.000000
     5  C    4.622840   3.126003   2.646744   1.567464   0.000000
     6  C    5.440198   4.051671   3.257984   2.106275   1.514083
     7  C    4.991546   3.707430   2.583639   1.538429   2.102704
     8  C    5.781854   4.730833   3.481820   2.793036   3.608438
     9  C    6.468981   5.441628   4.109828   3.354070   4.403106
    10  C    6.411200   5.651410   4.348081   4.027506   5.323778
    11  C    5.705696   5.170767   3.977509   4.065147   5.358539
    12  C    5.291917   4.601106   3.445932   3.421298   4.466071
    13  H    1.094025   2.172334   3.410706   4.710429   5.111933
    14  H    1.095344   2.175701   2.896102   4.331654   5.238441
    15  H    1.094691   2.174450   2.866023   4.319406   5.024411
    16  H    2.223584   1.085469   2.091234   2.770764   2.817408
    17  H    2.724288   2.083634   1.087114   2.205009   3.563329
    18  H    4.475326   3.133850   2.142893   1.099504   2.237346
    19  H    5.360796   3.851687   3.446922   2.248744   1.097020
    20  H    4.206631   2.810319   2.799183   2.275549   1.094273
    21  H    6.341917   4.998241   4.284491   3.190603   2.377963
    22  H    6.651692   5.579707   4.408024   3.616155   4.071753
    23  H    7.159873   6.011813   4.707645   3.692946   4.551940
    24  H    7.064207   6.384439   5.113514   4.835022   6.185364
    25  H    5.840036   5.579258   4.519245   4.888385   6.236794
    26  H    5.023112   4.498338   3.562669   3.797979   4.657226
                    6          7          8          9         10
     6  C    0.000000
     7  C    1.339594   0.000000
     8  C    2.611616   1.506497   0.000000
     9  C    3.660717   2.513575   1.516008   0.000000
    10  C    4.722186   3.439667   2.334847   1.345693   0.000000
    11  C    4.729672   3.449007   2.336313   2.299187   1.467358
    12  C    3.672860   2.530010   1.517431   2.366572   2.298225
    13  H    6.063570   5.804613   6.719203   7.464060   7.475065
    14  H    6.076599   5.455447   6.117119   6.573070   6.349693
    15  H    5.575152   5.068486   5.661188   6.474227   6.321731
    16  H    4.009665   4.004992   5.252242   6.006490   6.403206
    17  H    3.857913   2.877166   3.293244   3.784043   3.701888
    18  H    2.850978   2.212880   3.200903   3.253341   3.902286
    19  H    2.213959   2.865160   4.307515   4.846397   5.857332
    20  H    2.229348   2.907516   4.379176   5.328197   6.145098
    21  H    1.084344   2.229532   3.131179   4.244253   5.379552
    22  H    2.760513   2.119574   1.097081   2.156026   3.059939
    23  H    3.862172   2.949294   2.302183   1.082687   2.175662
    24  H    5.686984   4.415581   3.387700   2.165448   1.082987
    25  H    5.696532   4.426836   3.389491   3.328884   2.265848
    26  H    3.877857   2.969380   2.302314   3.414447   3.352233
                   11         12         13         14         15
    11  C    0.000000
    12  C    1.346109   0.000000
    13  H    6.777970   6.294593   0.000000
    14  H    5.725070   5.566252   1.759664   0.000000
    15  H    5.396094   4.937017   1.759731   1.766661   0.000000
    16  H    6.039475   5.359077   2.402754   2.943393   2.970708
    17  H    3.154471   2.869172   3.774960   2.846597   2.800734
    18  H    4.279106   3.939345   5.241690   4.625503   4.983285
    19  H    6.117798   5.335978   5.769191   5.885039   5.902304
    20  H    5.975415   5.002568   4.502647   4.979660   4.611809
    21  H    5.373831   4.230231   6.905104   7.050194   6.395654
    22  H    3.059412   2.155087   7.538201   7.080041   6.462358
    23  H    3.352829   3.415143   8.110252   7.248602   7.284774
    24  H    2.265387   3.327890   8.136900   6.854159   7.025898
    25  H    1.083079   2.166436   6.917223   5.747014   5.417662
    26  H    2.176853   1.082533   5.959563   5.435361   4.486217
                   16         17         18         19         20
    16  H    0.000000
    17  H    3.048444   0.000000
    18  H    3.345654   2.646713   0.000000
    19  H    3.378668   4.375703   2.440618   0.000000
    20  H    2.245909   3.812965   3.062550   1.770429   0.000000
    21  H    4.881031   4.847959   3.893349   2.875674   2.880040
    22  H    6.005277   4.299867   4.082195   4.728430   4.812734
    23  H    6.444419   4.546684   3.364609   4.757139   5.580624
    24  H    7.157276   4.417548   4.516046   6.617903   7.037225
    25  H    6.544368   3.545295   5.100884   7.034412   6.759245
    26  H    5.257106   3.035161   4.526687   5.646216   4.975304
                   21         22         23         24         25
    21  H    0.000000
    22  H    2.881596   0.000000
    23  H    4.368753   2.691970   0.000000
    24  H    6.362384   4.059250   2.629755   0.000000
    25  H    6.352600   4.060092   4.345729   2.698781   0.000000
    26  H    4.339210   2.692066   4.432069   4.345422   2.632513
                   26
    26  H    0.000000
 Stoichiometry    C12H14
 Framework group  C1[X(C12H14)]
 Deg. of freedom    72
 Full point group                 C1      NOp   1
 Largest Abelian subgroup         C1      NOp   1
 Largest concise Abelian subgroup C1      NOp   1
                         Standard orientation:                         
 ---------------------------------------------------------------------
 Center     Atomic      Atomic             Coordinates (Angstroms)
 Number     Number       Type             X           Y           Z
 ---------------------------------------------------------------------
      1          6           0        3.503230   -1.907902    0.142487
      2          6           0        2.806906   -0.596497   -0.169439
      3          6           0        1.490130   -0.464473   -0.341873
      4          6           0        0.756225    0.811549   -0.674603
      5          6           0        1.360938    2.174883   -0.192332
      6          6           0        0.112036    2.315357    0.652037
      7          6           0       -0.430984    1.162642    0.238650
      8          6           0       -1.746456    0.485178    0.521690
      9          6           0       -2.543682    0.214692   -0.739082
     10          6           0       -2.781682   -1.106121   -0.837570
     11          6           0       -2.198711   -1.797854    0.317762
     12          6           0       -1.598737   -0.900573    1.122080
     13          1           0        4.579108   -1.768312    0.283535
     14          1           0        3.378530   -2.636157   -0.666137
     15          1           0        3.116144   -2.363490    1.059521
     16          1           0        3.443277    0.278262   -0.259279
     17          1           0        0.868253   -1.353341   -0.271155
     18          1           0        0.492490    0.814723   -1.742003
     19          1           0        1.468877    2.921048   -0.989225
     20          1           0        2.311814    2.121320    0.346556
     21          1           0       -0.212862    3.090404    1.337270
     22          1           0       -2.319405    1.128928    1.200588
     23          1           0       -2.853654    0.984982   -1.433906
     24          1           0       -3.326073   -1.594039   -1.636591
     25          1           0       -2.247360   -2.866892    0.484644
     26          1           0       -1.074419   -1.102717    2.047340
 ---------------------------------------------------------------------
 Rotational constants (GHZ):           1.3151594           0.6682880           0.5017881
 Standard basis: 6-31G(2df,p) (6D, 7F)
 There are   442 symmetry adapted cartesian basis functions of A   symmetry.
 There are   406 symmetry adapted basis functions of A   symmetry.
   406 basis functions,   626 primitive gaussians,   442 cartesian basis functions
    43 alpha electrons       43 beta electrons
       nuclear repulsion energy       642.2954730135 Hartrees.
 NAtoms=   26 NActive=   26 NUniq=   26 SFac= 1.00D+00 NAtFMM=   60 NAOKFM=F Big=F
 Integral buffers will be    131072 words long.
 Raffenetti 2 integral format.
 Two-electron integral symmetry is turned on.
 One-electron integrals computed using PRISM.
 PrsmSu:  requested number of processors reduced to:  13 ShMem   1 Linda.
 NBasis=   406 RedAO= T EigKep=  2.71D-04  NBF=   406
 NBsUse=   406 1.00D-06 EigRej= -1.00D+00 NBFU=   406
 Initial guess from the checkpoint file:  "CCdCC1CCdC1C1CdCCdC1.chk"
 B after Tr=    -0.000000   -0.000000    0.000000
         Rot=    0.999906    0.000667    0.001939   -0.013570 Ang=   1.57 deg.
 ExpMin= 1.61D-01 ExpMax= 3.05D+03 ExpMxC= 4.57D+02 IAcc=2 IRadAn=         4 AccDes= 0.00D+00
 Harris functional with IExCor=  402 and IRadAn=       4 diagonalized for initial guess.
 HarFok:  IExCor=  402 AccDes= 0.00D+00 IRadAn=         4 IDoV= 1 UseB2=F ITyADJ=14
 ICtDFT=  3500011 ScaDFX=  1.000000  1.000000  1.000000  1.000000
 FoFCou: FMM=F IPFlag=           0 FMFlag=      100000 FMFlg1=           0
         NFxFlg=           0 DoJE=T BraDBF=F KetDBF=T FulRan=T
         wScrn=  0.000000 ICntrl=       500 IOpCl=  0 I1Cent=   200000004 NGrid=           0
         NMat0=    1 NMatS0=      1 NMatT0=    0 NMatD0=    1 NMtDS0=    0 NMtDT0=    0
 Petite list used in FoFCou.
 Requested convergence on RMS density matrix=1.00D-08 within 128 cycles.
 Requested convergence on MAX density matrix=1.00D-06.
 Requested convergence on             energy=1.00D-06.
 No special actions if energy rises.
 Integral accuracy reduced to 1.0D-05 until final iterations.
 Initial convergence to 1.0D-05 achieved.  Increase integral accuracy.
 SCF Done:  E(RB3LYP) =  -465.620474604     A.U. after   12 cycles
            NFock= 12  Conv=0.26D-08     -V/T= 2.0088
 PrsmSu:  requested number of processors reduced to:  13 ShMem   1 Linda.
 Calling FoFJK, ICntrl=      2127 FMM=F ISym2X=0 I1Cent= 0 IOpClX= 0 NMat=1 NMatS=1 NMatT=0.
 ***** Axes restored to original set *****
 -------------------------------------------------------------------
 Center     Atomic                   Forces (Hartrees/Bohr)
 Number     Number              X              Y              Z
 -------------------------------------------------------------------
      1        6           0.002617099   -0.000726397    0.001577593
      2        6          -0.001565372    0.001994530   -0.003179475
      3        6           0.000541464   -0.004717062    0.004646313
      4        6          -0.006010844    0.004228494   -0.003010803
      5        6           0.003447909   -0.002472979    0.004145137
      6        6          -0.002004000   -0.001513111   -0.000638836
      7        6           0.004427258    0.003988593    0.001207503
      8        6          -0.003406085   -0.005103736    0.001641682
      9        6          -0.002893191    0.001640907   -0.001680634
     10        6           0.001674159   -0.000493869   -0.000260263
[...]
 5053,0.00062301,-0.13674855,0.19435386,-0.00001100,0.00002643,0.000176
 64,0.00008657,0.00014002,-0.00004035,0.00056313,0.00064162,-0.00185482
 ,-0.01332309,0.01735748,-0.00265181,-0.03302323,0.03406188,-0.05438989
 ,-0.00633796,0.00792135,-0.00380437,-0.00133430,0.00149586,-0.00156886
 ,0.00180064,-0.00042636,-0.00168814,-0.00008099,0.00045251,0.00005484,
 -0.00015934,-0.00010555,-0.00014166,0.00012509,-0.00007269,-0.00013053
 ,0.00029623,-0.00022099,0.00039070,-0.00007489,0.00000414,-0.00000818,
 -0.00002249,-0.00000984,0.00000993,0.00006513,0.00000316,0.00001314,-0
 .00012092,-0.00010449,0.00022937,-0.00074382,-0.00025068,-0.00004445,-
 0.00011642,-0.00061868,0.00059676,0.03500035,-0.04159276,0.05941236,-0
 .00007499,0.00009311,-0.00002564,-0.00135431,-0.00053092,-0.00007853,0
 .00066421,0.00001560,0.00060471,0.01114701,-0.00275100,-0.01212921,-0.
 13576867,0.02619914,0.12290267,-0.00528151,0.00194280,0.00958435,-0.00
 119412,-0.00223628,-0.00149324,0.00050015,0.00077063,-0.00003519,-0.00
 003283,-0.00003217,0.00003626,0.00002816,0.00004160,0.00003075,0.00008
 444,-0.00009347,-0.00000590,-0.00014515,0.00000530,0.00024029,0.000009
 33,-0.00001474,-0.00001082,0.00005925,0.00003517,-0.00000676,-0.000027
 33,0.00001771,-0.00001654,-0.00172725,-0.00098768,-0.00055213,0.000176
 96,0.00011003,0.00012905,-0.00060217,0.00020734,-0.00160771,-0.0122895
 1,0.00379070,0.01730470,0.14592285,-0.00001687,-0.00008631,0.00033617,
 -0.00001998,0.00003112,-0.00086947,0.00037602,0.00046786,0.00081333,0.
 00438938,-0.00311994,-0.00392649,0.02411885,-0.05059463,-0.03336983,-0
 .01494687,0.00564636,0.02367447,-0.00218606,-0.00232382,0.00082856,0.0
 0258081,-0.00109952,-0.00004151,-0.00003404,0.00000375,-0.00032335,0.0
 0005688,-0.00007921,-0.00002264,0.00033970,-0.00005809,0.00012116,-0.0
 0046510,-0.00019892,0.00066099,0.00000920,0.00001339,-0.00002422,-0.00
 005854,-0.00000617,-0.00001908,0.00009352,0.00000096,0.00000582,-0.000
 84737,-0.00015292,0.00015852,-0.00005954,0.00008553,0.00010028,-0.0007
 7950,0.00054222,-0.00162975,0.01378324,-0.00319358,-0.01874080,-0.0264
 3781,0.05403435,-0.00011036,-0.00007327,0.00075123,0.00025592,0.000545
 40,-0.00032230,0.00176243,-0.00022956,0.00038083,0.01359304,-0.0028900
 2,-0.01521641,0.12104590,-0.03553660,-0.21051153,0.00374154,0.00154162
 ,-0.00805274,0.00054129,0.00025652,-0.00129845,-0.00145427,0.00135125,
 0.00002869,-0.00007763,0.00024465,0.00031644,0.00006031,0.00004803,-0.
 00001917,-0.00020532,0.00000127,-0.00004310,0.00035356,0.00007645,-0.0
 0031789,-0.00008377,-0.00001035,-0.00003774,-0.00003168,0.00001730,-0.
 00003617,0.00025487,-0.00000282,0.00003189,-0.00025489,-0.00055185,0.0
 0114580,-0.00004843,0.00015791,0.00013474,-0.00058700,0.00115448,-0.00
 181067,-0.00383003,0.00099002,0.00537856,-0.13507920,0.03274568,0.2297
 2636,0.00004665,-0.00021713,-0.00010945,-0.00001804,0.00013381,0.00025
 820,0.00092847,0.00104243,0.00004744,0.00549297,-0.00745334,-0.0059040
 7,-0.00147857,0.00182040,-0.00396049,-0.16791439,-0.13075113,-0.069898
 29,-0.00082982,-0.01124344,0.00278269,-0.00189864,0.00178520,0.0012886
 4,0.00025141,0.00000195,0.00020333,-0.00005859,0.00013391,0.00009757,-
 0.00008848,-0.00008083,-0.00006402,0.00012637,-0.00003797,-0.00016323,
 0.00002385,0.00001231,0.00000510,-0.00005219,-0.00000185,-0.00000277,-
 0.00002275,0.00000071,-0.00000853,0.00002070,0.00010621,-0.00004363,0.
 00002759,-0.00004248,0.00000321,-0.00227328,-0.00212174,-0.00056030,-0
 .00020629,-0.00024419,0.00010119,-0.00010830,0.00008579,0.00022257,0.1
 6806263,-0.00000271,0.00016916,0.00012998,0.00002348,0.00003072,-0.000
 24393,-0.00027068,-0.00160453,-0.00113284,-0.00871031,0.00172142,0.001
 79420,-0.00628699,-0.00136336,-0.01029057,-0.13264791,-0.17914834,-0.0
 5742410,-0.00082232,0.00139776,0.00443428,0.00196230,0.00004392,-0.001
 44577,-0.00015308,0.00010036,-0.00006148,-0.00006381,-0.00004602,-0.00
 004500,0.00013351,-0.00001205,-0.00001082,0.00006950,0.00005566,0.0001
 6606,-0.00012378,0.00000748,0.00002805,-0.00004286,-0.00002573,-0.0000
 0921,-0.00001503,-0.00000878,-0.00001775,0.00010158,-0.00007178,-0.000
 02967,-0.00049609,0.00003560,-0.00005545,0.00079046,0.00108185,-0.0004
 1760,0.00034808,-0.00031370,-0.00006927,-0.00032505,-0.00013051,0.0000
 9538,0.14681212,0.17804572,-0.00004212,0.00028213,0.00025516,-0.000229
 66,-0.00002061,-0.00030321,-0.00012393,-0.00189637,0.00093598,-0.00585
 559,0.00313714,-0.00089246,0.00732666,0.00444967,0.00698166,-0.0663692
 6,-0.05333697,-0.08884446,-0.01336618,-0.01668005,0.00314432,0.0011923
 1,-0.00183618,0.00091544,-0.00003366,0.00016933,-0.00010018,0.00003234
 ,-0.00003875,-0.00000134,0.00010317,0.00005012,0.00005121,0.00003411,0
 .00019718,0.00005421,-0.00012981,-0.00000176,-0.00001167,0.00000697,-0
 .00001518,-0.00001173,0.00001386,0.00000075,-0.00001373,-0.00006820,-0
 .00013531,0.00006958,0.00015706,0.00001550,-0.00005302,0.00082050,0.00
 020924,0.00072636,-0.00028008,0.00014038,0.00024555,0.00032076,-0.0003
 8747,-0.00013114,0.07616934,0.06517678,0.07704493,0.00000484,-0.000014
 86,-0.00000765,0.00002920,0.00001456,0.00004251,-0.00000445,0.00013122
 ,-0.00016434,0.00111655,0.00069476,-0.00099453,0.00014187,0.00014137,0
 .00021327,0.00043681,0.00101109,0.00035274,0.00043972,-0.00075239,0.00
 006617,-0.13102341,-0.12123087,-0.01624172,0.00656602,0.00753854,0.002
 17433,-0.00209831,0.00042052,0.00272239,-0.00318798,0.00220324,-0.0013
 9504,-0.01985132,-0.02199453,-0.00637551,-0.00001161,0.00000317,0.0000
 0746,-0.00001055,-0.00000196,0.00000132,0.00000306,-0.00000004,-0.0000
 0073,0.00000127,0.00000266,0.00001389,0.00003395,0.00001114,-0.0000182
 7,-0.00007386,-0.00018847,0.00009754,0.00002509,0.00000073,0.00004443,
 -0.00002002,-0.00004701,0.00005155,0.00004870,-0.00028109,0.00035318,0
 .14607854,0.00001019,0.00004183,0.00007598,-0.00017152,0.00004102,-0.0
 0008110,0.00040878,-0.00017432,0.00022010,0.00052713,0.00141563,0.0013
 6442,-0.00008418,-0.00028513,0.00007611,0.00138616,0.00185569,-0.00066
 985,-0.01379409,-0.01985288,0.00148289,-0.11805414,-0.18737788,-0.0224
 9026,-0.01104047,-0.01369879,-0.00489841,0.00251852,-0.00097009,-0.002
 04923,0.00151900,-0.00091973,0.00174117,0.00614689,0.00813419,0.001816
 92,-0.00005385,0.00000657,0.00000165,-0.00002505,-0.00001216,-0.000001
 75,-0.00000461,0.00000103,-0.00001023,0.00000824,-0.00002997,0.0000026
 5,-0.00004181,-0.00001237,-0.00002281,0.00005871,0.00002135,-0.0000992
 4,0.00013483,0.00009322,0.00011970,0.00012958,0.00013526,0.00009230,0.
 00029383,0.00009005,0.00062447,0.13068849,0.21075298,-0.00000982,-0.00
 003893,-0.00007374,0.00024136,-0.00005186,0.00005671,-0.00066893,-0.00
 000807,-0.00019269,-0.00094313,0.00079581,-0.00259316,0.00051673,0.000
 57537,0.00018272,-0.00019847,-0.00138574,0.00112712,0.01876761,0.02810
 688,-0.00090823,-0.02065006,-0.02867181,-0.03761582,-0.01537636,-0.018
 57943,-0.00465484,-0.00150901,-0.00054590,-0.00283962,0.00088891,-0.00
 274642,-0.00166185,-0.00251949,-0.00370708,-0.00022475,0.00005531,-0.0
 0000468,-0.00000188,0.00002242,0.00000691,0.00000149,0.00000876,-0.000
 00065,0.00001026,-0.00001274,0.00003027,0.00000980,0.00008421,0.000006
 59,0.00004875,-0.00006040,0.00009263,-0.00001439,-0.00019903,-0.000258
 83,-0.00007646,-0.00014937,-0.00018094,-0.00004594,-0.00046760,-0.0005
 5356,-0.00007918,0.02075696,0.02342374,0.05097659,-0.00000148,0.000014
 48,-0.00001218,0.00003285,-0.00001596,0.00002108,-0.00006325,-0.000081
 80,-0.00009653,-0.00008326,0.00015029,0.00019320,0.00009702,-0.0000270
 0,0.00004012,0.00001646,-0.00017547,0.00022445,0.00019532,0.00035432,-
 0.00058021,-0.00090761,-0.00153693,-0.00259621,-0.27550542,0.12992606,
 0.01705901,-0.01031447,0.01059652,0.00807587,-0.00110227,0.00240690,-0
 .00431514,0.00016068,-0.00047996,-0.00011934,0.00000449,-0.00000150,-0
 .00000408,0.00000595,-0.00000231,0.00000507,0.00000232,0.00000431,0.00
 000398,-0.00000271,0.00000448,0.00000379,0.00001815,0.00004066,0.00001
 247,-0.00001766,-0.00025045,0.00004491,-0.00000518,-0.00003992,0.00003
 495,-0.00002039,-0.00003519,-0.00001071,-0.00002114,-0.00000613,-0.000
 00220,-0.00009966,0.00066682,0.00074139,0.28789351,-0.00000102,0.00000
 094,0.00000015,0.00001121,-0.00000114,0.00000493,-0.00005634,-0.000042
 64,-0.00002371,-0.00008646,0.00010109,-0.00003312,0.00000868,0.0000253
 3,-0.00006409,-0.00006555,0.00014469,-0.00015584,-0.00006100,-0.000202
 59,-0.00029882,0.00933767,-0.00467166,0.00314404,0.13142363,-0.1027443
 2,-0.01936152,-0.00143209,0.00355013,-0.00252998,0.00267638,0.00528963
 ,-0.00243016,-0.00029010,-0.00162135,-0.00178021,0.00000390,-0.0000036
 1,-0.00000148,0.00000438,0.00000503,-0.00000077,-0.00000234,-0.0000018
 2,-0.00000058,-0.00000418,0.00000566,0.00000082,0.00000442,0.00000919,
 0.00001233,0.00001273,-0.00008160,0.00003903,0.00000695,0.00003571,-0.
 00000674,-0.00000311,-0.00000027,-0.00002566,-0.00000765,-0.00002522,-
 0.00001983,-0.00041095,0.00057901,0.00075350,-0.14103975,0.10093914,0.
 00000182,-0.00000890,0.00000370,-0.00001789,0.00000359,0.00000154,0.00
 001421,0.00005817,0.00005299,0.00009597,0.00001678,-0.00026142,-0.0000
 5152,0.00007517,-0.00007179,-0.00055655,0.00032045,-0.00032039,0.00018
 678,-0.00060455,0.00262660,0.02040238,-0.00686909,0.00189356,0.0196588
 8,-0.02106063,-0.05417128,-0.01834505,0.01065909,0.00770664,-0.0037508
 6,-0.00224899,-0.00202222,0.00042599,-0.00223123,-0.00491468,-0.000007
 14,0.00000135,0.00000488,-0.00000739,-0.00000040,-0.00000071,-0.000001
 69,-0.00000138,-0.00000371,0.00000363,-0.00000232,-0.00000214,-0.00000
 966,-0.00002779,-0.00000773,0.00008332,0.00016898,-0.00005729,0.000007
 45,0.00002348,-0.00007086,0.00000703,0.00001690,0.00001661,0.00002972,
 -0.00004131,-0.00003407,-0.00050111,-0.00042120,0.00035690,-0.01944223
 ,0.02130614,0.04726788,-0.00000116,-0.00001143,-0.00000176,0.00003415,
 -0.00000900,0.00000238,-0.00008110,-0.00002693,-0.00000932,-0.00007076
 ,-0.00007509,-0.00006617,-0.00027411,0.00013609,-0.00000732,0.00009792
 ,0.00030738,-0.00016089,0.00050678,-0.00183063,-0.00103846,-0.00127810
 ,0.00510295,-0.00441595,0.00666123,-0.01053222,-0.02090171,-0.05444150
 ,0.00871204,0.00059724,0.00566668,0.00601314,0.01995467,-0.00397985,0.
 00350987,0.00175857,0.00000979,-0.00000043,-0.00000847,0.00000296,-0.0
 0000175,0.00000335,0.00000411,0.00000759,0.00000431,-0.00000961,0.0000
 0672,0.00001241,0.00004316,0.00005066,0.00002211,0.00001425,0.00002560
 ,0.00003820,0.00004928,0.00011675,-0.00005358,0.00001636,-0.00000577,-
 0.00001233,0.00001415,-0.00001009,-0.00002603,-0.00006867,0.00008743,0
 .00047213,-0.00027681,-0.00158841,0.00161927,0.04637414,-0.00000489,-0
 .00000169,-0.00000358,-0.00002044,0.00000378,-0.00000051,-0.00000184,0
 .00001761,0.00002534,0.00000043,-0.00013143,-0.00002596,-0.00022949,0.
 00009008,-0.00004368,0.00009560,0.00027094,-0.00009520,0.00017593,-0.0
 0156321,-0.00132292,0.00522483,0.00860989,-0.00325662,0.00071466,0.004
 66380,0.00368740,0.00812995,-0.08958914,-0.11109239,-0.00408998,-0.002
 36715,-0.01143369,0.00300946,-0.00052952,-0.00161103,0.00000939,-0.000
 00550,-0.00000189,0.00000889,0.00000703,-0.00000047,-0.00000135,-0.000
 00121,0.00000210,-0.00000050,-0.00000056,-0.00000149,-0.00000140,-0.00
 000466,-0.00001170,-0.00000094,-0.00000407,0.00005291,0.00003698,0.000
 08595,-0.00004279,0.00001888,-0.00000526,-0.00000511,-0.00000205,-0.00
 001016,-0.00003734,-0.00084393,0.00095214,0.00206972,-0.00203112,-0.00
 329656,0.00133677,-0.00984249,0.08269585,-0.00000529,-0.00000157,-0.00
 001278,0.00000305,0.00001483,0.00001229,-0.00002665,0.00008417,-0.0000
 1598,-0.00003157,-0.00005368,-0.00008083,0.00001827,0.00001028,-0.0000
 3806,0.00013245,0.00011664,-0.00001001,-0.00040269,-0.00009380,0.00024
 061,-0.00364308,-0.00319033,0.00033792,0.00602985,-0.00937206,-0.01114
 111,-0.00117058,-0.11050992,-0.29412306,-0.00378946,0.00070751,-0.0024
 9509,-0.00009510,-0.00087266,-0.00037745,0.00000846,-0.00000191,0.0000
 0712,0.00001106,0.00000860,-0.00000555,0.00000380,-0.00000987,0.000003
 15,0.00000016,-0.00001116,0.00000358,0.00000777,-0.00005824,-0.0000061
 1,-0.00000024,0.00006451,-0.00001217,-0.00000363,0.00003532,-0.0000125
 0,0.00001191,0.00003075,-0.00002465,0.00001306,-0.00000065,0.00001449,
 0.00022874,-0.00055947,-0.00140339,0.00056361,0.00184640,-0.00003381,0
 .00177582,0.12211972,0.30923857,-0.00000804,0.00000171,-0.00001463,0.0
 0001998,-0.00000633,0.00000412,-0.00005955,0.00001777,-0.00001911,-0.0
 0007560,-0.00005287,-0.00000285,0.00006569,-0.00005670,-0.00014693,0.0
 0015128,0.00023653,-0.00005662,-0.00133132,-0.00027668,-0.00020525,0.0
 0230795,0.00459625,-0.00180541,-0.00254105,0.00251442,0.00096488,-0.00
 871438,-0.00068723,-0.01232283,-0.25682991,0.05739233,-0.12248561,-0.0
 0063658,0.00254950,0.00146969,0.00001298,-0.00000313,-0.00000195,0.000
 01239,0.00000483,0.00000067,0.00000670,-0.00000162,0.00000828,-0.00000
 132,-0.00000387,0.00001203,0.00001844,0.00000124,0.00000370,0.00001531
 ,-0.00001277,0.00000790,0.00000129,0.00003748,0.00000125,0.00001877,0.
 00006102,-0.00005055,-0.00001725,0.00000870,-0.00000853,0.00091506,-0.
 00059101,0.00009955,-0.00039728,0.00011653,-0.00087874,0.00017785,-0.0
 0016620,0.00052052,0.26739419,0.00000858,-0.00000031,0.00004073,-0.000
 03742,-0.00000419,-0.00006175,0.00007134,0.00000871,0.00015926,-0.0000
 1405,-0.00007747,-0.00009602,0.00018991,-0.00015620,-0.00023631,0.0001
 5143,0.00023144,-0.00017937,-0.00274211,0.00018366,0.00019995,0.004101
 83,0.00795918,-0.00587133,0.00320090,-0.00071829,-0.00164599,0.0093244
 2,0.00002096,0.01008346,0.05818244,-0.05604629,0.02385828,-0.00902435,
 0.00583322,-0.00486023,0.00000353,-0.00000262,-0.00001692,0.00000292,0
 .00000401,-0.00000638,-0.00001263,0.00000428,-0.00000209,0.00000838,-0
 .00000001,-0.00001195,0.00001453,-0.00003121,-0.00001238,0.00000665,0.
 00003421,0.00000167,-0.00001461,0.00001164,0.00002272,0.00002671,0.000
 11537,-0.00005533,-0.00003236,0.00000985,-0.00002739,0.00166339,-0.000
 84058,0.00073718,0.00078915,0.00057839,0.00051737,-0.00066518,-0.00023
 016,-0.00006365,-0.06368656,0.04635597,-0.00002157,-0.00001099,-0.0000
 5542,0.00004438,-0.00000252,0.00003000,-0.00011572,0.00004000,-0.00012
 736,-0.00004090,-0.00004921,-0.00004354,0.00003651,-0.00003292,-0.0000
 7355,0.00007747,0.00018637,-0.00005719,-0.00027582,-0.00030934,0.00019
 602,-0.00205105,-0.00524752,-0.00259052,0.00252587,-0.00272869,-0.0016
 2293,0.01156035,-0.00191474,0.00936136,-0.12106198,0.02282915,-0.12481
 436,-0.02494344,0.00887196,-0.00518868,0.00001883,-0.00000007,-0.00000
 258,0.00001383,-0.00000773,0.00001580,0.00002246,0.00001598,0.00002115
 ,-0.00000293,0.00000104,0.00002822,0.00000780,0.00002435,0.00003114,0.
 00002109,0.00004120,0.00000631,0.00000146,0.00002996,-0.00001580,0.000
 03005,0.00004390,-0.00003328,-0.00000301,0.00001665,0.00002566,-0.0015
 5742,0.00069464,-0.00056920,0.00049736,-0.00007666,0.00096752,-0.00072
 156,0.00058106,-0.00005384,0.13446961,-0.02444437,0.12440146,0.0000115
 6,-0.00001223,0.00001971,0.00006372,-0.00002248,-0.00004875,-0.0000701
 8,-0.00007488,0.00006788,-0.00006486,0.00012424,-0.00017122,-0.0000218
 9,0.00003559,-0.00010422,0.00010563,-0.00000451,-0.00059186,0.00036097
 ,-0.00065414,0.00113130,-0.00654093,0.01092701,0.01670886,-0.00438334,
 0.00057693,-0.00196451,0.00072499,0.00229625,-0.00281403,0.00814187,-0
 .00561352,-0.00786102,-0.14273199,0.09947897,0.09988813,0.00000109,-0.
 00000062,0.00000518,-0.00001269,0.00000608,-0.00000922,-0.00000989,-0.
 00001424,-0.00001544,-0.00001378,0.00001849,-0.00000577,0.00001411,-0.
 00001053,0.00000878,-0.00002194,-0.00003562,0.00001077,-0.00000119,0.0
 0001068,-0.00002169,0.00001905,0.00004525,-0.00004679,-0.00005577,0.00
 000822,0.00000499,0.00060913,-0.00072390,0.00010905,0.00039184,0.00144
 247,0.00103340,0.00080886,-0.00018838,-0.00016024,-0.00050560,-0.00151
 682,0.00146832,0.14318121,-0.00001643,0.00004075,0.00003705,-0.0002395
 3,0.00007429,0.00006260,0.00024415,0.00010963,0.00014653,0.00027338,-0
 .00012934,0.00002665,-0.00001413,-0.00002640,0.00006350,-0.00007574,-0
 .00006170,0.00041745,-0.00067203,0.00085609,-0.00136281,-0.00055606,-0
 .00357130,-0.00379633,0.00055029,-0.00067409,0.00082517,0.00180463,0.0
 0504830,-0.00375347,0.00628239,0.00019051,-0.00148942,0.09813105,-0.12
 461790,-0.10839878,-0.00000301,-0.00002248,0.00001528,0.00002463,0.000
 03026,-0.00001875,-0.00002736,-0.00003027,-0.00002156,0.00001753,-0.00
 003507,-0.00005317,-0.00010251,-0.00016989,-0.00021175,-0.00005622,0.0
 0003368,-0.00000307,-0.00002274,-0.00002201,0.00001477,0.00000792,-0.0
 0002703,0.00006232,0.00000748,-0.00002934,-0.00001948,0.00124120,0.000
 05392,0.00013529,0.00076950,0.00142884,-0.00098643,0.00052319,0.000343
 21,-0.00023977,-0.00199330,-0.00324357,0.00144853,-0.10609828,0.124450
 89,0.00001629,0.00000625,0.00001869,0.00003815,-0.00000415,-0.00002060
 ,-0.00004076,0.00003212,0.00001211,-0.00002216,0.00006518,-0.00006355,
 -0.00000266,0.00004036,0.00000549,0.00007528,-0.00018903,-0.00031388,0
 .00082187,-0.00051517,0.00148581,-0.00548393,0.00741188,0.00658323,-0.
 00275922,0.00105908,-0.00128700,-0.00295325,-0.00337446,-0.00361537,0.
 01875046,-0.01423866,-0.00726574,0.09687843,-0.10773065,-0.16616943,0.
 00000440,0.00000588,-0.00000135,-0.00000856,-0.00000560,-0.00000656,-0
 .00000542,-0.00000747,-0.00001139,-0.00001103,0.00000864,-0.00000613,0
 .00001660,0.00001642,-0.00000503,-0.00000657,-0.00001874,0.00000011,-0
 .00000471,-0.00001894,-0.00000917,-0.00001228,-0.00000100,-0.00000999,
 -0.00003666,0.00000759,0.00001162,0.00012984,-0.00043321,0.00018479,-0
 .00034242,-0.00029817,0.00107330,0.00116312,-0.00088865,-0.00001134,0.
 00043679,0.00197085,0.00016361,-0.10664162,0.11709964,0.16925778\\-0.0
 0000525,0.00001303,-0.00000078,0.00000472,-0.00000724,0.00000352,0.000
 00250,0.00000033,-0.00000584,-0.00000571,0.00001273,0.00000978,0.00002
 027,-0.00001139,-0.00001025,-0.00000495,0.00001092,0.00000755,-0.00000
 700,-0.00002244,0.00000356,0.00000401,0.00001199,-0.00002028,0.0000050
 7,0.00000334,0.00000966,-0.00000527,-0.00000379,-0.00000066,0.00000119
 ,0.00000127,-0.00000519,0.00000178,-0.00000003,0.00000911,-0.00000067,
 -0.00000329,-0.00000098,0.00000091,-0.00000304,-0.00000011,-0.00000033
 ,-0.00000227,0.00000110,-0.00000102,0.00000125,-0.00000140,0.00000053,
 0.00000280,0.00000153,-0.00000054,-0.00000593,-0.00000018,-0.00000454,
 0.00000382,0.00000323,-0.00000787,0.00000594,-0.00000056,0.00000186,-0
 .00000143,-0.00000224,-0.00000065,-0.00000447,0.00000248,0.00000095,0.
 00000027,-0.00000279,-0.00000004,-0.00000129,0.00000074,0.00000067,-0.
 00000173,-0.00000002,-0.00000063,0.00000066,-0.00000098\\\@


 EXPERIMENTALISTS THINK SILICON IS REALLY FUN TO USE
     ITS PLACE IN NOVEL COMPOUNDS IS CERTAIN TO AMUSE
 THEY SIT ALL DAY IN LABORATORIES MAKING ALL THIS SLUDGE
     "LOADED WITH THE SILICON THEY SAY", TO ME IT LOOKS LIKE FUDGE.
 FOR HAPPY THOUGH THEY BE WITH CRUD, I'D LIKE TO KNOW A LITTLE
      ABOUT THE PI BONDS ON THE EDGE AND SIGMAS IN THE MIDDLE.

 SO LETS DERIVE A WAVEFUNCTION.....6-31G*
     USE AN OPTIMAL GEOMETRY AND SEE WHERE ELECTRONS ARE.
 BUT WHAT OF CORRELATION?  ASKS THE WIRY LITTLE SKEPTIC.
     WE'LL THROW IN PERTURBATION AS AN ELECTRON ANTISEPTIC.
 AND WHEN THE PROGRAM GIVES US ANSWERS IN THEM WE CAN TRUST
     SINCE NOBODY CAN MAKE THE STUFF, WE HAVE NO CHOICE, WE MUST.

 SO THEORY GUYS HAVE GOT IT MADE, IN ROOMS FREE OF POLLUTION.
     INSTEAD OF PROBLEMS WITH THE REFLUX, THEY HAVE ONLY SOLUTIONS.
 AND WHEN THE FEDS ANNOUNCE THE LIST OF CARCINOGENIC TERRORS,
     THE THEORISTS SIT SAFELY AT THEIR TERMINALS FIXING ERRORS.
 IN OTHER WORDS, EXPERIMENTALISTS WILL LIKELY DIE OF CANCER
     FROM WORKING HARD YET FRUITLESSLY...TILL THEORY GIVES THE ANSWER.
          -- THOMAS A. HOLME, 1983
 Job cpu time:       0 days  4 hours 41 minutes 47.3 seconds.
 Elapsed time:       0 days  1 hours 10 minutes 28.8 seconds.
 File lengths (MBytes):  RWF=    306 Int=      0 D2E=      0 Chk=     15 Scr=      1
 Normal termination of Gaussian 16 at Mon May 22 20:06:22 2023.
### All Done ###
