### Starting Gaussian ###
 Entering Gaussian System, Link 0=g16
 Initial command:
 /cluster/software/gaussian/gaussian-16-A.03/avx2/g16/l1.exe "/local/scratch/cz9n3/Gau-18117.inp" -scrdir="/local/scratch/cz9n3/"
 Entering Link 1 = /cluster/software/gaussian/gaussian-16-A.03/avx2/g16/l1.exe PID=     18118.
  
 Copyright (c) 1988,1990,1992,1993,1995,1998,2003,2009,2016,
            Gaussian, Inc.  All Rights Reserved.
  
 This is part of the Gaussian(R) 16 program.  It is based on
 the Gaussian(R) 09 system (copyright 2009, Gaussian, Inc.),
 the Gaussian(R) 03 system (copyright 2003, Gaussian, Inc.),
 the Gaussian(R) 98 system (copyright 1998, Gaussian, Inc.),
 the Gaussian(R) 94 system (copyright 1995, Gaussian, Inc.),
 the Gaussian 92(TM) system (copyright 1992, Gaussian, Inc.),
 the Gaussian 90(TM) system (copyright 1990, Gaussian, Inc.),
 the Gaussian 88(TM) system (copyright 1988, Gaussian, Inc.),
 the Gaussian 86(TM) system (copyright 1986, Carnegie Mellon
 University), and the Gaussian 82(TM) system (copyright 1983,
 Carnegie Mellon University). Gaussian is a federally registered
 trademark of Gaussian, Inc.
  
 This software contains proprietary and confidential information,
 including trade secrets, belonging to Gaussian, Inc.
  
 This software is provided under written license and may be
 used, copied, transmitted, or stored only in accord with that
 written license.
  
 The following legend is applicable only to US Government
 contracts under FAR:
  
                    RESTRICTED RIGHTS LEGEND
  
 Use, reproduction and disclosure by the US Government is
 subject to restrictions as set forth in subparagraphs (a)
 and (c) of the Commercial Computer Software - Restricted
 Rights clause in FAR 52.227-19.
  
 Gaussian, Inc.
 340 Quinnipiac St., Bldg. 40, Wallingford CT 06492
  
  
 ---------------------------------------------------------------
 Warning -- This program may not be used in any manner that
 competes with the business of Gaussian, Inc. or will provide
 assistance to any competitor of Gaussian, Inc.  The licensee
 of this program is prohibited from giving any competitor of
 Gaussian, Inc. access to this program.  By using this program,
 the user acknowledges that Gaussian, Inc. is engaged in the
 business of creating and licensing software in the field of
 computational chemistry and represents and warrants to the
 licensee that it is not a competitor of Gaussian, Inc. and that
 it will not use this program in any manner prohibited above.
 ---------------------------------------------------------------
  

 Cite this work as:
 Gaussian 16, Revision A.03,
 M. J. Frisch, G. W. Trucks, H. B. Schlegel, G. E. Scuseria, 
 M. A. Robb, J. R. Cheeseman, G. Scalmani, V. Barone, 
 G. A. Petersson, H. Nakatsuji, X. Li, M. Caricato, A. V. Marenich, 
 J. Bloino, B. G. Janesko, R. Gomperts, B. Mennucci, H. P. Hratchian, 
 J. V. Ortiz, A. F. Izmaylov, J. L. Sonnenberg, D. Williams-Young, 
 F. Ding, F. Lipparini, F. Egidi, J. Goings, B. Peng, A. Petrone, 
 T. Henderson, D. Ranasinghe, V. G. Zakrzewski, J. Gao, N. Rega, 
 G. Zheng, W. Liang, M. Hada, M. Ehara, K. Toyota, R. Fukuda, 
 J. Hasegawa, M. Ishida, T. Nakajima, Y. Honda, O. Kitao, H. Nakai, 
 T. Vreven, K. Throssell, J. A. Montgomery, Jr., J. E. Peralta, 
 F. Ogliaro, M. J. Bearpark, J. J. Heyd, E. N. Brothers, K. N. Kudin, 
 V. N. Staroverov, T. A. Keith, R. Kobayashi, J. Normand, 
 K. Raghavachari, A. P. Rendell, J. C. Burant, S. S. Iyengar, 
 J. Tomasi, M. Cossi, J. M. Millam, M. Klene, C. Adamo, R. Cammi, 
 J. W. Ochterski, R. L. Martin, K. Morokuma, O. Farkas, 
 J. B. Foresman, and D. J. Fox, Gaussian, Inc., Wallingford CT, 2016.
 
 ******************************************
 Gaussian 16:  ES64L-G16RevA.03 25-Dec-2016
                24-May-2023 
 ******************************************
 %chk=CCdCCCCdC1CCCCCCCCC1.chk
 %NProcShared=20
 Will use up to   20 processors via shared memory.
 -----------------------------
 # opt freq b3lyp/6-31g(2df,p)
 -----------------------------
 1/18=20,19=15,26=3,38=1/1,3;
 2/9=110,12=2,17=6,18=5,40=1/2;
 3/5=1,6=6,7=104,11=2,25=1,30=1,71=1,74=-5/1,2,3;
 4//1;
 5/5=2,38=5/2;
 6/7=2,8=2,9=2,10=2,28=1/1;
 7//1,2,3,16;
 1/18=20,19=15,26=3/3(2);
 2/9=110/2;
 99//99;
 2/9=110/2;
 3/5=1,6=6,7=104,11=2,25=1,30=1,71=1,74=-5/1,2,3;
 4/5=5,16=3,69=1/1;
 5/5=2,38=5/2;
 7//1,2,3,16;
 1/18=20,19=15,26=3/3(-5);
 2/9=110/2;
 6/7=2,8=2,9=2,10=2,19=2,28=1/1;
 99/9=1/99;
 -------------------
 Title Card Required
 -------------------
 Symbolic Z-matrix:
 Charge =  0 Multiplicity = 1
 C                     0.94647  -0.06241  -0.07433 
 C                     2.43348  -0.06176  -0.09574 
 C                     3.16939   0.65692   0.77401 
 C                     4.67121   0.66573   0.73301 
 C                     5.19549   1.55966   1.8431 
 C                     6.69748   1.6146    1.97392 
 C                     7.34896   2.36601   2.89131 
 C                     6.59915   3.24838   3.88576 
 C                     5.57149   2.49899   4.75601 
 C                     5.98676   2.18236   6.18561 
 C                     7.10437   1.13213   6.22576 
 C                     8.45959   1.82377   6.20348 
 C                     9.63906   0.88898   5.99526 
 C                     10.38573   1.19597   4.68571 
 C                     9.49779   1.06043   3.43268 
 C                     8.87226   2.39194   2.95669 
 H                     0.57111  -0.69871  -0.88125 
 H                     0.55634   0.94806  -0.23173 
 H                     0.56601  -0.45498   0.87364 
 H                     2.93625  -0.65727  -0.8482 
 H                     2.6602    1.24207   1.53695 
 H                     5.02984   1.02477  -0.23475 
 H                     5.0407   -0.35438   0.89763 
 H                     4.75625   1.11631   2.73497 
 H                     4.79739   2.57702   1.74214 
 H                     7.27288   0.99902   1.28535 
 H                     6.09268   4.03401   3.30937 
 H                     7.28113   3.81782   4.52429 
 H                     5.34385   1.51411   4.36196 
 H                     4.63052   3.06019   4.74957 
 H                     5.10687   1.769     6.69427 
 H                     6.26573   3.09955   6.71192 
 H                     7.00362   0.42927   5.38658 
 H                     7.01695   0.53396   7.13891 
 H                     8.58341   2.41993   7.11161 
 H                     8.47559   2.5582    5.41566 
 H                     9.32775  -0.16195   6.00498 
 H                     10.33113   1.02202   6.83474 
 H                     11.22519   0.49429   4.60803 
 H                     10.83049   2.19784   4.7384 
 H                     8.73162   0.29646   3.60954 
 H                     10.12168   0.67519   2.61609 
 H                     9.27307   2.64557   1.96587 
 H                     9.20433   3.22707   3.58537 
 

 GradGradGradGradGradGradGradGradGradGradGradGradGradGradGradGradGradGrad
 Berny optimization.
 Initialization pass.
                           ----------------------------
                           !    Initial Parameters    !
                           ! (Angstroms and Degrees)  !
 --------------------------                            --------------------------
 ! Name  Definition              Value          Derivative Info.                !
 --------------------------------------------------------------------------------
 ! R1    R(1,2)                  1.4872         estimate D2E/DX2                !
 ! R2    R(1,17)                 1.094          estimate D2E/DX2                !
 ! R3    R(1,18)                 1.0945         estimate D2E/DX2                !
 ! R4    R(1,19)                 1.0943         estimate D2E/DX2                !
 ! R5    R(2,3)                  1.347          estimate D2E/DX2                !
 ! R6    R(2,20)                 1.0833         estimate D2E/DX2                !
 ! R7    R(3,4)                  1.5024         estimate D2E/DX2                !
 ! R8    R(3,21)                 1.088          estimate D2E/DX2                !
 ! R9    R(4,5)                  1.5186         estimate D2E/DX2                !
 ! R10   R(4,22)                 1.0927         estimate D2E/DX2                !
 ! R11   R(4,23)                 1.0974         estimate D2E/DX2                !
 ! R12   R(5,6)                  1.5087         estimate D2E/DX2                !
 ! R13   R(5,24)                 1.0885         estimate D2E/DX2                !
 ! R14   R(5,25)                 1.0971         estimate D2E/DX2                !
 ! R15   R(6,7)                  1.353          estimate D2E/DX2                !
 ! R16   R(6,26)                 1.0882         estimate D2E/DX2                !
 ! R17   R(7,8)                  1.5263         estimate D2E/DX2                !
 ! R18   R(7,16)                 1.5249         estimate D2E/DX2                !
 ! R19   R(8,9)                  1.5411         estimate D2E/DX2                !
 ! R20   R(8,27)                 1.0982         estimate D2E/DX2                !
 ! R21   R(8,28)                 1.0941         estimate D2E/DX2                !
 ! R22   R(9,10)                 1.522          estimate D2E/DX2                !
 ! R23   R(9,29)                 1.0849         estimate D2E/DX2                !
 ! R24   R(9,30)                 1.0956         estimate D2E/DX2                !
 ! R25   R(10,11)                1.5342         estimate D2E/DX2                !
 ! R26   R(10,31)                1.0972         estimate D2E/DX2                !
 ! R27   R(10,32)                1.0936         estimate D2E/DX2                !
 ! R28   R(11,12)                1.5217         estimate D2E/DX2                !
 ! R29   R(11,33)                1.0993         estimate D2E/DX2                !
 ! R30   R(11,34)                1.0951         estimate D2E/DX2                !
 ! R31   R(12,13)                1.5193         estimate D2E/DX2                !
 ! R32   R(12,35)                1.0934         estimate D2E/DX2                !
 ! R33   R(12,36)                1.0772         estimate D2E/DX2                !
 ! R34   R(13,14)                1.5384         estimate D2E/DX2                !
 ! R35   R(13,37)                1.0961         estimate D2E/DX2                !
 ! R36   R(13,38)                1.0961         estimate D2E/DX2                !
 ! R37   R(14,15)                1.5417         estimate D2E/DX2                !
 ! R38   R(14,39)                1.0969         estimate D2E/DX2                !
 ! R39   R(14,40)                1.0974         estimate D2E/DX2                !
 ! R40   R(15,16)                1.5462         estimate D2E/DX2                !
 ! R41   R(15,41)                1.0963         estimate D2E/DX2                !
 ! R42   R(15,42)                1.0975         estimate D2E/DX2                !
 ! R43   R(16,43)                1.0985         estimate D2E/DX2                !
 ! R44   R(16,44)                1.0968         estimate D2E/DX2                !
 ! A1    A(2,1,17)             109.4327         estimate D2E/DX2                !
 ! A2    A(2,1,18)             110.7273         estimate D2E/DX2                !
 ! A3    A(2,1,19)             111.1164         estimate D2E/DX2                !
 ! A4    A(17,1,18)            107.9738         estimate D2E/DX2                !
 ! A5    A(17,1,19)            108.1198         estimate D2E/DX2                !
 ! A6    A(18,1,19)            109.3802         estimate D2E/DX2                !
 ! A7    A(1,2,3)              122.4929         estimate D2E/DX2                !
 ! A8    A(1,2,20)             118.2817         estimate D2E/DX2                !
 ! A9    A(3,2,20)             119.2229         estimate D2E/DX2                !
 ! A10   A(2,3,4)              122.1143         estimate D2E/DX2                !
 ! A11   A(2,3,21)             118.9487         estimate D2E/DX2                !
 ! A12   A(4,3,21)             118.9341         estimate D2E/DX2                !
 ! A13   A(3,4,5)              109.1837         estimate D2E/DX2                !
 ! A14   A(3,4,22)             110.742          estimate D2E/DX2                !
 ! A15   A(3,4,23)             109.0883         estimate D2E/DX2                !
 ! A16   A(5,4,22)             109.9171         estimate D2E/DX2                !
 ! A17   A(5,4,23)             108.7412         estimate D2E/DX2                !
 ! A18   A(22,4,23)            109.1343         estimate D2E/DX2                !
 ! A19   A(4,5,6)              115.3736         estimate D2E/DX2                !
 ! A20   A(4,5,24)             102.7006         estimate D2E/DX2                !
 ! A21   A(4,5,25)             110.6895         estimate D2E/DX2                !
 ! A22   A(6,5,24)             110.213          estimate D2E/DX2                !
 ! A23   A(6,5,25)             109.6004         estimate D2E/DX2                !
 ! A24   A(24,5,25)            107.8577         estimate D2E/DX2                !
 ! A25   A(5,6,7)              123.9443         estimate D2E/DX2                !
 ! A26   A(5,6,26)             116.8051         estimate D2E/DX2                !
 ! A27   A(7,6,26)             119.2484         estimate D2E/DX2                !
 ! A28   A(6,7,8)              121.7538         estimate D2E/DX2                !
 ! A29   A(6,7,16)             121.299          estimate D2E/DX2                !
 ! A30   A(8,7,16)             116.9337         estimate D2E/DX2                !
 ! A31   A(7,8,9)              114.4804         estimate D2E/DX2                !
 ! A32   A(7,8,27)             107.3477         estimate D2E/DX2                !
 ! A33   A(7,8,28)             112.0185         estimate D2E/DX2                !
 ! A34   A(9,8,27)             109.6775         estimate D2E/DX2                !
 ! A35   A(9,8,28)             109.8266         estimate D2E/DX2                !
 ! A36   A(27,8,28)            102.7943         estimate D2E/DX2                !
 ! A37   A(8,9,10)             116.72           estimate D2E/DX2                !
 ! A38   A(8,9,29)             112.101          estimate D2E/DX2                !
 ! A39   A(8,9,30)             108.6815         estimate D2E/DX2                !
 ! A40   A(10,9,29)            102.096          estimate D2E/DX2                !
 ! A41   A(10,9,30)            110.268          estimate D2E/DX2                !
 ! A42   A(29,9,30)            106.418          estimate D2E/DX2                !
 ! A43   A(9,10,11)            111.4544         estimate D2E/DX2                !
 ! A44   A(9,10,31)            107.1593         estimate D2E/DX2                !
 ! A45   A(9,10,32)            110.3135         estimate D2E/DX2                !
 ! A46   A(11,10,31)           108.3107         estimate D2E/DX2                !
 ! A47   A(11,10,32)           112.0672         estimate D2E/DX2                !
 ! A48   A(31,10,32)           107.3025         estimate D2E/DX2                !
 ! A49   A(10,11,12)           109.7101         estimate D2E/DX2                !
 ! A50   A(10,11,33)           110.5459         estimate D2E/DX2                !
 ! A51   A(10,11,34)           109.7299         estimate D2E/DX2                !
 ! A52   A(12,11,33)           111.1658         estimate D2E/DX2                !
 ! A53   A(12,11,34)           109.3642         estimate D2E/DX2                !
 ! A54   A(33,11,34)           106.2596         estimate D2E/DX2                !
 ! A55   A(11,12,13)           114.4404         estimate D2E/DX2                !
 ! A56   A(11,12,35)           109.6656         estimate D2E/DX2                !
 ! A57   A(11,12,36)           109.502          estimate D2E/DX2                !
 ! A58   A(13,12,35)           111.1857         estimate D2E/DX2                !
 ! A59   A(13,12,36)           107.9226         estimate D2E/DX2                !
 ! A60   A(35,12,36)           103.5343         estimate D2E/DX2                !
 ! A61   A(12,13,14)           111.757          estimate D2E/DX2                !
 ! A62   A(12,13,37)           111.6051         estimate D2E/DX2                !
 ! A63   A(12,13,38)           108.0908         estimate D2E/DX2                !
 ! A64   A(14,13,37)           109.6772         estimate D2E/DX2                !
 ! A65   A(14,13,38)           108.7406         estimate D2E/DX2                !
 ! A66   A(37,13,38)           106.7927         estimate D2E/DX2                !
 ! A67   A(13,14,15)           113.2514         estimate D2E/DX2                !
 ! A68   A(13,14,39)           107.7033         estimate D2E/DX2                !
 ! A69   A(13,14,40)           109.7557         estimate D2E/DX2                !
 ! A70   A(15,14,39)           109.0861         estimate D2E/DX2                !
 ! A71   A(15,14,40)           110.6525         estimate D2E/DX2                !
 ! A72   A(39,14,40)           106.0961         estimate D2E/DX2                !
 ! A73   A(14,15,16)           114.0474         estimate D2E/DX2                !
 ! A74   A(14,15,41)           109.4295         estimate D2E/DX2                !
 ! A75   A(14,15,42)           107.9498         estimate D2E/DX2                !
 ! A76   A(16,15,41)           111.5318         estimate D2E/DX2                !
 ! A77   A(16,15,42)           107.6503         estimate D2E/DX2                !
 ! A78   A(41,15,42)           105.8251         estimate D2E/DX2                !
 ! A79   A(7,16,15)            113.7459         estimate D2E/DX2                !
 ! A80   A(7,16,43)            109.2528         estimate D2E/DX2                !
 ! A81   A(7,16,44)            109.8748         estimate D2E/DX2                !
 ! A82   A(15,16,43)           109.201          estimate D2E/DX2                !
 ! A83   A(15,16,44)           110.9013         estimate D2E/DX2                !
 ! A84   A(43,16,44)           103.3405         estimate D2E/DX2                !
 ! D1    D(17,1,2,3)           178.8504         estimate D2E/DX2                !
 ! D2    D(17,1,2,20)           -0.5742         estimate D2E/DX2                !
 ! D3    D(18,1,2,3)            59.9446         estimate D2E/DX2                !
 ! D4    D(18,1,2,20)         -119.4799         estimate D2E/DX2                !
 ! D5    D(19,1,2,3)           -61.8235         estimate D2E/DX2                !
 ! D6    D(19,1,2,20)          118.752          estimate D2E/DX2                !
 ! D7    D(1,2,3,4)           -179.164          estimate D2E/DX2                !
 ! D8    D(1,2,3,21)             1.4549         estimate D2E/DX2                !
 ! D9    D(20,2,3,4)             0.2553         estimate D2E/DX2                !
 ! D10   D(20,2,3,21)         -179.1258         estimate D2E/DX2                !
 ! D11   D(2,3,4,5)           -179.632          estimate D2E/DX2                !
 ! D12   D(2,3,4,22)            59.2068         estimate D2E/DX2                !
 ! D13   D(2,3,4,23)           -60.9221         estimate D2E/DX2                !
 ! D14   D(21,3,4,5)            -0.2508         estimate D2E/DX2                !
 ! D15   D(21,3,4,22)         -121.412          estimate D2E/DX2                !
 ! D16   D(21,3,4,23)          118.4591         estimate D2E/DX2                !
 ! D17   D(3,4,5,6)            177.0341         estimate D2E/DX2                !
 ! D18   D(3,4,5,24)            57.1083         estimate D2E/DX2                !
 ! D19   D(3,4,5,25)           -57.7975         estimate D2E/DX2                !
 ! D20   D(22,4,5,6)           -61.3043         estimate D2E/DX2                !
 ! D21   D(22,4,5,24)          178.7699         estimate D2E/DX2                !
 ! D22   D(22,4,5,25)           63.864          estimate D2E/DX2                !
 ! D23   D(23,4,5,6)            58.1079         estimate D2E/DX2                !
 ! D24   D(23,4,5,24)          -61.8178         estimate D2E/DX2                !
 ! D25   D(23,4,5,25)         -176.7237         estimate D2E/DX2                !
 ! D26   D(4,5,6,7)            179.1999         estimate D2E/DX2                !
 ! D27   D(4,5,6,26)            -1.3473         estimate D2E/DX2                !
 ! D28   D(24,5,6,7)           -65.0836         estimate D2E/DX2                !
 ! D29   D(24,5,6,26)          114.3692         estimate D2E/DX2                !
 ! D30   D(25,5,6,7)            53.4704         estimate D2E/DX2                !
 ! D31   D(25,5,6,26)         -127.0769         estimate D2E/DX2                !
 ! D32   D(5,6,7,8)             -0.4682         estimate D2E/DX2                !
 ! D33   D(5,6,7,16)          -179.0902         estimate D2E/DX2                !
 ! D34   D(26,6,7,8)          -179.9084         estimate D2E/DX2                !
 ! D35   D(26,6,7,16)            1.4696         estimate D2E/DX2                !
 ! D36   D(6,7,8,9)             56.571          estimate D2E/DX2                !
 ! D37   D(6,7,8,27)           -65.4242         estimate D2E/DX2                !
 ! D38   D(6,7,8,28)          -177.5465         estimate D2E/DX2                !
 ! D39   D(16,7,8,9)          -124.7497         estimate D2E/DX2                !
 ! D40   D(16,7,8,27)          113.2551         estimate D2E/DX2                !
 ! D41   D(16,7,8,28)            1.1329         estimate D2E/DX2                !
 ! D42   D(6,7,16,15)          -68.7152         estimate D2E/DX2                !
 ! D43   D(6,7,16,43)           53.5772         estimate D2E/DX2                !
 ! D44   D(6,7,16,44)          166.292          estimate D2E/DX2                !
 ! D45   D(8,7,16,15)          112.599          estimate D2E/DX2                !
 ! D46   D(8,7,16,43)         -125.1086         estimate D2E/DX2                !
 ! D47   D(8,7,16,44)          -12.3937         estimate D2E/DX2                !
 ! D48   D(7,8,9,10)           102.1687         estimate D2E/DX2                !
 ! D49   D(7,8,9,29)           -15.0651         estimate D2E/DX2                !
 ! D50   D(7,8,9,30)          -132.4088         estimate D2E/DX2                !
 ! D51   D(27,8,9,10)         -137.1165         estimate D2E/DX2                !
 ! D52   D(27,8,9,29)          105.6497         estimate D2E/DX2                !
 ! D53   D(27,8,9,30)          -11.6941         estimate D2E/DX2                !
 ! D54   D(28,8,9,10)          -24.8485         estimate D2E/DX2                !
 ! D55   D(28,8,9,29)         -142.0823         estimate D2E/DX2                !
 ! D56   D(28,8,9,30)          100.574          estimate D2E/DX2                !
 ! D57   D(8,9,10,11)          -68.656          estimate D2E/DX2                !
 ! D58   D(8,9,10,31)          173.0087         estimate D2E/DX2                !
 ! D59   D(8,9,10,32)           56.5075         estimate D2E/DX2                !
 ! D60   D(29,9,10,11)          53.9369         estimate D2E/DX2                !
 ! D61   D(29,9,10,31)         -64.3985         estimate D2E/DX2                !
 ! D62   D(29,9,10,32)         179.1003         estimate D2E/DX2                !
 ! D63   D(30,9,10,11)         166.7221         estimate D2E/DX2                !
 ! D64   D(30,9,10,31)          48.3868         estimate D2E/DX2                !
 ! D65   D(30,9,10,32)         -68.1144         estimate D2E/DX2                !
 ! D66   D(9,10,11,12)          90.7411         estimate D2E/DX2                !
 ! D67   D(9,10,11,33)         -32.2061         estimate D2E/DX2                !
 ! D68   D(9,10,11,34)        -149.083          estimate D2E/DX2                !
 ! D69   D(31,10,11,12)       -151.6165         estimate D2E/DX2                !
 ! D70   D(31,10,11,33)         85.4364         estimate D2E/DX2                !
 ! D71   D(31,10,11,34)        -31.4406         estimate D2E/DX2                !
 ! D72   D(32,10,11,12)        -33.4394         estimate D2E/DX2                !
 ! D73   D(32,10,11,33)       -156.3866         estimate D2E/DX2                !
 ! D74   D(32,10,11,34)         86.7365         estimate D2E/DX2                !
 ! D75   D(10,11,12,13)       -169.8326         estimate D2E/DX2                !
 ! D76   D(10,11,12,35)         64.4373         estimate D2E/DX2                !
 ! D77   D(10,11,12,36)        -48.5307         estimate D2E/DX2                !
 ! D78   D(33,11,12,13)        -47.2525         estimate D2E/DX2                !
 ! D79   D(33,11,12,35)       -172.9826         estimate D2E/DX2                !
 ! D80   D(33,11,12,36)         74.0494         estimate D2E/DX2                !
 ! D81   D(34,11,12,13)         69.7691         estimate D2E/DX2                !
 ! D82   D(34,11,12,35)        -55.961          estimate D2E/DX2                !
 ! D83   D(34,11,12,36)       -168.929          estimate D2E/DX2                !
 ! D84   D(11,12,13,14)        116.863          estimate D2E/DX2                !
 ! D85   D(11,12,13,37)         -6.3669         estimate D2E/DX2                !
 ! D86   D(11,12,13,38)       -123.514          estimate D2E/DX2                !
 ! D87   D(35,12,13,14)       -118.2055         estimate D2E/DX2                !
 ! D88   D(35,12,13,37)        118.5645         estimate D2E/DX2                !
 ! D89   D(35,12,13,38)          1.4175         estimate D2E/DX2                !
 ! D90   D(36,12,13,14)         -5.304          estimate D2E/DX2                !
 ! D91   D(36,12,13,37)       -128.5339         estimate D2E/DX2                !
 ! D92   D(36,12,13,38)        114.3191         estimate D2E/DX2                !
 ! D93   D(12,13,14,15)        -59.8994         estimate D2E/DX2                !
 ! D94   D(12,13,14,39)        179.3878         estimate D2E/DX2                !
 ! D95   D(12,13,14,40)         64.3084         estimate D2E/DX2                !
 ! D96   D(37,13,14,15)         64.4165         estimate D2E/DX2                !
 ! D97   D(37,13,14,39)        -56.2963         estimate D2E/DX2                !
 ! D98   D(37,13,14,40)       -171.3756         estimate D2E/DX2                !
 ! D99   D(38,13,14,15)       -179.139          estimate D2E/DX2                !
 ! D100  D(38,13,14,39)         60.1482         estimate D2E/DX2                !
 ! D101  D(38,13,14,40)        -54.9312         estimate D2E/DX2                !
 ! D102  D(13,14,15,16)         95.2431         estimate D2E/DX2                !
 ! D103  D(13,14,15,41)        -30.4586         estimate D2E/DX2                !
 ! D104  D(13,14,15,42)       -145.1817         estimate D2E/DX2                !
 ! D105  D(39,14,15,16)       -144.8305         estimate D2E/DX2                !
 ! D106  D(39,14,15,41)         89.4678         estimate D2E/DX2                !
 ! D107  D(39,14,15,42)        -25.2553         estimate D2E/DX2                !
 ! D108  D(40,14,15,16)        -28.4747         estimate D2E/DX2                !
 ! D109  D(40,14,15,41)       -154.1764         estimate D2E/DX2                !
 ! D110  D(40,14,15,42)         91.1005         estimate D2E/DX2                !
 ! D111  D(14,15,16,7)        -122.3744         estimate D2E/DX2                !
 ! D112  D(14,15,16,43)        115.3047         estimate D2E/DX2                !
 ! D113  D(14,15,16,44)          2.0677         estimate D2E/DX2                !
 ! D114  D(41,15,16,7)           2.2118         estimate D2E/DX2                !
 ! D115  D(41,15,16,43)       -120.1091         estimate D2E/DX2                !
 ! D116  D(41,15,16,44)        126.6539         estimate D2E/DX2                !
 ! D117  D(42,15,16,7)         117.8815         estimate D2E/DX2                !
 ! D118  D(42,15,16,43)         -4.4394         estimate D2E/DX2                !
 ! D119  D(42,15,16,44)       -117.6763         estimate D2E/DX2                !
 --------------------------------------------------------------------------------
 Trust Radius=3.00D-01 FncErr=1.00D-07 GrdErr=1.00D-06 EigMax=2.50D+02 EigMin=1.00D-04
 Number of steps in this run=    257 maximum allowed number of steps=    264.
 GradGradGradGradGradGradGradGradGradGradGradGradGradGradGradGradGradGrad

                          Input orientation:                          
 ---------------------------------------------------------------------
 Center     Atomic      Atomic             Coordinates (Angstroms)
 Number     Number       Type             X           Y           Z
 ---------------------------------------------------------------------
      1          6           0        0.946470   -0.062410   -0.074330
      2          6           0        2.433480   -0.061760   -0.095740
      3          6           0        3.169390    0.656920    0.774010
      4          6           0        4.671210    0.665730    0.733010
      5          6           0        5.195490    1.559660    1.843100
      6          6           0        6.697480    1.614600    1.973920
      7          6           0        7.348960    2.366010    2.891310
      8          6           0        6.599150    3.248380    3.885760
      9          6           0        5.571490    2.498990    4.756010
     10          6           0        5.986760    2.182360    6.185610
     11          6           0        7.104370    1.132130    6.225760
     12          6           0        8.459590    1.823770    6.203480
     13          6           0        9.639060    0.888980    5.995260
     14          6           0       10.385730    1.195970    4.685710
     15          6           0        9.497790    1.060430    3.432680
     16          6           0        8.872260    2.391940    2.956690
     17          1           0        0.571110   -0.698710   -0.881250
     18          1           0        0.556340    0.948060   -0.231730
     19          1           0        0.566010   -0.454980    0.873640
     20          1           0        2.936250   -0.657270   -0.848200
     21          1           0        2.660200    1.242070    1.536950
     22          1           0        5.029840    1.024770   -0.234750
     23          1           0        5.040700   -0.354380    0.897630
     24          1           0        4.756250    1.116310    2.734970
     25          1           0        4.797390    2.577020    1.742140
     26          1           0        7.272880    0.999020    1.285350
     27          1           0        6.092680    4.034010    3.309370
     28          1           0        7.281130    3.817820    4.524290
     29          1           0        5.343850    1.514110    4.361960
     30          1           0        4.630520    3.060190    4.749570
     31          1           0        5.106870    1.769000    6.694270
     32          1           0        6.265730    3.099550    6.711920
     33          1           0        7.003620    0.429270    5.386580
     34          1           0        7.016950    0.533960    7.138910
     35          1           0        8.583410    2.419930    7.111610
     36          1           0        8.475590    2.558200    5.415660
     37          1           0        9.327750   -0.161950    6.004980
     38          1           0       10.331130    1.022020    6.834740
     39          1           0       11.225190    0.494290    4.608030
     40          1           0       10.830490    2.197840    4.738400
     41          1           0        8.731620    0.296460    3.609540
     42          1           0       10.121680    0.675190    2.616090
     43          1           0        9.273070    2.645570    1.965870
     44          1           0        9.204330    3.227070    3.585370
 ---------------------------------------------------------------------
                    Distance matrix (angstroms):
                    1          2          3          4          5
     1  C    0.000000
     2  C    1.487164   0.000000
     3  C    2.485657   1.347045   0.000000
     4  C    3.880164   2.494695   1.502405   0.000000
     5  C    4.935769   3.743902   2.462311   1.518644   0.000000
     6  C    6.331019   5.027462   3.847643   2.558512   1.508677
     7  C    7.462179   6.243275   4.987259   3.836607   2.527128
     8  C    7.654831   6.645463   5.306779   4.508533   2.999083
     9  C    7.161268   6.320129   5.001963   4.511749   3.083628
    10  C    8.344481   7.557594   6.288876   5.810481   4.457719
    11  C    8.890320   7.950091   6.740287   6.025620   4.799408
    12  C    9.970734   8.919047   7.669870   6.754178   5.453166
    13  C   10.644538   9.482857   8.316967   7.240211   6.118460
    14  C   10.646179   9.363890   8.226028   6.968553   5.928853
    15  C    9.310476   7.975809   6.876045   5.544356   4.613652
    16  C    8.833406   7.536303   6.348001   5.057012   3.930828
    17  H    1.094026   2.119234   3.365810   4.612846   5.822990
    18  H    1.094544   2.135857   2.815014   4.235869   5.118661
    19  H    1.094307   2.140505   2.832637   4.257750   5.141081
    20  H    2.216294   1.083331   2.100718   2.694558   4.154761
    21  H    2.689751   2.101678   1.088004   2.241127   2.573380
    22  H    4.228665   2.817970   2.148065   1.092742   2.151978
    23  H    4.218136   2.805353   2.130683   1.097382   2.140426
    24  H    4.878111   3.846561   2.564084   2.053801   1.088542
    25  H    5.009565   3.991119   2.697118   2.165016   1.097132
    26  H    6.557349   5.143195   4.149353   2.680457   2.222825
    27  H    7.396861   6.462186   5.135992   4.472529   3.012857
    28  H    8.736785   7.739220   6.400179   5.578634   4.078966
    29  H    6.442285   5.552000   4.282107   3.787014   2.523637
    30  H    6.825897   6.168516   4.869875   4.676307   3.319390
    31  H    8.153339   7.523492   6.327719   6.078127   4.856493
    32  H    9.183992   8.427589   7.128291   6.649311   5.217479
    33  H    8.170211   7.154238   6.002412   5.210735   4.135622
    34  H    9.446545   8.585059   7.438467   6.823153   5.693451
    35  H   10.776020   9.794198   8.519683   7.685640   6.322599
    36  H    9.679630   8.587596   7.301749   6.323129   4.951699
    37  H   10.354408   9.206508   8.121514   7.082520   6.112345
    38  H   11.703977  10.563096   9.389157   8.330231   7.181944
    39  H   11.308691   9.986431   8.923120   7.615762   6.718417
    40  H   11.223411   9.949094   8.762607   7.505148   6.367359
    41  H    8.620223   7.316009   6.253684   4.989761   4.149723
    42  H    9.589937   8.185691   7.192213   5.766602   5.064301
    43  H    8.990430   7.639363   6.529178   5.159150   4.221485
    44  H    9.612821   8.379223   7.136520   5.936800   4.678307
                    6          7          8          9         10
     6  C    0.000000
     7  C    1.353014   0.000000
     8  C    2.516751   1.526343   0.000000
     9  C    3.128901   2.579572   1.541105   0.000000
    10  C    4.308806   3.569556   2.607821   1.521992   0.000000
    11  C    4.298428   3.563824   3.195209   2.525508   1.534160
    12  C    4.586716   3.535250   3.295842   3.300335   2.498759
    13  C    5.034937   4.130458   4.388372   4.546757   3.879222
    14  C    4.596982   3.716293   4.380696   4.987956   4.751169
    15  C    3.205748   2.571982   3.659853   4.385942   4.600509
    16  C    2.509933   1.524923   2.600709   3.760864   4.335431
    17  H    7.143935   8.340502   8.639512   8.185828   9.357903
    18  H    6.559174   7.609445   7.665556   7.241178   8.496776
    19  H    6.564198   7.618227   7.693278   6.989533   8.034744
    20  H    5.222318   6.526574   7.147119   6.950801   8.175793
    21  H    4.077910   5.008194   5.005748   4.518606   5.793115
    22  H    2.829690   4.116976   4.938196   5.232055   6.593689
    23  H    2.789301   4.086973   4.933312   4.828101   5.940775
    24  H    2.143797   2.882419   3.044063   2.580896   3.815434
    25  H    2.142502   2.806355   2.879613   3.112673   4.616794
    26  H    1.088188   2.110345   3.503664   4.146097   5.202590
    27  H    2.828914   2.129610   1.098158   2.172716   3.422365
    28  H    3.420411   2.186087   1.094111   2.171607   2.666478
    29  H    2.746843   2.628500   2.193225   1.084935   2.045872
    30  H    3.750505   3.365254   2.158029   1.095633   2.161523
    31  H    4.983531   4.454873   3.507591   2.122642   1.097182
    32  H    4.983987   4.038382   2.849649   2.160608   1.093647
    33  H    3.625600   3.177514   3.219229   2.594678   2.178481
    34  H    5.286489   4.637752   4.257419   3.410119   2.165016
    35  H    5.531830   4.397466   3.876819   3.824495   2.767039
    36  H    3.987183   2.771024   2.517532   2.978664   2.632177
    37  H    5.130682   4.472263   4.854555   4.769698   4.085417
    38  H    6.097716   5.123503   5.251746   5.399697   4.543271
    39  H    5.356658   4.634180   5.432028   6.000420   5.725337
    40  H    5.006425   3.944753   4.442394   5.267645   5.055332
    41  H    2.924119   2.590490   3.652062   4.018949   4.210346
    42  H    3.608326   3.259232   4.543301   5.348807   5.666621
    43  H    2.774280   2.153321   3.346521   4.637678   5.368482
    44  H    3.388381   2.159986   2.622528   3.885618   4.266781
                   11         12         13         14         15
    11  C    0.000000
    12  C    1.521671   0.000000
    13  C    2.556737   1.519321   0.000000
    14  C    3.625349   2.531358   1.538402   0.000000
    15  C    3.678980   3.055794   2.572191   1.541717   0.000000
    16  C    3.924204   3.321861   3.475598   2.590453   1.546213
    17  H    9.825734  10.898827  11.490643  11.441487  10.069269
    18  H    9.198356  10.229377  11.012479  10.993616   9.663853
    19  H    8.597340   9.793289  10.505116  10.662289   9.413918
    20  H    8.403338   9.294570   9.703169   9.463266   8.020613
    21  H    6.461244   7.466445   8.288889   8.342699   7.097846
    22  H    6.786265   7.338419   7.750895   7.275012   5.780475
    23  H    5.904017   6.677214   6.976868   6.732197   5.319193
    24  H    4.207081   5.123064   5.875628   5.958421   4.792924
    25  H    5.245256   5.820880   6.661852   6.465404   5.220319
    26  H    4.945075   5.126060   5.272018   4.614225   3.092737
    27  H    4.236715   4.343190   5.448122   5.327200   4.522406
    28  H    3.184207   2.860888   4.037535   4.066779   3.702485
    29  H    2.592121   3.632481   4.637595   5.062270   4.280725
    30  H    3.466480   4.278360   5.599229   6.049945   5.424348
    31  H    2.148281   3.388895   4.669454   5.677063   5.515453
    32  H    2.193265   2.588271   4.096288   4.970266   5.035637
    33  H    1.099266   2.175271   2.743605   3.538038   3.230630
    34  H    1.095122   2.149383   2.882609   4.219612   4.490866
    35  H    2.151910   1.093361   2.168973   3.260587   4.027264
    36  H    2.137798   1.077174   2.115631   2.457058   2.687083
    37  H    2.582016   2.176278   1.096112   2.168811   2.853043
    38  H    3.285569   2.131655   1.096078   2.156750   3.502848
    39  H    4.472700   3.458543   2.143827   1.096851   2.164688
    40  H    4.151138   2.812037   2.170787   1.097420   2.185108
    41  H    3.192318   3.022449   2.620341   2.168719   1.096333
    42  H    4.726803   4.117177   3.420149   2.150410   1.097482
    43  H    5.014023   4.392544   4.410844   3.276718   2.171336
    44  H    3.971179   3.062415   3.385738   2.594575   2.191749
                   16         17         18         19         20
    16  C    0.000000
    17  H    9.653548   0.000000
    18  H    9.022491   1.770295   0.000000
    19  H    9.024292   1.771742   1.786185   0.000000
    20  H    7.681867   2.365734   2.936169   2.936612   0.000000
    21  H    6.475149   3.738799   2.764217   2.775895   3.061476
    22  H    5.178671   4.823756   4.474159   4.831559   2.754759
    23  H    5.144206   4.822884   4.804299   4.475885   2.751068
    24  H    4.314850   5.821232   5.144790   4.846815   4.392846
    25  H    4.256049   5.956007   4.953401   5.277489   4.542503
    26  H    2.700300   7.245010   6.885930   6.875007   5.108981
    27  H    3.247590   8.393311   7.260409   7.525151   7.018301
    28  H    2.649943   9.728477   8.722273   8.756535   8.232136
    29  H    3.898082   7.427440   6.659028   6.234857   6.136546
    30  H    4.653314   7.893939   6.772989   6.625669   6.930014
    31  H    5.341884   9.167945   8.327709   7.710073   8.215061
    32  H    4.625631  10.223097   9.243393   8.899832   9.074941
    33  H    3.639815   9.051807   8.567495   7.911469   7.523068
    34  H    4.938140  10.362977   9.810061   9.046891   9.047932
    35  H    4.165042  11.739194  10.978383  10.557276  10.233189
    36  H    2.496302  10.617878   9.859010   9.605762   8.958765
    37  H    4.002736  11.152893  10.819718  10.157982   9.384172
    38  H    4.363972  12.560072  12.061799  11.535762  10.794991
    39  H    3.444456  12.044288  11.724058  11.334236   9.990148
    40  H    2.654587  12.050948  11.481389  11.284209  10.083689
    41  H    2.199325   9.367576   9.056221   8.644478   7.373423
    42  H    2.150416  10.263156   9.984001   9.778765   8.087469
    43  H    1.098499   9.747533   9.148353   9.306947   7.680041
    44  H    1.096791  10.483078   9.723779   9.774024   8.604270
                   21         22         23         24         25
    21  H    0.000000
    22  H    2.966704   0.000000
    23  H    2.936693   1.784505   0.000000
    24  H    2.417539   2.983700   2.370582   0.000000
    25  H    2.528196   2.524204   3.060311   1.766657   0.000000
    26  H    4.625926   2.709722   2.639062   2.906644   2.970992
    27  H    4.766374   4.769270   5.116749   3.260208   2.501361
    28  H    6.075499   5.959689   5.964851   4.107900   3.930510
    29  H    3.905978   4.633336   3.947751   1.774997   2.879558
    30  H    4.184334   5.398688   5.163814   2.802337   3.050563
    31  H    5.732521   6.969299   6.173666   4.028026   5.027153
    32  H    6.574982   7.354479   6.872867   4.693389   5.208433
    33  H    5.860511   5.987468   4.961636   3.543125   4.770977
    34  H    7.131945   7.652474   6.606685   4.984434   6.182691
    35  H    8.218796   8.279090   7.672101   5.958318   6.571897
    36  H    7.113041   6.793507   6.379200   4.806104   5.198486
    37  H    8.148054   7.669065   6.670896   5.764159   6.796905
    38  H    9.325136   8.836366   8.070465   6.920715   7.679510
    39  H    9.129609   7.881389   7.261902   6.763316   7.339462
    40  H    8.827028   7.730191   7.401825   6.486897   6.746825
    41  H    6.484747   5.386295   4.626115   4.152179   4.915923
    42  H    7.560395   5.846052   5.461637   5.384845   5.720910
    43  H    6.773761   5.047249   5.296583   4.830302   4.481793
    44  H    7.138759   6.072051   6.114454   4.996389   4.820911
                   26         27         28         29         30
    26  H    0.000000
    27  H    3.834148   0.000000
    28  H    4.293767   1.713237   0.000000
    29  H    3.667697   2.831711   3.014380   0.000000
    30  H    4.819887   2.271654   2.765951   1.746266   0.000000
    31  H    5.877149   4.190422   3.692409   2.358135   2.382423
    32  H    5.905442   3.532776   2.516480   2.980905   2.554658
    33  H    4.149362   4.258963   3.507539   2.231941   3.599879
    34  H    5.877580   5.269725   4.205920   3.386947   4.217325
    35  H    6.138549   4.823486   3.216249   4.344633   4.649140
    36  H    4.575698   3.506099   1.951389   3.465285   3.934493
    37  H    5.276860   5.944583   4.713774   4.623868   5.832856
    38  H    6.336336   6.282100   4.738900   5.588359   6.403048
    39  H    5.188035   6.368579   5.158340   5.974173   7.077680
    40  H    5.100717   5.278304   3.907446   5.541878   6.259665
    41  H    2.832556   4.585127   3.916716   3.677743   5.075125
    42  H    3.160917   5.291044   4.646082   5.155532   6.355533
    43  H    2.678618   3.721242   3.447827   4.739221   5.429012
    44  H    3.739625   3.226406   2.220192   4.294255   4.722600
                   31         32         33         34         35
    31  H    0.000000
    32  H    1.764548   0.000000
    33  H    2.665069   3.071059   0.000000
    34  H    2.317635   2.707195   1.755505   0.000000
    35  H    3.561490   2.448117   3.071513   2.451821   0.000000
    36  H    3.688625   2.618555   2.588413   3.032288   1.704990
    37  H    4.692496   4.529140   2.476598   2.666437   2.905990
    38  H    5.279262   4.567132   3.677070   3.363705   2.255069
    39  H    6.588712   5.984144   4.293253   4.910826   4.117645
    40  H    6.063758   5.054196   4.265315   4.803544   3.275793
    41  H    4.982243   4.854141   2.482236   3.931024   4.098242
    42  H    6.555631   6.125496   4.178324   5.487731   5.061629
    43  H    6.362654   5.636948   4.665152   6.025721   5.196651
    44  H    5.346065   4.292662   3.989382   4.966399   3.670339
                   36         37         38         39         40
    36  H    0.000000
    37  H    2.910789   0.000000
    38  H    2.795830   1.759846   0.000000
    39  H    3.531613   2.445894   2.456843   0.000000
    40  H    2.476710   3.071003   2.454904   1.753530   0.000000
    41  H    2.905699   2.510706   3.672436   2.693327   3.048742
    42  H    3.754055   3.579903   4.238062   2.284356   2.706487
    43  H    3.541844   4.919306   5.240353   3.926804   3.211377
    44  H    2.080483   4.165957   4.085380   3.549337   2.243477
                   41         42         43         44
    41  H    0.000000
    42  H    1.750042   0.000000
    43  H    2.917728   2.241723   0.000000
    44  H    2.968588   2.879779   1.722106   0.000000
 Stoichiometry    C16H28
 Framework group  C1[X(C16H28)]
 Deg. of freedom   126
 Full point group                 C1      NOp   1
 Largest Abelian subgroup         C1      NOp   1
 Largest concise Abelian subgroup C1      NOp   1
                         Standard orientation:                         
 ---------------------------------------------------------------------
 Center     Atomic      Atomic             Coordinates (Angstroms)
 Number     Number       Type             X           Y           Z
 ---------------------------------------------------------------------
      1          6           0        6.544253    0.576135   -0.607514
      2          6           0        5.394904   -0.367227   -0.634382
      3          6           0        4.183987   -0.046775   -0.138883
      4          6           0        3.033667   -1.013089   -0.153837
      5          6           0        1.816036   -0.349040    0.464787
      6          6           0        0.554615   -1.176609    0.457348
      7          6           0       -0.624125   -0.761881    0.976213
      8          6           0       -0.774256    0.606108    1.636356
      9          6           0       -0.383098    1.795293    0.737557
     10          6           0       -1.524060    2.581406    0.107723
     11          6           0       -2.261570    1.750037   -0.949893
     12          6           0       -3.412835    0.996963   -0.299544
     13          6           0       -4.066077   -0.045012   -1.191676
     14          6           0       -3.904394   -1.465107   -0.622581
     15          6           0       -2.431808   -1.892501   -0.462213
     16          6           0       -1.858191   -1.657419    0.954288
     17          1           0        7.422801    0.091989   -1.044147
     18          1           0        6.790175    0.857906    0.421152
     19          1           0        6.328119    1.477528   -1.189137
     20          1           0        5.547968   -1.350708   -1.062101
     21          1           0        4.031183    0.947103    0.276579
     22          1           0        3.283949   -1.921307    0.399863
     23          1           0        2.800980   -1.277980   -1.193037
     24          1           0        1.687524    0.538039   -0.152868
     25          1           0        2.032997   -0.017992    1.488033
     26          1           0        0.615331   -2.159600   -0.005463
     27          1           0       -0.149663    0.604126    2.539590
     28          1           0       -1.780392    0.759606    2.037863
     29          1           0        0.183458    1.480368   -0.132454
     30          1           0        0.270591    2.465360    1.306866
     31          1           0       -1.080959    3.454446   -0.387525
     32          1           0       -2.200405    2.954965    0.881723
     33          1           0       -1.567978    1.059501   -1.450370
     34          1           0       -2.654299    2.409698   -1.730856
     35          1           0       -4.149880    1.709123    0.081285
     36          1           0       -3.060887    0.499266    0.588562
     37          1           0       -3.668275   -0.008945   -2.212418
     38          1           0       -5.135053    0.187385   -1.260013
     39          1           0       -4.406428   -2.158429   -1.308401
     40          1           0       -4.436760   -1.544300    0.333790
     41          1           0       -1.823389   -1.399670   -1.229604
     42          1           0       -2.366705   -2.967502   -0.673406
     43          1           0       -1.610841   -2.626191    1.409260
     44          1           0       -2.625435   -1.251485    1.624739
 ---------------------------------------------------------------------
 Rotational constants (GHZ):           0.9137963           0.2040337           0.1856358
 Standard basis: 6-31G(2df,p) (6D, 7F)
 There are   636 symmetry adapted cartesian basis functions of A   symmetry.
 There are   588 symmetry adapted basis functions of A   symmetry.
   588 basis functions,   900 primitive gaussians,   636 cartesian basis functions
    62 alpha electrons       62 beta electrons
       nuclear repulsion energy      1119.8820318979 Hartrees.
 NAtoms=   44 NActive=   44 NUniq=   44 SFac= 1.00D+00 NAtFMM=   60 NAOKFM=F Big=F
 Integral buffers will be    131072 words long.
 Raffenetti 2 integral format.
 Two-electron integral symmetry is turned on.
 One-electron integrals computed using PRISM.
 PrsmSu:  requested number of processors reduced to:  12 ShMem   1 Linda.
 NBasis=   588 RedAO= T EigKep=  3.99D-04  NBF=   588
 NBsUse=   588 1.00D-06 EigRej= -1.00D+00 NBFU=   588
 ExpMin= 1.61D-01 ExpMax= 3.05D+03 ExpMxC= 4.57D+02 IAcc=3 IRadAn=         5 AccDes= 0.00D+00
 Harris functional with IExCor=  402 and IRadAn=       5 diagonalized for initial guess.
 HarFok:  IExCor=  402 AccDes= 0.00D+00 IRadAn=         5 IDoV= 1 UseB2=F ITyADJ=14
 ICtDFT=  3500011 ScaDFX=  1.000000  1.000000  1.000000  1.000000
 FoFCou: FMM=F IPFlag=           0 FMFlag=      100000 FMFlg1=           0
         NFxFlg=           0 DoJE=T BraDBF=F KetDBF=T FulRan=T
         wScrn=  0.000000 ICntrl=       500 IOpCl=  0 I1Cent=   200000004 NGrid=           0
         NMat0=    1 NMatS0=      1 NMatT0=    0 NMatD0=    1 NMtDS0=    0 NMtDT0=    0
 Petite list used in FoFCou.
 Requested convergence on RMS density matrix=1.00D-08 within 128 cycles.
 Requested convergence on MAX density matrix=1.00D-06.
 Requested convergence on             energy=1.00D-06.
 No special actions if energy rises.
 Integral accuracy reduced to 1.0D-05 until final iterations.
 Initial convergence to 1.0D-05 achieved.  Increase integral accuracy.
 SCF Done:  E(RB3LYP) =  -626.548403768     A.U. after   13 cycles
            NFock= 13  Conv=0.44D-08     -V/T= 2.0085

 **********************************************************************

            Population analysis using the SCF density.

 **********************************************************************

 Orbital symmetries:
       Occupied  (A) (A) (A) (A) (A) (A) (A) (A) (A) (A) (A) (A)
                 (A) (A) (A) (A) (A) (A) (A) (A) (A) (A) (A) (A)
                 (A) (A) (A) (A) (A) (A) (A) (A) (A) (A) (A) (A)
                 (A) (A) (A) (A) (A) (A) (A) (A) (A) (A) (A) (A)
                 (A) (A) (A) (A) (A) (A) (A) (A) (A) (A) (A) (A)
                 (A) (A)
       Virtual   (A) (A) (A) (A) (A) (A) (A) (A) (A) (A) (A) (A)
                 (A) (A) (A) (A) (A) (A) (A) (A) (A) (A) (A) (A)
                 (A) (A) (A) (A) (A) (A) (A) (A) (A) (A) (A) (A)
                 (A) (A) (A) (A) (A) (A) (A) (A) (A) (A) (A) (A)
                 (A) (A) (A) (A) (A) (A) (A) (A) (A) (A) (A) (A)
                 (A) (A) (A) (A) (A) (A) (A) (A) (A) (A) (A) (A)
                 (A) (A) (A) (A) (A) (A) (A) (A) (A) (A) (A) (A)
                 (A) (A) (A) (A) (A) (A) (A) (A) (A) (A) (A) (A)
                 (A) (A) (A) (A) (A) (A) (A) (A) (A) (A) (A) (A)
                 (A) (A) (A) (A) (A) (A) (A) (A) (A) (A) (A) (A)
                 (A) (A) (A) (A) (A) (A) (A) (A) (A) (A) (A) (A)
                 (A) (A) (A) (A) (A) (A) (A) (A) (A) (A) (A) (A)
                 (A) (A) (A) (A) (A) (A) (A) (A) (A) (A) (A) (A)
                 (A) (A) (A) (A) (A) (A) (A) (A) (A) (A) (A) (A)
                 (A) (A) (A) (A) (A) (A) (A) (A) (A) (A) (A) (A)
                 (A) (A) (A) (A) (A) (A) (A) (A) (A) (A) (A) (A)
                 (A) (A) (A) (A) (A) (A) (A) (A) (A) (A) (A) (A)
                 (A) (A) (A) (A) (A) (A) (A) (A) (A) (A) (A) (A)
                 (A) (A) (A) (A) (A) (A) (A) (A) (A) (A) (A) (A)
                 (A) (A) (A) (A) (A) (A) (A) (A) (A) (A) (A) (A)
                 (A) (A) (A) (A) (A) (A) (A) (A) (A) (A) (A) (A)
                 (A) (A) (A) (A) (A) (A) (A) (A) (A) (A) (A) (A)
                 (A) (A) (A) (A) (A) (A) (A) (A) (A) (A) (A) (A)
                 (A) (A) (A) (A) (A) (A) (A) (A) (A) (A) (A) (A)
                 (A) (A) (A) (A) (A) (A) (A) (A) (A) (A) (A) (A)
                 (A) (A) (A) (A) (A) (A) (A) (A) (A) (A) (A) (A)
                 (A) (A) (A) (A) (A) (A) (A) (A) (A) (A) (A) (A)
                 (A) (A) (A) (A) (A) (A) (A) (A) (A) (A) (A) (A)
                 (A) (A) (A) (A) (A) (A) (A) (A) (A) (A) (A) (A)
                 (A) (A) (A) (A) (A) (A) (A) (A) (A) (A) (A) (A)
                 (A) (A) (A) (A) (A) (A) (A) (A) (A) (A) (A) (A)
                 (A) (A) (A) (A) (A) (A) (A) (A) (A) (A) (A) (A)
                 (A) (A) (A) (A) (A) (A) (A) (A) (A) (A) (A) (A)
                 (A) (A) (A) (A) (A) (A) (A) (A) (A) (A) (A) (A)
                 (A) (A) (A) (A) (A) (A) (A) (A) (A) (A) (A) (A)
                 (A) (A) (A) (A) (A) (A) (A) (A) (A) (A) (A) (A)
                 (A) (A) (A) (A) (A) (A) (A) (A) (A) (A) (A) (A)
                 (A) (A) (A) (A) (A) (A) (A) (A) (A) (A) (A) (A)
                 (A) (A) (A) (A) (A) (A) (A) (A) (A) (A) (A) (A)
                 (A) (A) (A) (A) (A) (A) (A) (A) (A) (A) (A) (A)
                 (A) (A) (A) (A) (A) (A) (A) (A) (A) (A) (A) (A)
                 (A) (A) (A) (A) (A) (A) (A) (A) (A) (A) (A) (A)
                 (A) (A) (A) (A) (A) (A) (A) (A) (A) (A) (A) (A)
                 (A) (A) (A) (A) (A) (A) (A) (A) (A) (A)
 The electronic state is 1-A.
 Alpha  occ. eigenvalues --  -10.17771 -10.17542 -10.17407 -10.17308 -10.17167
 Alpha  occ. eigenvalues --  -10.17158 -10.17105 -10.17076 -10.17007 -10.16890
 Alpha  occ. eigenvalues --  -10.16823 -10.16782 -10.16751 -10.16602 -10.16451
 Alpha  occ. eigenvalues --  -10.16136  -0.82583  -0.80545  -0.78908  -0.78650
 Alpha  occ. eigenvalues --   -0.75744  -0.71971  -0.71054  -0.68724  -0.64447
 Alpha  occ. eigenvalues --   -0.62183  -0.60481  -0.57893  -0.56685  -0.55336
 Alpha  occ. eigenvalues --   -0.54404  -0.51006  -0.48039  -0.45588  -0.45400
 Alpha  occ. eigenvalues --   -0.44597  -0.43897  -0.43562  -0.42331  -0.41648
 Alpha  occ. eigenvalues --   -0.41284  -0.40788  -0.40140  -0.38079  -0.37468
 Alpha  occ. eigenvalues --   -0.37209  -0.36515  -0.36130  -0.35444  -0.35029
 Alpha  occ. eigenvalues --   -0.34452  -0.34098  -0.33314  -0.32458  -0.32090
 Alpha  occ. eigenvalues --   -0.31139  -0.30591  -0.30278  -0.28774  -0.27731
 Alpha  occ. eigenvalues --   -0.22808  -0.21763
 Alpha virt. eigenvalues --    0.00995   0.02968   0.07896   0.09349   0.09586
 Alpha virt. eigenvalues --    0.11241   0.11608   0.12018   0.12415   0.12677
 Alpha virt. eigenvalues --    0.12946   0.13660   0.14244   0.14912   0.15027
 Alpha virt. eigenvalues --    0.16107   0.16910   0.17208   0.17794   0.18260
 Alpha virt. eigenvalues --    0.18849   0.19297   0.19403   0.19969   0.20587
 Alpha virt. eigenvalues --    0.20748   0.21405   0.22616   0.22701   0.23662
 Alpha virt. eigenvalues --    0.24582   0.25276   0.25988   0.26945   0.27067
 Alpha virt. eigenvalues --    0.27556   0.28022   0.28829   0.29985   0.31038
 Alpha virt. eigenvalues --    0.32029   0.33256   0.34621   0.35824   0.38178
 Alpha virt. eigenvalues --    0.41308   0.44564   0.46197   0.46999   0.47505
 Alpha virt. eigenvalues --    0.47861   0.48228   0.48556   0.49469   0.49837
 Alpha virt. eigenvalues --    0.50792   0.51406   0.52062   0.52551   0.53009
 Alpha virt. eigenvalues --    0.53936   0.54885   0.55817   0.56598   0.56886
 Alpha virt. eigenvalues --    0.57769   0.57995   0.58898   0.59570   0.60523
 Alpha virt. eigenvalues --    0.61026   0.61555   0.62127   0.62555   0.64380
 Alpha virt. eigenvalues --    0.64821   0.65786   0.66344   0.66819   0.67568
 Alpha virt. eigenvalues --    0.68589   0.69013   0.69192   0.70293   0.70427
 Alpha virt. eigenvalues --    0.71254   0.72417   0.72935   0.73445   0.73906
 Alpha virt. eigenvalues --    0.74955   0.75127   0.76116   0.76257   0.76355
 Alpha virt. eigenvalues --    0.76669   0.77217   0.77401   0.77717   0.78334
 Alpha virt. eigenvalues --    0.78753   0.79819   0.80580   0.80777   0.81583
 Alpha virt. eigenvalues --    0.82082   0.82998   0.83716   0.84130   0.84292
 Alpha virt. eigenvalues --    0.85432   0.85692   0.85933   0.86269   0.86362
 Alpha virt. eigenvalues --    0.87957   0.89142   0.89427   0.90399   0.91227
 Alpha virt. eigenvalues --    0.91868   0.93390   0.95006   0.97218   0.98454
 Alpha virt. eigenvalues --    1.01165   1.02153   1.03177   1.04138   1.04710
 Alpha virt. eigenvalues --    1.06507   1.07352   1.09452   1.09924   1.10779
 Alpha virt. eigenvalues --    1.11926   1.13637   1.15135   1.16854   1.18522
 Alpha virt. eigenvalues --    1.20623   1.21193   1.22708   1.23509   1.25709
 Alpha virt. eigenvalues --    1.25898   1.26615   1.28136   1.30239   1.31887
 Alpha virt. eigenvalues --    1.32719   1.34082   1.35262   1.35839   1.36759
 Alpha virt. eigenvalues --    1.38862   1.40245   1.40530   1.41427   1.42092
 Alpha virt. eigenvalues --    1.42913   1.43818   1.44879   1.45803   1.46137
 Alpha virt. eigenvalues --    1.47443   1.48001   1.48697   1.49834   1.51681
 Alpha virt. eigenvalues --    1.51826   1.52625   1.53976   1.55659   1.55942
 Alpha virt. eigenvalues --    1.57158   1.57775   1.58265   1.59667   1.60619
 Alpha virt. eigenvalues --    1.60850   1.61181   1.62575   1.64309   1.66606
 Alpha virt. eigenvalues --    1.67504   1.68113   1.70689   1.70847   1.71895
 Alpha virt. eigenvalues --    1.73124   1.73936   1.75719   1.76396   1.77440
 Alpha virt. eigenvalues --    1.78571   1.79863   1.82910   1.84334   1.85304
 Alpha virt. eigenvalues --    1.86172   1.86688   1.88829   1.89901   1.90842
 Alpha virt. eigenvalues --    1.92109   1.95391   1.95777   1.97823   1.99068
 Alpha virt. eigenvalues --    2.01107   2.03095   2.03670   2.05435   2.08125
 Alpha virt. eigenvalues --    2.08935   2.10269   2.11100   2.13778   2.15709
 Alpha virt. eigenvalues --    2.18091   2.18631   2.19531   2.20349   2.21216
 Alpha virt. eigenvalues --    2.22331   2.24273   2.26061   2.26846   2.27393
 Alpha virt. eigenvalues --    2.29322   2.31063   2.31248   2.32816   2.33908
 Alpha virt. eigenvalues --    2.35160   2.36143   2.37471   2.39652   2.39992
 Alpha virt. eigenvalues --    2.41323   2.42298   2.43294   2.43741   2.44472
 Alpha virt. eigenvalues --    2.46472   2.47488   2.48195   2.49205   2.50683
 Alpha virt. eigenvalues --    2.51245   2.52199   2.52737   2.53639   2.55516
 Alpha virt. eigenvalues --    2.56170   2.57722   2.59336   2.60917   2.61817
 Alpha virt. eigenvalues --    2.62449   2.63947   2.67001   2.68049   2.70490
 Alpha virt. eigenvalues --    2.70895   2.73954   2.74901   2.75656   2.76349
 Alpha virt. eigenvalues --    2.78398   2.79555   2.80584   2.81120   2.82095
 Alpha virt. eigenvalues --    2.82778   2.83752   2.84238   2.84561   2.86155
 Alpha virt. eigenvalues --    2.86992   2.88228   2.88293   2.89070   2.90328
 Alpha virt. eigenvalues --    2.90652   2.91803   2.92080   2.92417   2.94477
 Alpha virt. eigenvalues --    2.94743   2.95481   2.96503   2.97662   2.99047
 Alpha virt. eigenvalues --    3.00320   3.00827   3.01738   3.03564   3.03675
 Alpha virt. eigenvalues --    3.05180   3.06362   3.06501   3.07062   3.07843
 Alpha virt. eigenvalues --    3.08282   3.09080   3.09897   3.12890   3.14160
 Alpha virt. eigenvalues --    3.14746   3.15831   3.17340   3.18575   3.19686
 Alpha virt. eigenvalues --    3.20700   3.21130   3.23093   3.23305   3.24853
 Alpha virt. eigenvalues --    3.26929   3.27496   3.28896   3.30944   3.31977
 Alpha virt. eigenvalues --    3.32769   3.33635   3.33852   3.34981   3.36316
 Alpha virt. eigenvalues --    3.38583   3.38920   3.40529   3.41271   3.41735
 Alpha virt. eigenvalues --    3.43141   3.43579   3.43899   3.44754   3.45801
 Alpha virt. eigenvalues --    3.46072   3.47275   3.48017   3.48483   3.49095
 Alpha virt. eigenvalues --    3.49792   3.50592   3.52234   3.53496   3.54526
 Alpha virt. eigenvalues --    3.56290   3.56941   3.57584   3.58996   3.60662
 Alpha virt. eigenvalues --    3.61434   3.62571   3.63137   3.64006   3.65495
 Alpha virt. eigenvalues --    3.66469   3.67876   3.69235   3.69554   3.71406
 Alpha virt. eigenvalues --    3.72704   3.73143   3.75250   3.75469   3.76670
 Alpha virt. eigenvalues --    3.77642   3.78471   3.81098   3.81929   3.83579
 Alpha virt. eigenvalues --    3.85151   3.86573   3.87156   3.89370   3.91258
 Alpha virt. eigenvalues --    3.92085   3.94731   3.96209   3.97367   4.00338
 Alpha virt. eigenvalues --    4.02074   4.03180   4.04949   4.05517   4.08654
 Alpha virt. eigenvalues --    4.12778   4.14829   4.16094   4.18562   4.19678
 Alpha virt. eigenvalues --    4.24121   4.26650   4.29816   4.31061   4.33828
 Alpha virt. eigenvalues --    4.33920   4.36184   4.37587   4.41146   4.43257
 Alpha virt. eigenvalues --    4.43294   4.44228   4.45542   4.46289   4.47859
 Alpha virt. eigenvalues --    4.48502   4.50258   4.50694   4.53190   4.54067
 Alpha virt. eigenvalues --    4.54674   4.55566   4.55910   4.56179   4.56981
 Alpha virt. eigenvalues --    4.57589   4.58625   4.59516   4.60325   4.61378
 Alpha virt. eigenvalues --    4.62100   4.62753   4.63660   4.64055   4.65655
 Alpha virt. eigenvalues --    4.66416   4.68068   4.68393   4.68903   4.69014
 Alpha virt. eigenvalues --    4.69642   4.69932   4.70572   4.71044   4.72114
 Alpha virt. eigenvalues --    4.73924   4.74500   4.74857   4.75229   4.75764
 Alpha virt. eigenvalues --    4.77187   4.78195   4.78630   4.79095   4.79879
 Alpha virt. eigenvalues --    4.80071   4.81211   4.82339   4.82437   4.83288
 Alpha virt. eigenvalues --    4.84767   4.85371   4.87502   4.87770   4.88589
 Alpha virt. eigenvalues --    4.89923   4.90623   4.90984   4.91234   4.92718
 Alpha virt. eigenvalues --    4.93613   4.94330   4.94866   4.96674   4.97768
 Alpha virt. eigenvalues --    4.98405   4.98820   5.00064   5.03102   5.03784
 Alpha virt. eigenvalues --    5.04842   5.06301   5.06951   5.09841   5.11537
 Alpha virt. eigenvalues --    5.13261   5.18517   5.23000   5.26814   5.28880
 Alpha virt. eigenvalues --    5.30378   5.35760   5.37349   5.40099   5.41789
 Alpha virt. eigenvalues --    5.42938   5.44107   5.46530   5.48276   5.50002
 Alpha virt. eigenvalues --    5.52725   5.55397   5.56897   5.59863   5.60751
 Alpha virt. eigenvalues --    5.66510   5.69870   5.75456   5.81738   6.02409
 Alpha virt. eigenvalues --    6.15709   6.31534   6.44902   6.70476   6.74833
 Alpha virt. eigenvalues --   10.30745  10.59276  11.12172  11.25409  11.51651
 Alpha virt. eigenvalues --   11.55954  11.73924  11.97421  12.13809  12.22203
 Alpha virt. eigenvalues --   12.41628  12.51855  12.60496  12.70234  12.71196
 Alpha virt. eigenvalues --   12.81533
          Condensed to atoms (all electrons):
               1          2          3          4          5          6
     1  C    5.004151   0.377188  -0.007119   0.004281  -0.000139   0.000001
     2  C    0.377188   4.785149   0.693892  -0.012603   0.000403  -0.000149
     3  C   -0.007119   0.693892   4.659643   0.412419  -0.029496   0.001837
     4  C    0.004281  -0.012603   0.412419   4.918210   0.413789  -0.028550
     5  C   -0.000139   0.000403  -0.029496   0.413789   4.898326   0.377253
     6  C    0.000001  -0.000149   0.001837  -0.028550   0.377253   4.914550
     7  C   -0.000000   0.000004  -0.000109   0.001752   0.005855   0.678710
     8  C    0.000000  -0.000000  -0.000002   0.000217  -0.023582  -0.028877
     9  C   -0.000000  -0.000000   0.000002   0.000225  -0.004106  -0.015980
    10  C   -0.000000  -0.000000   0.000000  -0.000019   0.000283   0.000230
    11  C    0.000000  -0.000000  -0.000000   0.000000   0.000013  -0.000053
    12  C    0.000000  -0.000000  -0.000000   0.000000   0.000001   0.000002
    13  C    0.000000  -0.000000  -0.000000   0.000000   0.000000   0.000004
    14  C    0.000000   0.000000   0.000000  -0.000000  -0.000003   0.000340
    15  C    0.000000   0.000000  -0.000000   0.000001  -0.000015  -0.010324
    16  C    0.000000  -0.000000   0.000001  -0.000114   0.007046  -0.048777
    17  H    0.370989  -0.017840   0.001604  -0.000160   0.000000  -0.000000
    18  H    0.374991  -0.023459  -0.009693  -0.000019   0.000001  -0.000000
    19  H    0.373598  -0.023204  -0.009016  -0.000018   0.000010  -0.000000
    20  H   -0.063927   0.361969  -0.026983  -0.014364   0.000432  -0.000003
    21  H   -0.011588  -0.051755   0.374936  -0.071087  -0.000880   0.000549
    22  H   -0.000055  -0.007536  -0.021991   0.352845  -0.030481  -0.000849
    23  H   -0.000080  -0.008072  -0.023925   0.353262  -0.026540  -0.001505
    24  H   -0.000001   0.000577  -0.001084  -0.039846   0.357796  -0.033387
    25  H   -0.000003   0.000184  -0.001006  -0.041103   0.357024  -0.015779
    26  H    0.000000  -0.000009   0.000316  -0.006161  -0.073734   0.364207
    27  H   -0.000000   0.000000   0.000005  -0.000027   0.001903  -0.013207
    28  H   -0.000000  -0.000000  -0.000000  -0.000004  -0.000031   0.004730
    29  H   -0.000000  -0.000001  -0.000061   0.000115  -0.005276  -0.002325
    30  H    0.000000  -0.000000  -0.000025   0.000015  -0.000617   0.002051
    31  H    0.000000   0.000000   0.000000   0.000000   0.000024  -0.000027
    32  H   -0.000000  -0.000000  -0.000000   0.000000  -0.000006  -0.000030
    33  H   -0.000000   0.000000   0.000000  -0.000000  -0.000075   0.001071
    34  H   -0.000000   0.000000   0.000000  -0.000000   0.000000   0.000002
    35  H   -0.000000   0.000000   0.000000  -0.000000  -0.000000  -0.000001
    36  H   -0.000000   0.000000  -0.000000   0.000000  -0.000000  -0.000151
    37  H    0.000000   0.000000  -0.000000  -0.000000   0.000000  -0.000009
    38  H   -0.000000   0.000000  -0.000000  -0.000000   0.000000  -0.000001
    39  H    0.000000  -0.000000   0.000000   0.000000  -0.000000  -0.000001
    40  H   -0.000000   0.000000  -0.000000  -0.000000   0.000000  -0.000002
    41  H   -0.000000   0.000000  -0.000000  -0.000004  -0.000259   0.003020
    42  H    0.000000  -0.000000   0.000000  -0.000000   0.000005   0.001301
    43  H   -0.000000  -0.000000  -0.000000  -0.000002  -0.000194  -0.010259
    44  H   -0.000000   0.000000  -0.000000   0.000001  -0.000159   0.003964
               7          8          9         10         11         12
     1  C   -0.000000   0.000000  -0.000000  -0.000000   0.000000   0.000000
     2  C    0.000004  -0.000000  -0.000000  -0.000000  -0.000000  -0.000000
     3  C   -0.000109  -0.000002   0.000002   0.000000  -0.000000  -0.000000
     4  C    0.001752   0.000217   0.000225  -0.000019   0.000000   0.000000
     5  C    0.005855  -0.023582  -0.004106   0.000283   0.000013   0.000001
     6  C    0.678710  -0.028877  -0.015980   0.000230  -0.000053   0.000002
     7  C    4.448679   0.381293  -0.009946  -0.001559   0.000911  -0.002628
     8  C    0.381293   5.044685   0.395593  -0.025417  -0.002150  -0.001635
     9  C   -0.009946   0.395593   4.797387   0.416082  -0.025811  -0.002892
    10  C   -0.001559  -0.025417   0.416082   4.873894   0.402259  -0.027072
    11  C    0.000911  -0.002150  -0.025811   0.402259   4.824960   0.440665
    12  C   -0.002628  -0.001635  -0.002892  -0.027072   0.440665   4.769889
    13  C    0.000004   0.000073   0.000109   0.003356  -0.030142   0.413391
    14  C    0.003761  -0.000284   0.000018  -0.000103   0.001518  -0.027801
    15  C   -0.032327   0.003810  -0.000232  -0.000010   0.000146  -0.003143
    16  C    0.387051  -0.070088   0.004184   0.000234  -0.000366  -0.001787
    17  H    0.000000  -0.000000  -0.000000  -0.000000  -0.000000   0.000000
    18  H    0.000000   0.000000   0.000000   0.000000  -0.000000   0.000000
    19  H    0.000000  -0.000000   0.000000   0.000000  -0.000000  -0.000000
    20  H   -0.000000   0.000000   0.000000   0.000000  -0.000000  -0.000000
    21  H   -0.000032   0.000008   0.000020   0.000001   0.000000  -0.000000
    22  H    0.000052   0.000022  -0.000004   0.000000   0.000000  -0.000000
    23  H   -0.000068   0.000019   0.000013   0.000001  -0.000000  -0.000000
    24  H   -0.008574   0.002217  -0.001526   0.000140   0.000010   0.000001
    25  H   -0.015072   0.002402  -0.000632   0.000114  -0.000001  -0.000000
    26  H   -0.036468   0.008555  -0.000093   0.000012   0.000004   0.000003
    27  H   -0.016076   0.337917  -0.027315   0.003880   0.000012   0.000284
    28  H   -0.022738   0.360653  -0.039945  -0.008952  -0.001519  -0.004157
    29  H   -0.003809  -0.042508   0.381364  -0.039295  -0.011735  -0.000287
    30  H    0.001136  -0.027165   0.357803  -0.035560   0.004595  -0.000024
    31  H   -0.000107   0.004894  -0.027846   0.353990  -0.028295   0.003545
    32  H    0.000138  -0.008583  -0.033008   0.364342  -0.037677  -0.009099
    33  H    0.002949  -0.002036  -0.009483  -0.035565   0.371022  -0.039124
    34  H    0.000004  -0.000019   0.003181  -0.028538   0.358780  -0.031732
    35  H    0.000111  -0.000261   0.000148  -0.003724  -0.032853   0.362631
    36  H   -0.003390   0.001952  -0.001254  -0.002755  -0.047086   0.377873
    37  H    0.000016  -0.000011  -0.000009   0.000488  -0.011813  -0.041456
    38  H   -0.000007   0.000009  -0.000005  -0.000219   0.003014  -0.026666
    39  H   -0.000112   0.000001  -0.000000   0.000003  -0.000192   0.004446
    40  H    0.000354  -0.000052   0.000004   0.000013   0.000070  -0.006382
    41  H   -0.002672   0.000613  -0.000033  -0.000031  -0.000399  -0.001635
    42  H    0.001315  -0.000159   0.000006  -0.000001   0.000057  -0.000039
    43  H   -0.013191   0.004877  -0.000087  -0.000005  -0.000002   0.000257
    44  H   -0.022828  -0.011624   0.000455  -0.000031   0.000048  -0.003695
              13         14         15         16         17         18
     1  C    0.000000   0.000000   0.000000   0.000000   0.370989   0.374991
     2  C   -0.000000   0.000000   0.000000  -0.000000  -0.017840  -0.023459
     3  C   -0.000000   0.000000  -0.000000   0.000001   0.001604  -0.009693
     4  C    0.000000  -0.000000   0.000001  -0.000114  -0.000160  -0.000019
     5  C    0.000000  -0.000003  -0.000015   0.007046   0.000000   0.000001
     6  C    0.000004   0.000340  -0.010324  -0.048777  -0.000000  -0.000000
     7  C    0.000004   0.003761  -0.032327   0.387051   0.000000   0.000000
     8  C    0.000073  -0.000284   0.003810  -0.070088  -0.000000   0.000000
     9  C    0.000109   0.000018  -0.000232   0.004184  -0.000000   0.000000
    10  C    0.003356  -0.000103  -0.000010   0.000234  -0.000000   0.000000
    11  C   -0.030142   0.001518   0.000146  -0.000366  -0.000000  -0.000000
    12  C    0.413391  -0.027801  -0.003143  -0.001787   0.000000   0.000000
    13  C    4.848578   0.420278  -0.031279   0.000115  -0.000000  -0.000000
    14  C    0.420278   4.843835   0.396835  -0.025656  -0.000000   0.000000
    15  C   -0.031279   0.396835   4.853836   0.404602  -0.000000  -0.000000
    16  C    0.000115  -0.025656   0.404602   5.038660  -0.000000   0.000000
    17  H   -0.000000  -0.000000  -0.000000  -0.000000   0.600235  -0.031281
    18  H   -0.000000   0.000000  -0.000000   0.000000  -0.031281   0.584654
    19  H    0.000000  -0.000000   0.000000   0.000000  -0.031095  -0.030076
    20  H   -0.000000  -0.000000  -0.000000   0.000000  -0.006437   0.004359
    21  H   -0.000000   0.000000  -0.000000  -0.000000  -0.000018   0.002279
    22  H   -0.000000  -0.000000   0.000001  -0.000001   0.000005   0.000054
    23  H   -0.000000   0.000000  -0.000003  -0.000009   0.000005  -0.000019
    24  H    0.000000  -0.000001   0.000057   0.000047   0.000000   0.000004
    25  H   -0.000000   0.000000  -0.000012  -0.000259   0.000000  -0.000006
    26  H   -0.000001   0.000008   0.001805  -0.017568  -0.000000  -0.000000
    27  H   -0.000010   0.000010  -0.000073   0.004911  -0.000000   0.000000
    28  H    0.000238  -0.000168   0.000334  -0.014404  -0.000000  -0.000000
    29  H    0.000019   0.000005  -0.000063   0.000515   0.000000  -0.000000
    30  H    0.000005  -0.000000  -0.000001  -0.000236   0.000000   0.000000
    31  H   -0.000213  -0.000000   0.000002   0.000002   0.000000  -0.000000
    32  H    0.000402  -0.000000  -0.000004   0.000007   0.000000  -0.000000
    33  H   -0.003750   0.000377  -0.000998  -0.000544   0.000000   0.000000
    34  H   -0.002107   0.000052   0.000016   0.000016   0.000000   0.000000
    35  H   -0.028375   0.003720  -0.000241  -0.000016  -0.000000   0.000000
    36  H   -0.046779  -0.013615  -0.000777   0.004739   0.000000  -0.000000
    37  H    0.372601  -0.033746  -0.007126  -0.000139  -0.000000   0.000000
    38  H    0.354145  -0.029128   0.004839  -0.000116  -0.000000   0.000000
    39  H   -0.031054   0.355992  -0.028089   0.003676   0.000000  -0.000000
    40  H   -0.034160   0.370295  -0.038978  -0.013275   0.000000   0.000000
    41  H   -0.008264  -0.036127   0.370436  -0.042477   0.000000   0.000000
    42  H    0.003962  -0.028332   0.355297  -0.026692  -0.000000   0.000000
    43  H   -0.000054   0.003275  -0.027057   0.342875  -0.000000   0.000000
    44  H    0.000512  -0.010175  -0.043205   0.361150   0.000000  -0.000000
              19         20         21         22         23         24
     1  C    0.373598  -0.063927  -0.011588  -0.000055  -0.000080  -0.000001
     2  C   -0.023204   0.361969  -0.051755  -0.007536  -0.008072   0.000577
     3  C   -0.009016  -0.026983   0.374936  -0.021991  -0.023925  -0.001084
     4  C   -0.000018  -0.014364  -0.071087   0.352845   0.353262  -0.039846
     5  C    0.000010   0.000432  -0.000880  -0.030481  -0.026540   0.357796
     6  C   -0.000000  -0.000003   0.000549  -0.000849  -0.001505  -0.033387
     7  C    0.000000  -0.000000  -0.000032   0.000052  -0.000068  -0.008574
     8  C   -0.000000   0.000000   0.000008   0.000022   0.000019   0.002217
     9  C    0.000000   0.000000   0.000020  -0.000004   0.000013  -0.001526
    10  C    0.000000   0.000000   0.000001   0.000000   0.000001   0.000140
    11  C   -0.000000  -0.000000   0.000000   0.000000  -0.000000   0.000010
    12  C   -0.000000  -0.000000  -0.000000  -0.000000  -0.000000   0.000001
    13  C    0.000000  -0.000000  -0.000000  -0.000000  -0.000000   0.000000
    14  C   -0.000000  -0.000000   0.000000  -0.000000   0.000000  -0.000001
    15  C    0.000000  -0.000000  -0.000000   0.000001  -0.000003   0.000057
    16  C    0.000000   0.000000  -0.000000  -0.000001  -0.000009   0.000047
    17  H   -0.031095  -0.006437  -0.000018   0.000005   0.000005   0.000000
    18  H   -0.030076   0.004359   0.002279   0.000054  -0.000019   0.000004
    19  H    0.585724   0.004350   0.002282  -0.000017   0.000057  -0.000011
    20  H    0.004350   0.647977   0.007909   0.002126   0.002223   0.000023
    21  H    0.002282   0.007909   0.653715   0.004376   0.004480   0.003584
    22  H   -0.000017   0.002126   0.004376   0.632654  -0.039896   0.007252
    23  H    0.000057   0.002223   0.004480  -0.039896   0.631527  -0.008604
    24  H   -0.000011   0.000023   0.003584   0.007252  -0.008604   0.645547
    25  H    0.000002   0.000017   0.003481  -0.005868   0.006460  -0.046098
    26  H   -0.000000   0.000002   0.000034   0.002737   0.003282   0.004335
    27  H   -0.000000  -0.000000  -0.000002  -0.000011   0.000004  -0.001334
    28  H   -0.000000   0.000000   0.000000  -0.000000   0.000000   0.000055
    29  H    0.000000  -0.000000  -0.000011  -0.000007   0.000025   0.004445
    30  H   -0.000000   0.000000   0.000044  -0.000000   0.000002  -0.000163
    31  H    0.000000   0.000000   0.000000   0.000000  -0.000000   0.000066
    32  H    0.000000  -0.000000  -0.000000  -0.000000   0.000000   0.000006
    33  H   -0.000000   0.000000  -0.000000  -0.000000   0.000002  -0.000146
    34  H   -0.000000  -0.000000  -0.000000  -0.000000   0.000000  -0.000005
    35  H    0.000000   0.000000   0.000000  -0.000000   0.000000  -0.000000
    36  H    0.000000  -0.000000  -0.000000  -0.000000  -0.000000  -0.000001
    37  H   -0.000000  -0.000000  -0.000000   0.000000  -0.000000  -0.000000
    38  H   -0.000000  -0.000000  -0.000000  -0.000000  -0.000000   0.000000
    39  H    0.000000   0.000000   0.000000   0.000000  -0.000000   0.000000
    40  H   -0.000000   0.000000  -0.000000  -0.000000   0.000000  -0.000000
    41  H   -0.000000   0.000000   0.000000  -0.000001   0.000011  -0.000048
    42  H   -0.000000  -0.000000   0.000000  -0.000000   0.000000  -0.000003
    43  H   -0.000000  -0.000000   0.000000  -0.000003   0.000002  -0.000017
    44  H   -0.000000   0.000000  -0.000000  -0.000000   0.000000   0.000001
              25         26         27         28         29         30
     1  C   -0.000003   0.000000  -0.000000  -0.000000  -0.000000   0.000000
     2  C    0.000184  -0.000009   0.000000  -0.000000  -0.000001  -0.000000
     3  C   -0.001006   0.000316   0.000005  -0.000000  -0.000061  -0.000025
     4  C   -0.041103  -0.006161  -0.000027  -0.000004   0.000115   0.000015
     5  C    0.357024  -0.073734   0.001903  -0.000031  -0.005276  -0.000617
     6  C   -0.015779   0.364207  -0.013207   0.004730  -0.002325   0.002051
     7  C   -0.015072  -0.036468  -0.016076  -0.022738  -0.003809   0.001136
     8  C    0.002402   0.008555   0.337917   0.360653  -0.042508  -0.027165
     9  C   -0.000632  -0.000093  -0.027315  -0.039945   0.381364   0.357803
    10  C    0.000114   0.000012   0.003880  -0.008952  -0.039295  -0.035560
    11  C   -0.000001   0.000004   0.000012  -0.001519  -0.011735   0.004595
    12  C   -0.000000   0.000003   0.000284  -0.004157  -0.000287  -0.000024
    13  C   -0.000000  -0.000001  -0.000010   0.000238   0.000019   0.000005
    14  C    0.000000   0.000008   0.000010  -0.000168   0.000005  -0.000000
    15  C   -0.000012   0.001805  -0.000073   0.000334  -0.000063  -0.000001
    16  C   -0.000259  -0.017568   0.004911  -0.014404   0.000515  -0.000236
    17  H    0.000000  -0.000000  -0.000000  -0.000000   0.000000   0.000000
    18  H   -0.000006  -0.000000   0.000000  -0.000000  -0.000000   0.000000
    19  H    0.000002  -0.000000  -0.000000  -0.000000   0.000000  -0.000000
    20  H    0.000017   0.000002  -0.000000   0.000000  -0.000000   0.000000
    21  H    0.003481   0.000034  -0.000002   0.000000  -0.000011   0.000044
    22  H   -0.005868   0.002737  -0.000011  -0.000000  -0.000007  -0.000000
    23  H    0.006460   0.003282   0.000004   0.000000   0.000025   0.000002
    24  H   -0.046098   0.004335  -0.001334   0.000055   0.004445  -0.000163
    25  H    0.642195   0.005007   0.006378  -0.000016  -0.000098   0.000580
    26  H    0.005007   0.665600  -0.000184  -0.000169  -0.000420   0.000019
[...]
 ,0.06126349,0.00000183,-0.00000902,-0.00000282,0.00000770,0.00000802,-
 0.00000100,-0.00001997,0.00000207,0.00004484,0.00009189,0.00002048,-0.
 00000438,-0.00013309,-0.00003921,0.00015681,-0.00058244,-0.00004748,-0
 .00090789,0.00102022,0.00120344,-0.00072027,0.00024449,0.00026340,-0.0
 0001234,0.00002843,-0.00008162,0.00004200,0.00009541,0.00004392,0.0001
 0673,-0.00040097,0.00020133,-0.00011281,0.00003445,0.00005409,-0.00026
 620,0.00145480,-0.00021718,0.00158617,-0.01558741,-0.01824823,0.005053
 19,-0.14134174,-0.11522259,0.05021797,0.00841555,0.01261355,-0.0051603
 4,0.00000537,0.00000115,0.00000054,0.00000107,0.00000183,-0.00000093,0
 .00000227,0.00000093,0.00000163,-0.00000108,0.00000211,0.00000168,0.00
 000791,0.00000356,-0.00000282,-0.00000381,0.00000471,-0.00000711,-0.00
 000486,0.00000522,0.00001105,0.00000609,0.00000442,-0.00002203,-0.0000
 2564,-0.00001333,0.00000394,-0.00075488,0.00040830,-0.00069921,0.00003
 801,0.00000570,-0.00001915,-0.00006427,-0.00011912,0.00000469,-0.00002
 287,-0.00001252,0.00002780,-0.00001197,-0.00000064,-0.00003728,-0.0000
 2242,0.00002654,-0.00000759,-0.00003760,0.00002181,0.00000342,0.000021
 67,0.00048402,0.00076837,0.00002479,-0.00000287,0.00000306,0.00007246,
 -0.00002876,-0.00004386,-0.00009390,0.00012421,0.00006803,0.00044952,0
 .00061313,-0.00099226,0.00011852,0.00041143,0.00036438,-0.00012481,0.0
 0034499,0.00017103,-0.00295988,0.00035823,-0.00306695,0.16053534,-0.00
 000019,0.00000468,-0.00000101,0.00000215,-0.00000983,0.00000171,0.0000
 0999,0.00000433,-0.00001051,0.00002457,-0.00000801,0.00001869,0.000071
 11,0.00036661,0.00012530,0.00025338,0.00096187,-0.00045051,-0.00292847
 ,0.00065261,-0.00101159,0.00001937,-0.00006443,-0.00014769,0.00004485,
 0.00005710,0.00009375,0.00003032,-0.00015823,0.00033125,-0.00042896,-0
 .00024686,-0.00072737,-0.00018718,-0.00016949,-0.00002639,0.00039538,0
 .00062868,0.00056546,-0.00396189,-0.00378832,0.00062431,-0.11216215,-0
 .18139608,0.05630773,-0.01341859,-0.02042448,0.01043254,-0.00000370,-0
 .00000111,0.00000123,0.00000030,0.00000078,0.00000063,-0.00000363,-0.0
 0000192,-0.00000346,-0.00000022,0.00000293,-0.00000023,0.00000144,0.00
 000428,0.00000267,-0.00000968,0.00000798,-0.00000906,0.00000163,-0.000
 00334,0.00000207,0.00007103,-0.00000037,0.00003098,-0.00009572,0.00000
 013,-0.00000845,-0.00028584,0.00037158,0.00041046,0.00000852,0.0000587
 6,0.00000685,-0.00006177,0.00025779,0.00002329,0.00006530,0.00000544,-
 0.00005086,-0.00003455,0.00004030,-0.00003061,-0.00005191,0.00017537,-
 0.00003456,0.00003053,0.00017146,-0.00000596,0.00077855,-0.00025151,-0
 .00028727,0.00001472,0.00009577,0.00014641,0.00013381,0.00008282,-0.00
 000123,0.00006759,0.00014591,0.00007366,0.00009898,0.00014008,-0.00077
 596,0.00023477,0.00024027,0.00005515,-0.00037042,-0.00001518,-0.000369
 62,-0.00084889,0.00085393,-0.00046861,0.12382923,0.19910467,-0.0000010
 5,-0.00000880,0.00000379,-0.00000177,0.00001136,-0.00000358,-0.0000148
 1,-0.00001747,0.00001467,-0.00004196,0.00003467,-0.00000897,0.00000539
 ,-0.00041943,-0.00018417,-0.00061995,0.00049302,0.00044212,0.00096421,
 0.00041381,0.00087741,-0.00016356,-0.00000486,-0.00017369,0.00005485,-
 0.00008812,0.00007590,0.00000991,-0.00003827,-0.00002474,0.00031401,-0
 .00022555,-0.00022457,-0.00001792,-0.00016287,-0.00024022,-0.00004007,
 -0.00137491,0.00191419,-0.01601414,-0.01776918,0.00499233,0.04985862,0
 .05650796,-0.07018081,0.00167758,0.00384674,-0.00266221,0.00000948,0.0
 0000042,-0.00000123,0.,0.00000156,-0.00000073,0.00000721,0.00000398,0.
 00000493,0.00000031,-0.00000250,0.00000048,-0.00000299,-0.00000111,-0.
 00000254,0.00001341,-0.00001075,0.00000776,0.00000306,-0.00000582,-0.0
 0001990,-0.00006501,0.00002375,-0.00000339,0.00015063,-0.00000354,0.00
 003107,-0.00042075,-0.00013451,-0.00117583,-0.00004104,0.00003335,-0.0
 0001162,0.00005266,-0.00012766,-0.00003582,-0.00000517,0.00000476,0.00
 001831,-0.00000206,0.00000063,-0.00006020,-0.00003905,0.00002035,-0.00
 000775,-0.00000323,-0.00000057,-0.00001339,0.00074335,-0.00072960,-0.0
 0061279,0.00000483,0.00003472,0.00003298,0.00003151,-0.00002702,-0.000
 00790,-0.00003459,0.00016815,0.00000011,0.00023876,0.00058355,-0.00000
 191,0.00010910,0.00017491,0.00040942,0.00026330,0.00036071,0.00017514,
 -0.00399612,-0.00092821,-0.00273349,-0.05005583,-0.06246474,0.07832120
 ,-0.00000288,0.00000495,0.00000808,-0.00000113,-0.00000313,-0.00000541
 ,0.00001155,-0.00001752,-0.00004164,-0.00008287,0.00003397,0.00004710,
 0.00009790,-0.00032358,-0.00010729,-0.00014105,0.00070186,0.00018094,-
 0.00004455,0.00128614,-0.00018399,-0.00043455,-0.00002815,-0.00036465,
 0.00009384,-0.00005149,-0.00004015,0.00009699,0.00005160,0.00024774,-0
 .00031981,-0.00016217,-0.00045911,-0.00022799,0.00012059,-0.00019868,-
 0.00365576,-0.00133471,-0.00172685,0.00873480,-0.00551708,-0.02456964,
 -0.09183154,0.03187429,0.09357617,-0.00621614,0.00540327,0.01346737,0.
 00000038,-0.00000168,-0.00000041,-0.00000039,0.00000022,0.00000091,0.0
 0000070,0.00000091,-0.00000135,-0.00000062,-0.00000042,0.00000047,-0.0
 0000227,0.00000305,0.00000381,0.00000131,0.00000786,-0.00000001,0.0000
 0736,-0.00003579,-0.00002128,-0.00006380,-0.00000297,0.00000078,0.0001
 1504,0.00000152,0.00001101,-0.00040389,-0.00041561,-0.00013126,-0.0002
 0891,0.00008809,0.00007073,0.00006050,-0.00012688,-0.00001228,-0.00000
 416,-0.00000968,0.00001464,-0.00000052,0.00001027,-0.00000544,-0.00008
 353,0.00005018,0.00000311,-0.00001262,-0.00002629,-0.00002722,0.000315
 47,0.00017189,0.00011485,0.00001347,0.00005933,0.00013623,0.00021607,-
 0.00012048,-0.00000527,0.00003881,-0.00005443,-0.00000845,0.00000137,0
 .00019615,0.00001863,0.00017429,0.00025934,-0.00131488,0.00170896,-0.0
 0008075,-0.00018385,0.00028543,-0.00030222,0.00063597,-0.00902294,0.00
 623619,0.01836171,0.10095067,0.00000104,-0.00000710,-0.00000223,0.0000
 0053,0.00000856,0.00000144,-0.00001477,-0.00000582,0.00002768,0.000023
 71,0.00000770,-0.00004187,0.00002299,0.00007508,-0.00001240,0.00018186
 ,0.00018066,0.00025749,-0.00020828,-0.00146257,-0.00071289,0.00060256,
 -0.00000007,0.00033107,-0.00008424,0.00001252,0.00012941,-0.00005709,-
 0.00010152,0.00010507,-0.00029369,-0.00012078,-0.00024385,0.00003728,-
 0.00021499,0.00016191,-0.00092713,0.00038520,0.00060828,0.00284003,-0.
 00165337,-0.00401844,0.03047378,-0.06980039,-0.06740775,0.01212766,-0.
 01320409,-0.02199843,0.00000401,0.00000097,-0.00000050,0.00000023,0.00
 000094,-0.00000071,0.00000339,0.00000172,0.00000339,0.00000081,-0.0000
 0085,-0.00000132,0.00000036,-0.00000131,-0.00000245,0.00000633,-0.0000
 1296,0.00000042,-0.00000253,0.00001503,0.00000129,0.00005037,0.0000272
 0,0.00002096,-0.00001854,0.00000354,0.00000322,0.00013671,0.00013635,0
 .00010538,0.00026214,-0.00006902,-0.00008449,-0.00003061,0.00019348,0.
 00000055,0.00003711,0.00001194,-0.00002063,-0.00000582,0.00000638,-0.0
 0002691,0.00002516,0.00009942,-0.00004875,0.00002811,0.00015174,0.0000
 1556,0.00011999,-0.00004624,0.00021348,0.00001248,0.00003975,0.0000083
 5,0.00002083,0.00010968,-0.00001353,0.00008881,0.00013379,0.00000708,0
 .00008885,0.00020381,-0.00027387,0.00022741,0.00024442,-0.00014204,0.0
 0002355,0.00099933,0.00093314,0.00016822,-0.00020126,0.00004736,-0.010
 13736,0.00744370,0.02061357,-0.03887534,0.07878949,0.00000245,-0.00000
 150,-0.00000536,0.00000041,0.00000121,0.00000469,-0.00000221,0.0000155
 2,0.00002084,0.00005227,-0.00002497,-0.00001490,-0.00010253,0.00019386
 ,0.00013000,0.00024154,-0.00080880,-0.00024211,-0.00014522,0.00024502,
 0.00018367,-0.00001864,0.00007295,-0.00008870,0.00001053,-0.00002904,-
 0.00009355,0.00000751,0.00011457,-0.00004930,0.00013834,0.00017835,0.0
 0033037,-0.00017291,0.00026635,0.00015671,-0.00490923,-0.00101108,-0.0
 0058766,0.00884537,-0.00443919,-0.02090597,0.09264067,-0.06802523,-0.2
 3324636,-0.00331676,0.00391057,0.00510875,-0.00000269,0.00000174,0.000
 00033,0.00000029,-0.00000115,-0.00000071,-0.00000128,-0.00000141,0.000
 00055,0.00000037,-0.00000051,-0.00000073,0.00000196,-0.00000266,-0.000
 00283,-0.00000241,-0.00000115,-0.00000051,-0.00000540,0.00001768,0.000
 01333,0.00002891,-0.00000568,-0.00000615,-0.00007753,-0.00002005,-0.00
 001965,-0.00027305,0.00024167,0.00009087,-0.00003391,0.00002530,0.0000
 2470,-0.00001296,0.00001190,-0.00000082,-0.00000996,0.00000524,0.00000
 723,0.00003354,-0.00001614,0.00004584,0.00002254,-0.00006770,0.0000233
 4,-0.00000803,-0.00004752,0.00000444,-0.00007460,-0.00015835,-0.000298
 28,0.00003903,-0.00006426,-0.00006498,0.00009852,-0.00010236,-0.000039
 92,0.00002746,-0.00010777,0.00001040,0.00001444,-0.00001526,0.00036037
 ,0.00026902,-0.00001057,-0.00158642,-0.00004762,0.00075565,0.00089504,
 -0.00020766,-0.00043834,0.00022447,0.00440736,-0.00260138,-0.00904100,
 -0.09646335,0.07100090,0.25589560,-0.00002083,0.00008400,0.00002354,-0
 .00007669,-0.00010623,0.00001930,0.00018108,0.00008141,-0.00038339,-0.
 00091418,-0.00021165,0.00034244,0.00038485,0.00062115,-0.00269772,-0.0
 0028913,0.00209423,0.00085162,-0.01864543,-0.01580680,0.02338185,-0.00
 061806,-0.00117466,-0.00155191,0.00035200,-0.00012721,0.00009195,-0.00
 004390,-0.00006986,-0.00004156,-0.00005937,-0.00013287,-0.00010574,-0.
 00005140,0.00003725,0.00004533,0.00006922,-0.00005389,0.00002986,0.000
 63207,0.00081019,0.00037933,0.00483419,0.01000784,-0.01271817,-0.07720
 929,-0.04380974,0.07904531,-0.00005664,-0.00000863,-0.00000158,-0.0000
 0105,-0.00000736,0.00000418,-0.00002411,-0.00001450,-0.00001998,0.0000
 0852,-0.00000322,-0.00002658,-0.00002989,-0.00001345,0.00001147,-0.000
 01109,0.00006058,-0.00001399,0.00003074,-0.00003856,0.00002712,0.00016
 194,0.00008584,0.00012729,-0.00006993,0.00002896,0.00003232,0.00001759
 ,-0.00099828,0.00105594,-0.00005103,0.00034769,-0.00003497,0.00017822,
 0.00078239,0.00007854,0.00009445,0.00009797,-0.00011250,0.00004500,0.0
 0008090,-0.00000458,0.00002827,0.00000854,0.00001834,0.00002888,0.0000
 4826,0.00002039,-0.00017592,0.00009861,0.00000663,0.00006103,0.0000217
 6,-0.00000903,0.00004791,0.00002071,-0.00004985,0.00003455,0.00003944,
 0.00001790,-0.00004438,-0.00005314,0.00001831,-0.00001269,-0.00006198,
 -0.00004892,-0.00026557,-0.00010831,0.00004958,-0.00015708,-0.00037880
 ,0.00012528,-0.00118798,0.00209450,-0.00129597,0.00120059,-0.00020386,
 -0.00033621,0.08956903,-0.00000584,0.00001440,0.00000911,-0.00001233,-
 0.00001786,-0.00000002,0.00002467,0.00000822,-0.00009145,-0.00019679,-
 0.00005693,0.00007904,0.00001449,0.00009747,-0.00067575,-0.00037450,0.
 00102281,-0.00011564,-0.00516414,-0.00301005,0.00348903,-0.00038362,-0
 .00018380,0.00007402,-0.00022426,0.00014520,0.00008767,-0.00005169,0.0
 0002757,0.00007358,0.00001757,0.00006416,-0.00009043,0.00004137,-0.000
 13198,-0.00006921,0.00012253,-0.00008612,-0.00002427,-0.00034923,-0.00
 158004,-0.00059064,-0.00773598,-0.01601870,0.02196282,-0.04018090,-0.0
 9164975,0.09030712,-0.00000671,-0.00000231,-0.00000075,0.00000056,0.00
 000042,0.00000020,-0.00000174,-0.00000140,-0.00000229,0.00000033,0.000
 00142,-0.00000522,0.00000407,0.00000258,0.00000316,-0.00001544,0.00003
 334,-0.00000989,0.00000633,-0.00003073,0.00000149,0.00011178,0.0000466
 4,0.00003145,0.00001258,0.00000701,0.00000307,-0.00000208,-0.00035178,
 0.00023733,-0.00005509,-0.00008258,0.00009744,-0.00009823,-0.00010710,
 0.00009212,0.00004991,-0.00002847,-0.00004494,0.00000459,0.00002481,0.
 00004731,0.00005956,0.00004691,-0.00004891,0.00001054,0.00011899,0.000
 04015,0.00013362,-0.00013357,-0.00020405,0.00000700,0.00000578,-0.0001
 3994,-0.00000204,0.00010052,-0.00005739,0.00006779,0.00014344,0.000025
 44,0.00002190,0.00010620,-0.00009893,0.00000013,0.00010827,0.00009696,
 0.00034967,0.00008501,0.00015268,0.00022944,0.00037439,0.00006231,0.00
 224070,-0.00387473,0.00130595,-0.00044821,0.00138175,-0.00006683,0.043
 81478,0.10444289,-0.00000306,0.00000718,0.00000677,-0.00001973,-0.0000
 0271,0.00000011,0.00001796,0.00001145,-0.00006418,-0.00018946,-0.00006
 706,-0.00006929,0.00029150,0.00032557,-0.00057119,-0.00097240,-0.00079
 031,0.00062958,-0.00220398,-0.00303644,0.00587746,0.00035543,0.0002601
 9,0.00006452,-0.00027018,-0.00018689,-0.00013332,-0.00019445,0.0001212
 1,-0.00002046,0.00013520,0.00043160,0.00021614,0.00017682,-0.00006189,
 0.00005264,0.00015841,-0.00032547,0.00014034,0.00008547,0.00067971,0.0
 0027414,0.00240607,0.00046518,-0.00318782,0.07444354,0.09128538,-0.207
 98430,-0.00000510,0.00000015,-0.00000161,-0.00000076,-0.00000165,-0.00
 000016,0.00000016,0.00000008,0.00000029,0.00000121,-0.00000363,-0.0000
 0389,-0.00000335,-0.00000639,0.00000379,-0.00001694,0.00000012,-0.0000
 0137,0.00000174,-0.00000849,0.00000823,0.00005956,0.00001765,0.0000319
 7,-0.00000159,-0.00001273,0.00001648,0.00001831,-0.00011762,0.00001609
 ,0.00010645,-0.00006539,0.00002419,0.00014566,-0.00020039,-0.00018651,
 -0.00000380,0.00003313,0.00009429,0.00005671,-0.00000620,0.00002612,0.
 00012711,0.00000610,-0.00004717,0.00001766,0.00013504,0.00003731,-0.00
 011449,-0.00023700,-0.00038881,0.00002177,-0.00013362,-0.00026081,-0.0
 0001545,0.00011462,-0.00013062,0.00010784,0.00015336,0.00005101,-0.000
 01968,0.00002017,0.00007698,-0.00005474,0.00002236,-0.00000523,-0.0003
 2970,-0.00002409,-0.00006972,-0.00028484,-0.00019058,-0.00018971,-0.00
 078654,-0.00022169,0.00028058,-0.00035542,-0.00038839,0.00190575,-0.08
 311592,-0.09906749,0.22655444,-0.00000075,0.00002769,-0.00000265,-0.00
 000643,-0.00002728,0.00000701,0.00005918,0.00003455,-0.00008904,-0.000
 01298,0.00001185,0.00018774,0.00008900,-0.00193934,0.00085192,-0.00613
 782,0.00107956,-0.00038408,-0.00852413,-0.02191071,-0.02668643,0.00054
 817,-0.00152761,-0.00042405,-0.00060659,0.00015330,0.00003493,-0.00066
 457,-0.00033361,0.00040752,0.00014529,-0.00055801,0.00068109,0.0005206
 3,0.00049262,-0.00027406,-0.00015075,-0.00001843,-0.00020832,0.0012925
 7,0.00137580,0.00043575,-0.00137188,0.01177475,0.01192772,-0.04883877,
 -0.02118706,-0.02565426,-0.00002771,-0.00000273,0.00000092,-0.00000121
 ,-0.00000449,0.00000272,-0.00001651,-0.00000767,-0.00001127,0.00000031
 ,0.00000322,-0.00000412,0.00000041,0.00000710,0.00000954,0.00002279,0.
 00002145,-0.00003811,0.00000078,-0.00000694,0.00000009,-0.00068026,-0.
 00020965,-0.00018745,-0.00005525,0.00008746,0.00000700,0.00012294,0.00
 023501,-0.00050493,0.00052529,-0.00005456,0.00003566,-0.00009738,0.000
 73600,-0.00019227,0.00013951,0.00005920,-0.00006948,0.00005171,0.00002
 072,0.00006351,0.00025572,0.00013593,-0.00009753,0.00007826,0.00058455
 ,0.00042332,-0.00037799,-0.00040033,0.00012152,-0.00014528,0.00007435,
 -0.00018519,-0.00007702,-0.00008507,-0.00002764,0.00003529,-0.00028495
 ,-0.00057023,-0.00001855,-0.00008378,0.00007277,-0.00004875,0.00000806
 ,-0.00000379,0.00002263,-0.00020718,0.00012641,-0.00039731,-0.00031179
 ,0.00025181,-0.00027324,0.00033555,0.00000311,-0.00136361,0.00324296,-
 0.00065835,0.00205551,0.00796291,0.01022698,0.06392877,-0.00000044,0.0
 0000784,-0.00000083,-0.00000456,-0.00000858,0.00000406,0.00001319,0.00
 002774,-0.00003802,-0.00002190,-0.00006368,0.00001418,0.00008520,-0.00
 002406,-0.00016277,-0.00092235,0.00131986,-0.00049707,-0.00233884,-0.0
 0520323,-0.00419701,0.00166031,0.00006226,0.00100623,-0.00050456,0.000
 08689,0.00003397,-0.00004497,0.00045501,-0.00033696,-0.00048712,-0.000
 05843,0.00051452,0.00021699,-0.00033063,-0.00006497,0.00053107,-0.0004
 8426,0.00050442,-0.00180984,0.00101095,-0.00111130,-0.00026279,-0.0181
 3863,-0.01924483,-0.02238700,-0.15229258,-0.12624762,-0.00000837,-0.00
 000005,0.00000022,-0.00000018,-0.00000172,0.00000012,-0.00000401,-0.00
 000259,-0.00000235,0.00000075,0.00000002,-0.00000183,0.00000402,-0.000
 00204,0.00000292,-0.00000687,0.00000396,-0.00001046,-0.00000086,0.0000
 0470,0.00000472,0.00002224,0.00003938,0.00002956,-0.00008164,0.0000259
 2,0.00000407,0.00018602,0.00012198,0.00017094,0.00019550,0.00005309,-0
 .00004922,0.00028764,0.00034888,0.00032254,0.00000108,0.00003951,0.000
 00998,0.00003385,-0.00000960,0.00017117,0.00018600,0.00000559,-0.00011
 279,0.00022027,0.00002896,-0.00040618,-0.00031446,-0.00061568,0.000105
 32,0.00013540,-0.00009149,-0.00032161,-0.00000636,0.00037767,-0.000300
 72,0.00017145,0.00064783,-0.00008749,-0.00001399,0.00009427,-0.0000961
 0,-0.00011336,0.00007692,0.00015089,-0.00029258,0.00046362,-0.00018679
 ,0.00070913,0.00065372,0.00032761,0.00087744,-0.00146594,-0.00009241,0
 .00137691,-0.00376185,0.00101041,0.00201597,0.00893769,0.01106585,0.02
 069661,0.16766078,0.00000025,0.00001391,-0.00000474,-0.00000648,-0.000
 01794,0.00000849,0.00003820,0.00001926,-0.00002623,-0.00002168,0.00001
 649,0.00003199,0.00029635,-0.00023602,0.00037822,-0.00090837,0.0005298
 2,0.00009727,-0.00026987,-0.00197864,-0.00254104,0.00026053,-0.0011586
 4,0.00099572,-0.00032157,0.00025910,0.00028326,0.00047996,-0.00025567,
 -0.00077135,0.00093149,0.00107892,-0.00104065,-0.00000623,0.00035198,-
 0.00173651,0.00020473,0.00014037,0.00033703,-0.00079416,0.00007870,0.0
 0109566,0.00115794,0.00488184,0.00515567,-0.02857116,-0.12840802,-0.19
 653781,-0.00001623,-0.00000051,0.00000106,-0.00000078,-0.00000283,0.00
 000159,-0.00001006,-0.00000496,-0.00000703,0.00000247,0.00000013,-0.00
 000320,-0.00001099,-0.00000254,0.00000336,0.00001563,-0.00001004,-0.00
 000328,0.00000107,0.00001532,0.00001314,-0.00021521,-0.00002443,-0.000
 02632,-0.00010922,0.00002235,0.00000901,0.00005069,0.00022917,-0.00012
 920,0.00031045,0.00026734,-0.00006356,-0.00015284,0.00088117,-0.000036
 07,0.00003083,0.00005051,-0.00013517,-0.00007695,0.00001086,0.00010061
 ,0.00003059,0.00015561,-0.00014444,0.00049303,-0.00016949,-0.00041634,
 0.00044913,0.00040386,-0.00081741,-0.00009089,-0.00011304,-0.00019732,
 0.00014506,0.00008003,-0.00016179,-0.00038016,0.00005716,-0.00124077,0
 .00005382,-0.00006220,-0.00009334,-0.00001676,-0.00005723,0.00016155,0
 .00011183,0.00025890,-0.00001410,0.00054401,0.00016011,0.00026662,-0.0
 0011505,0.00045460,-0.00016998,-0.00067237,0.00084446,0.00085862,-0.00
 323524,-0.01687542,-0.02307309,0.03039419,0.13811564,0.21959187\\0.000
 00939,0.00000309,-0.00000353,-0.00001038,-0.00000778,0.00000293,-0.000
 00229,0.00000479,0.00000116,-0.00000414,-0.00000760,0.00000277,-0.0000
 0101,-0.00000131,-0.00000345,-0.00000323,-0.00000159,0.00000034,0.0000
 0615,-0.00001749,-0.00000265,0.00000765,0.00002112,-0.00001089,-0.0000
 0602,-0.00000714,0.00002274,-0.00000180,-0.00000626,-0.00000317,0.0000
 0451,0.00000255,-0.00000513,-0.00001023,0.00000421,0.00000213,0.000005
 16,-0.00000581,-0.00000706,-0.00000118,0.00000318,0.00000822,0.0000020
 8,0.00000220,0.00000030,-0.00000779,0.00000303,0.00000291,-0.00000009,
 0.00000269,0.00000508,0.00000288,-0.00000245,0.00000166,-0.00000086,0.
 00000154,0.00000083,-0.00000272,0.00000001,-0.00000345,-0.00000064,0.0
 0000028,0.00000219,0.00000265,0.00000195,0.00000195,0.00000163,0.00000
 391,-0.00000242,-0.00000247,0.00000120,0.00000078,0.00000041,0.0000002
 6,0.00000168,0.00000020,0.00000213,-0.00000220,0.00000069,-0.00000024,
 0.00000169,0.00000136,-0.00000355,-0.00000004,0.00000207,-0.00000017,-
 0.00000067,0.00000148,-0.00000165,-0.00000579,0.00000703,0.00000103,0.
 00000466,-0.00000206,0.00000117,-0.00000272,0.00000237,-0.00000069,-0.
 00000050,-0.00000361,-0.00000120,-0.00000062,0.,0.00000108,-0.00000025
 ,0.00000477,0.00000080,-0.00000258,0.00000126,-0.00000042,-0.00000199,
 -0.00000127,0.00000072,0.00000165,0.00000029,0.00000082,-0.00000349,0.
 00000042,0.00000037,-0.00000060,-0.00000112,-0.00000090,-0.00000007,-0
 .00000030,0.00000076,-0.00000012,-0.00000350,0.00000286,-0.00000194,0.
 00000227,-0.00000151,-0.00000035\\\@


 THE DIFFICULTY IN SCIENCE IS OFTEN NOT SO MUCH HOW
 TO MAKE A DISCOVERY BUT RATHER TO KNOW ONE HAS MADE IT.

                                                   -- J. D. BERNAL
 Job cpu time:       0 days 20 hours 20 minutes  5.5 seconds.
 Elapsed time:       0 days  5 hours  5 minutes  9.0 seconds.
 File lengths (MBytes):  RWF=   1030 Int=      0 D2E=      0 Chk=     29 Scr=      1
 Normal termination of Gaussian 16 at Thu May 25 10:38:47 2023.
### All Done ###
