### Starting Gaussian ###
 Entering Gaussian System, Link 0=g16
 Initial command:
 /cluster/software/gaussian/gaussian-16-A.03/avx2/g16/l1.exe "/local/scratch/cz9n3/Gau-6017.inp" -scrdir="/local/scratch/cz9n3/"
 Entering Link 1 = /cluster/software/gaussian/gaussian-16-A.03/avx2/g16/l1.exe PID=      6018.
  
 Copyright (c) 1988,1990,1992,1993,1995,1998,2003,2009,2016,
            Gaussian, Inc.  All Rights Reserved.
  
 This is part of the Gaussian(R) 16 program.  It is based on
 the Gaussian(R) 09 system (copyright 2009, Gaussian, Inc.),
 the Gaussian(R) 03 system (copyright 2003, Gaussian, Inc.),
 the Gaussian(R) 98 system (copyright 1998, Gaussian, Inc.),
 the Gaussian(R) 94 system (copyright 1995, Gaussian, Inc.),
 the Gaussian 92(TM) system (copyright 1992, Gaussian, Inc.),
 the Gaussian 90(TM) system (copyright 1990, Gaussian, Inc.),
 the Gaussian 88(TM) system (copyright 1988, Gaussian, Inc.),
 the Gaussian 86(TM) system (copyright 1986, Carnegie Mellon
 University), and the Gaussian 82(TM) system (copyright 1983,
 Carnegie Mellon University). Gaussian is a federally registered
 trademark of Gaussian, Inc.
  
 This software contains proprietary and confidential information,
 including trade secrets, belonging to Gaussian, Inc.
  
 This software is provided under written license and may be
 used, copied, transmitted, or stored only in accord with that
 written license.
  
 The following legend is applicable only to US Government
 contracts under FAR:
  
                    RESTRICTED RIGHTS LEGEND
  
 Use, reproduction and disclosure by the US Government is
 subject to restrictions as set forth in subparagraphs (a)
 and (c) of the Commercial Computer Software - Restricted
 Rights clause in FAR 52.227-19.
  
 Gaussian, Inc.
 340 Quinnipiac St., Bldg. 40, Wallingford CT 06492
  
  
 ---------------------------------------------------------------
 Warning -- This program may not be used in any manner that
 competes with the business of Gaussian, Inc. or will provide
 assistance to any competitor of Gaussian, Inc.  The licensee
 of this program is prohibited from giving any competitor of
 Gaussian, Inc. access to this program.  By using this program,
 the user acknowledges that Gaussian, Inc. is engaged in the
 business of creating and licensing software in the field of
 computational chemistry and represents and warrants to the
 licensee that it is not a competitor of Gaussian, Inc. and that
 it will not use this program in any manner prohibited above.
 ---------------------------------------------------------------
  

 Cite this work as:
 Gaussian 16, Revision A.03,
 M. J. Frisch, G. W. Trucks, H. B. Schlegel, G. E. Scuseria, 
 M. A. Robb, J. R. Cheeseman, G. Scalmani, V. Barone, 
 G. A. Petersson, H. Nakatsuji, X. Li, M. Caricato, A. V. Marenich, 
 J. Bloino, B. G. Janesko, R. Gomperts, B. Mennucci, H. P. Hratchian, 
 J. V. Ortiz, A. F. Izmaylov, J. L. Sonnenberg, D. Williams-Young, 
 F. Ding, F. Lipparini, F. Egidi, J. Goings, B. Peng, A. Petrone, 
 T. Henderson, D. Ranasinghe, V. G. Zakrzewski, J. Gao, N. Rega, 
 G. Zheng, W. Liang, M. Hada, M. Ehara, K. Toyota, R. Fukuda, 
 J. Hasegawa, M. Ishida, T. Nakajima, Y. Honda, O. Kitao, H. Nakai, 
 T. Vreven, K. Throssell, J. A. Montgomery, Jr., J. E. Peralta, 
 F. Ogliaro, M. J. Bearpark, J. J. Heyd, E. N. Brothers, K. N. Kudin, 
 V. N. Staroverov, T. A. Keith, R. Kobayashi, J. Normand, 
 K. Raghavachari, A. P. Rendell, J. C. Burant, S. S. Iyengar, 
 J. Tomasi, M. Cossi, J. M. Millam, M. Klene, C. Adamo, R. Cammi, 
 J. W. Ochterski, R. L. Martin, K. Morokuma, O. Farkas, 
 J. B. Foresman, and D. J. Fox, Gaussian, Inc., Wallingford CT, 2016.
 
 ******************************************
 Gaussian 16:  ES64L-G16RevA.03 25-Dec-2016
                22-May-2023 
 ******************************************
 %chk=CCN1CCqOCqCrdOrCC1CN.chk
 %NProcShared=20
 Will use up to   20 processors via shared memory.
 -----------------------------
 # opt freq b3lyp/6-31g(2df,p)
 -----------------------------
 1/18=20,19=15,26=3,38=1/1,3;
 2/9=110,12=2,17=6,18=5,40=1/2;
 3/5=1,6=6,7=104,11=2,25=1,30=1,71=1,74=-5/1,2,3;
 4//1;
 5/5=2,38=5/2;
 6/7=2,8=2,9=2,10=2,28=1/1;
 7//1,2,3,16;
 1/18=20,19=15,26=3/3(2);
 2/9=110/2;
 99//99;
 2/9=110/2;
 3/5=1,6=6,7=104,11=2,25=1,30=1,71=1,74=-5/1,2,3;
 4/5=5,16=3,69=1/1;
 5/5=2,38=5/2;
 7//1,2,3,16;
 1/18=20,19=15,26=3/3(-5);
 2/9=110/2;
 6/7=2,8=2,9=2,10=2,19=2,28=1/1;
 99/9=1/99;
 -------------------
 Title Card Required
 -------------------
 Symbolic Z-matrix:
 Charge =  0 Multiplicity = 1
 C                     0.99356   0.07646  -0.06948 
 C                     2.51068   0.07043  -0.07542 
 N                     2.99411   0.62299  -1.3557 
 C                     4.30417   0.05428  -1.69035 
 C                     5.28996   0.85158  -0.84576 
 O                     6.64397   0.69556  -1.27844 
 C                     7.32398  -0.46588  -1.12423 
 C                     6.65247  -1.64627  -0.47454 
 O                     8.48372  -0.56369  -1.52696 
 C                     4.77144   2.26569  -1.08827 
 C                     3.24519   2.08793  -1.24033 
 C                     2.69982   2.83001  -2.47868 
 N                     2.88756   4.27709  -2.35459 
 H                     0.62303  -0.33771   0.87293 
 H                     0.60479  -0.54187  -0.88598 
 H                     0.59578   1.08919  -0.18091 
 H                     2.83316  -0.97112   0.05167 
 H                     2.90023   0.61833   0.79264 
 H                     4.52396   0.18757  -2.75784 
 H                     4.33024  -1.02636  -1.53574 
 H                     5.22751   0.63905   0.22879 
 H                     5.66437  -1.44958  -0.06694 
 H                     7.25466  -1.98002   0.37291 
 H                     6.56181  -2.44967  -1.21257 
 H                     5.22872   2.69208  -1.98987 
 H                     5.01481   2.93453  -0.25512 
 H                     2.73482   2.5006   -0.35914 
 H                     1.63125   2.61719  -2.60247 
 H                     3.20865   2.48138  -3.38515 
 H                     2.35272   4.61966  -1.55731 
 H                     2.50017   4.73604  -3.17757 
 

 GradGradGradGradGradGradGradGradGradGradGradGradGradGradGradGradGradGrad
 Berny optimization.
 Initialization pass.
                           ----------------------------
                           !    Initial Parameters    !
                           ! (Angstroms and Degrees)  !
 --------------------------                            --------------------------
 ! Name  Definition              Value          Derivative Info.                !
 --------------------------------------------------------------------------------
 ! R1    R(1,2)                  1.5171         estimate D2E/DX2                !
 ! R2    R(1,14)                 1.0941         estimate D2E/DX2                !
 ! R3    R(1,15)                 1.0955         estimate D2E/DX2                !
 ! R4    R(1,16)                 1.0937         estimate D2E/DX2                !
 ! R5    R(2,3)                  1.4759         estimate D2E/DX2                !
 ! R6    R(2,17)                 1.0977         estimate D2E/DX2                !
 ! R7    R(2,18)                 1.0979         estimate D2E/DX2                !
 ! R8    R(3,4)                  1.4669         estimate D2E/DX2                !
 ! R9    R(3,11)                 1.4908         estimate D2E/DX2                !
 ! R10   R(4,5)                  1.5234         estimate D2E/DX2                !
 ! R11   R(4,19)                 1.098          estimate D2E/DX2                !
 ! R12   R(4,20)                 1.092          estimate D2E/DX2                !
 ! R13   R(5,6)                  1.43           estimate D2E/DX2                !
 ! R14   R(5,10)                 1.5256         estimate D2E/DX2                !
 ! R15   R(5,21)                 1.0971         estimate D2E/DX2                !
 ! R16   R(6,7)                  1.3547         estimate D2E/DX2                !
 ! R17   R(7,8)                  1.5054         estimate D2E/DX2                !
 ! R18   R(7,9)                  1.2316         estimate D2E/DX2                !
 ! R19   R(8,22)                 1.0868         estimate D2E/DX2                !
 ! R20   R(8,23)                 1.0919         estimate D2E/DX2                !
 ! R21   R(8,24)                 1.0947         estimate D2E/DX2                !
 ! R22   R(10,11)                1.5441         estimate D2E/DX2                !
 ! R23   R(10,25)                1.0972         estimate D2E/DX2                !
 ! R24   R(10,26)                1.0958         estimate D2E/DX2                !
 ! R25   R(11,12)                1.5433         estimate D2E/DX2                !
 ! R26   R(11,27)                1.0988         estimate D2E/DX2                !
 ! R27   R(12,13)                1.4645         estimate D2E/DX2                !
 ! R28   R(12,28)                1.0966         estimate D2E/DX2                !
 ! R29   R(12,29)                1.0964         estimate D2E/DX2                !
 ! R30   R(13,30)                1.0193         estimate D2E/DX2                !
 ! R31   R(13,31)                1.0188         estimate D2E/DX2                !
 ! A1    A(2,1,14)             109.9096         estimate D2E/DX2                !
 ! A2    A(2,1,15)             110.4695         estimate D2E/DX2                !
 ! A3    A(2,1,16)             111.5285         estimate D2E/DX2                !
 ! A4    A(14,1,15)            107.9477         estimate D2E/DX2                !
 ! A5    A(14,1,16)            108.3674         estimate D2E/DX2                !
 ! A6    A(15,1,16)            108.519          estimate D2E/DX2                !
 ! A7    A(1,2,3)              109.2362         estimate D2E/DX2                !
 ! A8    A(1,2,17)             107.2828         estimate D2E/DX2                !
 ! A9    A(1,2,18)             110.47           estimate D2E/DX2                !
 ! A10   A(3,2,17)             111.0665         estimate D2E/DX2                !
 ! A11   A(3,2,18)             112.5074         estimate D2E/DX2                !
 ! A12   A(17,2,18)            106.1245         estimate D2E/DX2                !
 ! A13   A(2,3,4)              110.1999         estimate D2E/DX2                !
 ! A14   A(2,3,11)             110.8515         estimate D2E/DX2                !
 ! A15   A(4,3,11)             104.3724         estimate D2E/DX2                !
 ! A16   A(3,4,5)              104.3904         estimate D2E/DX2                !
 ! A17   A(3,4,19)             110.7022         estimate D2E/DX2                !
 ! A18   A(3,4,20)             111.8827         estimate D2E/DX2                !
 ! A19   A(5,4,19)             110.2389         estimate D2E/DX2                !
 ! A20   A(5,4,20)             115.0869         estimate D2E/DX2                !
 ! A21   A(19,4,20)            104.6558         estimate D2E/DX2                !
 ! A22   A(4,5,6)              112.8211         estimate D2E/DX2                !
 ! A23   A(4,5,10)             100.1984         estimate D2E/DX2                !
 ! A24   A(4,5,21)             113.8769         estimate D2E/DX2                !
 ! A25   A(6,5,10)             112.0156         estimate D2E/DX2                !
 ! A26   A(6,5,21)             109.2144         estimate D2E/DX2                !
 ! A27   A(10,5,21)            108.4152         estimate D2E/DX2                !
 ! A28   A(5,6,7)              122.3031         estimate D2E/DX2                !
 ! A29   A(6,7,8)              119.8321         estimate D2E/DX2                !
 ! A30   A(6,7,9)              120.2361         estimate D2E/DX2                !
 ! A31   A(8,7,9)              119.9269         estimate D2E/DX2                !
 ! A32   A(7,8,22)             115.1818         estimate D2E/DX2                !
 ! A33   A(7,8,23)             109.1846         estimate D2E/DX2                !
 ! A34   A(7,8,24)             108.7494         estimate D2E/DX2                !
 ! A35   A(22,8,23)            105.4061         estimate D2E/DX2                !
 ! A36   A(22,8,24)            108.0817         estimate D2E/DX2                !
 ! A37   A(23,8,24)            110.158          estimate D2E/DX2                !
 ! A38   A(5,10,11)            104.1761         estimate D2E/DX2                !
 ! A39   A(5,10,25)            110.4384         estimate D2E/DX2                !
 ! A40   A(5,10,26)            111.6806         estimate D2E/DX2                !
 ! A41   A(11,10,25)           112.0727         estimate D2E/DX2                !
 ! A42   A(11,10,26)           111.3881         estimate D2E/DX2                !
 ! A43   A(25,10,26)           107.1589         estimate D2E/DX2                !
 ! A44   A(3,11,10)            106.6922         estimate D2E/DX2                !
 ! A45   A(3,11,12)            110.5426         estimate D2E/DX2                !
 ! A46   A(3,11,27)            110.665          estimate D2E/DX2                !
 ! A47   A(10,11,12)           111.8993         estimate D2E/DX2                !
 ! A48   A(10,11,27)           109.6892         estimate D2E/DX2                !
 ! A49   A(12,11,27)           107.385          estimate D2E/DX2                !
 ! A50   A(11,12,13)           111.2137         estimate D2E/DX2                !
 ! A51   A(11,12,28)           109.9762         estimate D2E/DX2                !
 ! A52   A(11,12,29)           110.2741         estimate D2E/DX2                !
 ! A53   A(13,12,28)           109.042          estimate D2E/DX2                !
 ! A54   A(13,12,29)           108.9507         estimate D2E/DX2                !
 ! A55   A(28,12,29)           107.289          estimate D2E/DX2                !
 ! A56   A(12,13,30)           109.3348         estimate D2E/DX2                !
 ! A57   A(12,13,31)           109.1432         estimate D2E/DX2                !
 ! A58   A(30,13,31)           106.3144         estimate D2E/DX2                !
 ! D1    D(14,1,2,3)           179.616          estimate D2E/DX2                !
 ! D2    D(14,1,2,17)           59.1333         estimate D2E/DX2                !
 ! D3    D(14,1,2,18)          -56.119          estimate D2E/DX2                !
 ! D4    D(15,1,2,3)            60.6021         estimate D2E/DX2                !
 ! D5    D(15,1,2,17)          -59.8805         estimate D2E/DX2                !
 ! D6    D(15,1,2,18)         -175.1328         estimate D2E/DX2                !
 ! D7    D(16,1,2,3)           -60.1753         estimate D2E/DX2                !
 ! D8    D(16,1,2,17)          179.342          estimate D2E/DX2                !
 ! D9    D(16,1,2,18)           64.0897         estimate D2E/DX2                !
 ! D10   D(1,2,3,4)           -151.9156         estimate D2E/DX2                !
 ! D11   D(1,2,3,11)            93.0496         estimate D2E/DX2                !
 ! D12   D(17,2,3,4)           -33.7771         estimate D2E/DX2                !
 ! D13   D(17,2,3,11)         -148.8119         estimate D2E/DX2                !
 ! D14   D(18,2,3,4)            85.0238         estimate D2E/DX2                !
 ! D15   D(18,2,3,11)          -30.011          estimate D2E/DX2                !
 ! D16   D(2,3,4,5)            -79.9366         estimate D2E/DX2                !
 ! D17   D(2,3,4,19)           161.4591         estimate D2E/DX2                !
 ! D18   D(2,3,4,20)            45.1467         estimate D2E/DX2                !
 ! D19   D(11,3,4,5)            39.1288         estimate D2E/DX2                !
 ! D20   D(11,3,4,19)          -79.4755         estimate D2E/DX2                !
 ! D21   D(11,3,4,20)          164.2121         estimate D2E/DX2                !
 ! D22   D(2,3,11,10)          101.5492         estimate D2E/DX2                !
 ! D23   D(2,3,11,12)         -136.5672         estimate D2E/DX2                !
 ! D24   D(2,3,11,27)          -17.7275         estimate D2E/DX2                !
 ! D25   D(4,3,11,10)          -17.0732         estimate D2E/DX2                !
 ! D26   D(4,3,11,12)          104.8104         estimate D2E/DX2                !
 ! D27   D(4,3,11,27)         -136.3499         estimate D2E/DX2                !
 ! D28   D(3,4,5,6)           -164.5608         estimate D2E/DX2                !
 ! D29   D(3,4,5,10)           -45.2909         estimate D2E/DX2                !
 ! D30   D(3,4,5,21)            70.2177         estimate D2E/DX2                !
 ! D31   D(19,4,5,6)           -45.6415         estimate D2E/DX2                !
 ! D32   D(19,4,5,10)           73.6284         estimate D2E/DX2                !
 ! D33   D(19,4,5,21)         -170.8629         estimate D2E/DX2                !
 ! D34   D(20,4,5,6)            72.4161         estimate D2E/DX2                !
 ! D35   D(20,4,5,10)         -168.314          estimate D2E/DX2                !
 ! D36   D(20,4,5,21)          -52.8054         estimate D2E/DX2                !
 ! D37   D(4,5,6,7)            -69.8757         estimate D2E/DX2                !
 ! D38   D(10,5,6,7)           177.9548         estimate D2E/DX2                !
 ! D39   D(21,5,6,7)            57.8376         estimate D2E/DX2                !
 ! D40   D(4,5,10,11)           33.2692         estimate D2E/DX2                !
 ! D41   D(4,5,10,25)          -87.2453         estimate D2E/DX2                !
 ! D42   D(4,5,10,26)          153.6134         estimate D2E/DX2                !
 ! D43   D(6,5,10,11)          153.125          estimate D2E/DX2                !
 ! D44   D(6,5,10,25)           32.6104         estimate D2E/DX2                !
 ! D45   D(6,5,10,26)          -86.5309         estimate D2E/DX2                !
 ! D46   D(21,5,10,11)         -86.2928         estimate D2E/DX2                !
 ! D47   D(21,5,10,25)         153.1926         estimate D2E/DX2                !
 ! D48   D(21,5,10,26)          34.0513         estimate D2E/DX2                !
 ! D49   D(5,6,7,8)             -0.1445         estimate D2E/DX2                !
 ! D50   D(5,6,7,9)            179.043          estimate D2E/DX2                !
 ! D51   D(6,7,8,22)            -6.1562         estimate D2E/DX2                !
 ! D52   D(6,7,8,23)          -124.4772         estimate D2E/DX2                !
 ! D53   D(6,7,8,24)           115.2959         estimate D2E/DX2                !
 ! D54   D(9,7,8,22)           174.6537         estimate D2E/DX2                !
 ! D55   D(9,7,8,23)            56.3327         estimate D2E/DX2                !
 ! D56   D(9,7,8,24)           -63.8942         estimate D2E/DX2                !
 ! D57   D(5,10,11,3)          -10.9868         estimate D2E/DX2                !
 ! D58   D(5,10,11,12)        -132.0091         estimate D2E/DX2                !
 ! D59   D(5,10,11,27)         108.9214         estimate D2E/DX2                !
 ! D60   D(25,10,11,3)         108.425          estimate D2E/DX2                !
 ! D61   D(25,10,11,12)        -12.5974         estimate D2E/DX2                !
 ! D62   D(25,10,11,27)       -131.6669         estimate D2E/DX2                !
 ! D63   D(26,10,11,3)        -131.5274         estimate D2E/DX2                !
 ! D64   D(26,10,11,12)        107.4502         estimate D2E/DX2                !
 ! D65   D(26,10,11,27)        -11.6192         estimate D2E/DX2                !
 ! D66   D(3,11,12,13)         177.5741         estimate D2E/DX2                !
 ! D67   D(3,11,12,28)          56.6786         estimate D2E/DX2                !
 ! D68   D(3,11,12,29)         -61.4452         estimate D2E/DX2                !
 ! D69   D(10,11,12,13)        -63.6604         estimate D2E/DX2                !
 ! D70   D(10,11,12,28)        175.4441         estimate D2E/DX2                !
 ! D71   D(10,11,12,29)         57.3203         estimate D2E/DX2                !
 ! D72   D(27,11,12,13)         56.7613         estimate D2E/DX2                !
 ! D73   D(27,11,12,28)        -64.1342         estimate D2E/DX2                !
 ! D74   D(27,11,12,29)        177.742          estimate D2E/DX2                !
 ! D75   D(11,12,13,30)        -62.9235         estimate D2E/DX2                !
 ! D76   D(11,12,13,31)       -178.8311         estimate D2E/DX2                !
 ! D77   D(28,12,13,30)         58.5192         estimate D2E/DX2                !
 ! D78   D(28,12,13,31)        -57.3885         estimate D2E/DX2                !
 ! D79   D(29,12,13,30)        175.3222         estimate D2E/DX2                !
 ! D80   D(29,12,13,31)         59.4146         estimate D2E/DX2                !
 --------------------------------------------------------------------------------
 Trust Radius=3.00D-01 FncErr=1.00D-07 GrdErr=1.00D-06 EigMax=2.50D+02 EigMin=1.00D-04
 Number of steps in this run=    179 maximum allowed number of steps=    186.
 GradGradGradGradGradGradGradGradGradGradGradGradGradGradGradGradGradGrad

                          Input orientation:                          
 ---------------------------------------------------------------------
 Center     Atomic      Atomic             Coordinates (Angstroms)
 Number     Number       Type             X           Y           Z
 ---------------------------------------------------------------------
      1          6           0        0.993560    0.076460   -0.069480
      2          6           0        2.510680    0.070430   -0.075420
      3          7           0        2.994110    0.622990   -1.355700
      4          6           0        4.304170    0.054280   -1.690350
      5          6           0        5.289960    0.851580   -0.845760
      6          8           0        6.643970    0.695560   -1.278440
      7          6           0        7.323980   -0.465880   -1.124230
      8          6           0        6.652470   -1.646270   -0.474540
      9          8           0        8.483720   -0.563690   -1.526960
     10          6           0        4.771440    2.265690   -1.088270
     11          6           0        3.245190    2.087930   -1.240330
     12          6           0        2.699820    2.830010   -2.478680
     13          7           0        2.887560    4.277090   -2.354590
     14          1           0        0.623030   -0.337710    0.872930
     15          1           0        0.604790   -0.541870   -0.885980
     16          1           0        0.595780    1.089190   -0.180910
     17          1           0        2.833160   -0.971120    0.051670
     18          1           0        2.900230    0.618330    0.792640
     19          1           0        4.523960    0.187570   -2.757840
     20          1           0        4.330240   -1.026360   -1.535740
     21          1           0        5.227510    0.639050    0.228790
     22          1           0        5.664370   -1.449580   -0.066940
     23          1           0        7.254660   -1.980020    0.372910
     24          1           0        6.561810   -2.449670   -1.212570
     25          1           0        5.228720    2.692080   -1.989870
     26          1           0        5.014810    2.934530   -0.255120
     27          1           0        2.734820    2.500600   -0.359140
     28          1           0        1.631250    2.617190   -2.602470
     29          1           0        3.208650    2.481380   -3.385150
     30          1           0        2.352720    4.619660   -1.557310
     31          1           0        2.500170    4.736040   -3.177570
 ---------------------------------------------------------------------
                    Distance matrix (angstroms):
                    1          2          3          4          5
     1  C    0.000000
     2  C    1.517144   0.000000
     3  N    2.440340   1.475854   0.000000
     4  C    3.686170   2.413476   1.466860   0.000000
     5  C    4.434239   2.987979   2.362884   1.523418   0.000000
     6  O    5.811368   4.349958   3.651399   2.460808   1.429999
     7  C    6.440563   4.955349   4.470681   3.116137   2.439361
     8  C    5.929177   4.501198   4.394267   3.143975   2.869406
     9  O    7.657450   6.179505   5.619017   4.228146   3.559091
    10  C    4.483641   3.309995   2.434930   2.339054   1.525576
    11  C    3.238323   2.442709   1.490772   2.336598   2.421845
    12  C    4.037029   3.664248   2.493718   3.301527   3.645468
    13  N    5.143370   4.799234   3.789668   4.503346   4.447720
    14  H    1.094059   2.151550   3.392898   4.502761   5.113564
    15  H    1.095512   2.159707   2.699331   3.832469   4.888163
    16  H    1.093740   2.171599   2.710989   4.135409   4.746979
    17  H    2.120431   1.097712   2.132553   2.499990   3.188022
    18  H    2.161542   1.097940   2.150395   2.907652   2.906814
    19  H    4.438845   3.355949   2.120384   1.098002   2.164189
    20  H    3.807829   2.578038   2.130261   1.091955   2.218962
    21  H    4.281566   2.792318   2.738420   2.208531   1.097145
    22  H    4.913784   3.500895   3.617560   2.597537   2.458064
    23  H    6.605013   5.187552   5.283563   4.135313   3.655566
    24  H    6.220402   4.904658   4.710648   3.405140   3.556741
    25  H    5.335349   4.233900   3.110753   2.811137   2.167989
    26  H    4.936950   3.808678   3.261552   3.295563   2.182486
    27  H    2.998724   2.456921   2.141444   3.196789   3.079741
    28  H    3.643898   3.693963   2.718208   3.813787   4.426010
    29  H    4.656601   4.153812   2.760128   3.156474   3.665597
    30  H    4.970072   4.787112   4.052826   4.966745   4.830332
    31  H    5.800154   5.602799   4.525524   5.233079   5.320648
                    6          7          8          9         10
     6  O    0.000000
     7  C    1.354672   0.000000
     8  C    2.475984   1.505438   0.000000
     9  O    2.243246   1.231566   2.373403   0.000000
    10  C    2.451090   3.738747   4.383876   4.688162   0.000000
    11  C    3.673126   4.813725   5.112753   5.878388   1.544073
    12  C    4.642496   5.837832   6.298976   6.773217   2.557989
    13  N    5.300573   6.609945   7.266039   7.445477   3.032870
    14  H    6.476709   6.993412   6.315232   8.221982   5.275728
    15  H    6.177131   6.723842   6.161446   7.904990   5.028348
    16  H    6.159555   6.969704   6.652252   8.170891   4.432109
    17  H    4.366840   4.669633   3.914058   5.881063   3.941235
    18  H    4.279127   4.941606   4.562177   6.160607   3.122986
    19  H    2.634601   3.306931   3.620357   4.214161   2.677180
    20  H    2.895610   3.073428   2.627391   4.179179   3.351489
    21  H    2.069129   2.728868   2.783500   3.890006   2.142103
    22  H    2.651221   2.199962   1.086815   3.296239   3.955208
    23  H    3.202909   2.130458   1.091876   2.669473   5.131031
    24  H    3.146992   2.127000   1.094696   2.710996   5.045344
    25  H    2.548560   3.887436   4.810880   4.627024   1.097176
    26  H    2.952005   4.201239   4.869682   5.088070   1.095771
    27  H    4.402810   5.517767   5.705947   6.618423   2.175921
    28  H    5.529293   6.640609   6.922270   7.630928   3.503876
    29  H    4.407812   5.543829   6.113022   6.368020   2.786484
    30  H    5.821611   7.124865   7.676074   8.028524   3.407547
    31  H    6.091244   7.385480   8.079718   8.161772   3.953033
                   11         12         13         14         15
    11  C    0.000000
    12  C    1.543250   0.000000
    13  N    2.482317   1.464474   0.000000
    14  H    4.150340   5.057746   6.069708   0.000000
    15  H    3.743411   4.277314   5.530843   1.770813   0.000000
    16  H    3.023115   3.568919   4.487744   1.774081   1.776953
    17  H    3.346165   4.568264   5.773799   2.441383   2.455418
    18  H    2.532131   3.953888   4.826152   2.471052   3.071298
    19  H    2.747628   3.223027   4.423188   5.354966   4.404070
    20  H    3.311103   4.291736   5.556836   4.474297   3.812597
    21  H    2.861321   4.303477   5.038309   4.750812   4.899676
    22  H    4.443338   5.737590   6.763044   5.247354   5.205201
    23  H    5.935201   7.212109   8.103224   6.850235   6.919093
    24  H    5.620547   6.662809   7.749427   6.639186   6.263581
    25  H    2.204813   2.579398   2.850668   6.211894   5.749586
    26  H    2.195205   3.211592   3.276497   5.591760   5.650807
    27  H    1.098758   2.145271   2.676017   3.746152   3.751161
    28  H    2.177233   1.096567   2.096432   4.671868   3.738933
    29  H    2.180915   1.096421   2.095168   5.723980   4.708076
    30  H    2.703079   2.042608   1.019345   5.785621   5.490659
    31  H    3.364586   2.039916   1.018824   6.758191   6.058068
                   16         17         18         19         20
    16  H    0.000000
    17  H    3.050384   0.000000
    18  H    2.545584   1.754960   0.000000
    19  H    4.783731   3.477745   3.927844   0.000000
    20  H    4.500812   2.182698   3.189246   1.733402   0.000000
    21  H    4.671553   2.890836   2.394700   3.101415   2.586938
    22  H    5.670004   2.873803   3.557471   3.349886   2.028889
    23  H    7.353057   4.546508   5.088090   4.685805   3.620034
    24  H    7.012943   4.205620   5.180797   3.673653   2.666487
    25  H    5.225488   4.829661   4.179075   2.712754   3.852311
    26  H    4.789427   4.484174   3.306665   3.748377   4.218681
    27  H    2.568917   3.497324   2.212894   3.782181   4.045887
    28  H    3.044821   4.622231   4.139145   3.780868   4.658102
    29  H    4.362618   4.885947   4.584758   2.717558   4.120985
    30  H    4.176785   5.837505   4.672545   5.079269   5.982357
    31  H    5.089812   6.565862   5.733947   4.996046   6.264983
                   21         22         23         24         25
    21  H    0.000000
    22  H    2.154223   0.000000
    23  H    3.315062   1.733164   0.000000
    24  H    3.660337   1.765799   1.792863   0.000000
    25  H    3.022811   4.587025   5.613883   5.368325   0.000000
    26  H    2.355555   4.435962   5.437293   5.683267   1.764624
    27  H    3.166154   4.926618   6.406310   6.315011   2.985880
    28  H    4.986197   6.263672   7.849202   7.205228   3.650024
    29  H    4.531064   5.700309   7.099106   6.346577   2.464119
    30  H    5.224924   7.072758   8.444557   8.234726   3.489133
    31  H    5.985566   7.612495   8.961950   8.484844   3.610179
                   26         27         28         29         30
    26  H    0.000000
    27  H    2.323246   0.000000
    28  H    4.130283   2.502796   0.000000
    29  H    3.642066   3.062943   1.766132   0.000000
    30  H    3.409118   2.464148   2.371237   2.940384   0.000000
    31  H    4.255534   3.604969   2.361205   2.372451   1.631113
                   31
    31  H    0.000000
 Stoichiometry    C9H18N2O2
 Framework group  C1[X(C9H18N2O2)]
 Deg. of freedom    87
 Full point group                 C1      NOp   1
 Largest Abelian subgroup         C1      NOp   1
 Largest concise Abelian subgroup C1      NOp   1
                         Standard orientation:                         
 ---------------------------------------------------------------------
 Center     Atomic      Atomic             Coordinates (Angstroms)
 Number     Number       Type             X           Y           Z
 ---------------------------------------------------------------------
      1          6           0       -2.516696    2.718276   -0.093038
      2          6           0       -1.201114    2.004431   -0.340816
      3          7           0       -1.139897    0.792347    0.498975
      4          6           0        0.254840    0.462513    0.811378
      5          6           0        0.766347   -0.242244   -0.438614
      6          8           0        1.987750   -0.951481   -0.214886
      7          6           0        3.163265   -0.316293    0.008359
      8          6           0        3.210517    1.188333    0.022875
      9          8           0        4.189551   -0.965261    0.214106
     10          6           0       -0.400646   -1.185623   -0.713470
     11          6           0       -1.643010   -0.396150   -0.247184
     12          6           0       -2.563609   -1.249384    0.650652
     13          7           0       -3.112102   -2.390509   -0.085333
     14          1           0       -2.570768    3.623099   -0.705686
     15          1           0       -2.598628    3.016741    0.957844
     16          1           0       -3.371312    2.082429   -0.341226
     17          1           0       -0.396336    2.704720   -0.082169
     18          1           0       -1.080187    1.782078   -1.409183
     19          1           0        0.309939   -0.211161    1.676673
     20          1           0        0.824293    1.344630    1.111310
     21          1           0        0.887241    0.420899   -1.304266
     22          1           0        2.283960    1.682809   -0.256680
     23          1           0        3.952186    1.531028   -0.701473
     24          1           0        3.483595    1.522106    1.029048
     25          1           0       -0.274934   -2.122835   -0.157028
     26          1           0       -0.468569   -1.446819   -1.775486
     27          1           0       -2.232868   -0.084675   -1.120293
     28          1           0       -3.390637   -0.636654    1.028865
     29          1           0       -2.008533   -1.620204    1.520435
     30          1           0       -3.693724   -2.050652   -0.850367
     31          1           0       -3.728501   -2.919601    0.529578
 ---------------------------------------------------------------------
 Rotational constants (GHZ):           1.1716946           0.4538978           0.3490916
 Standard basis: 6-31G(2df,p) (6D, 7F)
 There are   493 symmetry adapted cartesian basis functions of A   symmetry.
 There are   454 symmetry adapted basis functions of A   symmetry.
   454 basis functions,   698 primitive gaussians,   493 cartesian basis functions
    51 alpha electrons       51 beta electrons
       nuclear repulsion energy       867.8638862980 Hartrees.
 NAtoms=   31 NActive=   31 NUniq=   31 SFac= 1.00D+00 NAtFMM=   60 NAOKFM=F Big=F
 Integral buffers will be    131072 words long.
 Raffenetti 2 integral format.
 Two-electron integral symmetry is turned on.
 One-electron integrals computed using PRISM.
 PrsmSu:  requested number of processors reduced to:  12 ShMem   1 Linda.
 NBasis=   454 RedAO= T EigKep=  2.66D-04  NBF=   454
 NBsUse=   454 1.00D-06 EigRej= -1.00D+00 NBFU=   454
 ExpMin= 1.61D-01 ExpMax= 5.48D+03 ExpMxC= 8.25D+02 IAcc=3 IRadAn=         5 AccDes= 0.00D+00
 Harris functional with IExCor=  402 and IRadAn=       5 diagonalized for initial guess.
 HarFok:  IExCor=  402 AccDes= 0.00D+00 IRadAn=         5 IDoV= 1 UseB2=F ITyADJ=14
 ICtDFT=  3500011 ScaDFX=  1.000000  1.000000  1.000000  1.000000
 FoFCou: FMM=F IPFlag=           0 FMFlag=      100000 FMFlg1=           0
         NFxFlg=           0 DoJE=T BraDBF=F KetDBF=T FulRan=T
         wScrn=  0.000000 ICntrl=       500 IOpCl=  0 I1Cent=   200000004 NGrid=           0
         NMat0=    1 NMatS0=      1 NMatT0=    0 NMatD0=    1 NMtDS0=    0 NMtDT0=    0
 Petite list used in FoFCou.
 Requested convergence on RMS density matrix=1.00D-08 within 128 cycles.
 Requested convergence on MAX density matrix=1.00D-06.
 Requested convergence on             energy=1.00D-06.
 No special actions if energy rises.
 Integral accuracy reduced to 1.0D-05 until final iterations.
 Initial convergence to 1.0D-05 achieved.  Increase integral accuracy.
 SCF Done:  E(RB3LYP) =  -613.766046278     A.U. after   14 cycles
            NFock= 14  Conv=0.47D-08     -V/T= 2.0076

 **********************************************************************

            Population analysis using the SCF density.

 **********************************************************************

 Orbital symmetries:
       Occupied  (A) (A) (A) (A) (A) (A) (A) (A) (A) (A) (A) (A)
                 (A) (A) (A) (A) (A) (A) (A) (A) (A) (A) (A) (A)
                 (A) (A) (A) (A) (A) (A) (A) (A) (A) (A) (A) (A)
                 (A) (A) (A) (A) (A) (A) (A) (A) (A) (A) (A) (A)
                 (A) (A) (A)
       Virtual   (A) (A) (A) (A) (A) (A) (A) (A) (A) (A) (A) (A)
                 (A) (A) (A) (A) (A) (A) (A) (A) (A) (A) (A) (A)
                 (A) (A) (A) (A) (A) (A) (A) (A) (A) (A) (A) (A)
                 (A) (A) (A) (A) (A) (A) (A) (A) (A) (A) (A) (A)
                 (A) (A) (A) (A) (A) (A) (A) (A) (A) (A) (A) (A)
                 (A) (A) (A) (A) (A) (A) (A) (A) (A) (A) (A) (A)
                 (A) (A) (A) (A) (A) (A) (A) (A) (A) (A) (A) (A)
                 (A) (A) (A) (A) (A) (A) (A) (A) (A) (A) (A) (A)
                 (A) (A) (A) (A) (A) (A) (A) (A) (A) (A) (A) (A)
                 (A) (A) (A) (A) (A) (A) (A) (A) (A) (A) (A) (A)
                 (A) (A) (A) (A) (A) (A) (A) (A) (A) (A) (A) (A)
                 (A) (A) (A) (A) (A) (A) (A) (A) (A) (A) (A) (A)
                 (A) (A) (A) (A) (A) (A) (A) (A) (A) (A) (A) (A)
                 (A) (A) (A) (A) (A) (A) (A) (A) (A) (A) (A) (A)
                 (A) (A) (A) (A) (A) (A) (A) (A) (A) (A) (A) (A)
                 (A) (A) (A) (A) (A) (A) (A) (A) (A) (A) (A) (A)
                 (A) (A) (A) (A) (A) (A) (A) (A) (A) (A) (A) (A)
                 (A) (A) (A) (A) (A) (A) (A) (A) (A) (A) (A) (A)
                 (A) (A) (A) (A) (A) (A) (A) (A) (A) (A) (A) (A)
                 (A) (A) (A) (A) (A) (A) (A) (A) (A) (A) (A) (A)
                 (A) (A) (A) (A) (A) (A) (A) (A) (A) (A) (A) (A)
                 (A) (A) (A) (A) (A) (A) (A) (A) (A) (A) (A) (A)
                 (A) (A) (A) (A) (A) (A) (A) (A) (A) (A) (A) (A)
                 (A) (A) (A) (A) (A) (A) (A) (A) (A) (A) (A) (A)
                 (A) (A) (A) (A) (A) (A) (A) (A) (A) (A) (A) (A)
                 (A) (A) (A) (A) (A) (A) (A) (A) (A) (A) (A) (A)
                 (A) (A) (A) (A) (A) (A) (A) (A) (A) (A) (A) (A)
                 (A) (A) (A) (A) (A) (A) (A) (A) (A) (A) (A) (A)
                 (A) (A) (A) (A) (A) (A) (A) (A) (A) (A) (A) (A)
                 (A) (A) (A) (A) (A) (A) (A) (A) (A) (A) (A) (A)
                 (A) (A) (A) (A) (A) (A) (A) (A) (A) (A) (A) (A)
                 (A) (A) (A) (A) (A) (A) (A) (A) (A) (A) (A) (A)
                 (A) (A) (A) (A) (A) (A) (A) (A) (A) (A) (A) (A)
                 (A) (A) (A) (A) (A) (A) (A)
 The electronic state is 1-A.
 Alpha  occ. eigenvalues --  -19.18005 -19.10996 -14.32766 -14.31120 -10.30676
 Alpha  occ. eigenvalues --  -10.24872 -10.21863 -10.21343 -10.21147 -10.20524
 Alpha  occ. eigenvalues --  -10.19647 -10.18501 -10.17706  -1.08812  -0.99840
 Alpha  occ. eigenvalues --   -0.94251  -0.88031  -0.79697  -0.75121  -0.74503
 Alpha  occ. eigenvalues --   -0.73691  -0.65995  -0.63421  -0.60723  -0.57503
 Alpha  occ. eigenvalues --   -0.56081  -0.51644  -0.50502  -0.48327  -0.47403
 Alpha  occ. eigenvalues --   -0.46618  -0.45465  -0.45014  -0.44378  -0.42841
 Alpha  occ. eigenvalues --   -0.41810  -0.40261  -0.39085  -0.38566  -0.38080
 Alpha  occ. eigenvalues --   -0.37325  -0.36755  -0.36058  -0.34642  -0.34535
 Alpha  occ. eigenvalues --   -0.32773  -0.32159  -0.28953  -0.25667  -0.23713
 Alpha  occ. eigenvalues --   -0.22633
 Alpha virt. eigenvalues --    0.00788   0.05914   0.07303   0.08365   0.09165
 Alpha virt. eigenvalues --    0.10432   0.11259   0.12413   0.13563   0.14325
 Alpha virt. eigenvalues --    0.15066   0.16059   0.16416   0.16653   0.17257
 Alpha virt. eigenvalues --    0.17555   0.18195   0.19089   0.19511   0.19636
 Alpha virt. eigenvalues --    0.20421   0.21838   0.23483   0.23815   0.24207
 Alpha virt. eigenvalues --    0.25091   0.25775   0.27812   0.28130   0.31591
 Alpha virt. eigenvalues --    0.32043   0.35765   0.39628   0.43394   0.45202
 Alpha virt. eigenvalues --    0.46106   0.47885   0.48723   0.49119   0.49700
 Alpha virt. eigenvalues --    0.49905   0.50555   0.52331   0.53407   0.54125
 Alpha virt. eigenvalues --    0.54206   0.54755   0.56015   0.58516   0.59132
 Alpha virt. eigenvalues --    0.60096   0.60841   0.61698   0.62913   0.63863
 Alpha virt. eigenvalues --    0.64748   0.65276   0.66776   0.68165   0.68527
 Alpha virt. eigenvalues --    0.69227   0.71306   0.71490   0.71937   0.72962
 Alpha virt. eigenvalues --    0.73323   0.74114   0.74873   0.75209   0.76655
 Alpha virt. eigenvalues --    0.76710   0.78654   0.79119   0.79725   0.80128
 Alpha virt. eigenvalues --    0.81209   0.81885   0.82509   0.83045   0.84037
 Alpha virt. eigenvalues --    0.84854   0.86071   0.86481   0.87488   0.89569
 Alpha virt. eigenvalues --    0.89855   0.91058   0.92101   0.93846   0.95180
 Alpha virt. eigenvalues --    0.97758   0.98473   0.99556   1.00149   1.02491
 Alpha virt. eigenvalues --    1.02863   1.04727   1.08353   1.09544   1.10393
 Alpha virt. eigenvalues --    1.11753   1.12328   1.14878   1.18184   1.19150
 Alpha virt. eigenvalues --    1.22366   1.23199   1.24620   1.26242   1.28527
 Alpha virt. eigenvalues --    1.29145   1.30557   1.32602   1.32983   1.34440
 Alpha virt. eigenvalues --    1.35867   1.36415   1.37435   1.38362   1.41826
 Alpha virt. eigenvalues --    1.42540   1.46359   1.47326   1.48078   1.48891
 Alpha virt. eigenvalues --    1.49466   1.51266   1.52355   1.53862   1.54956
 Alpha virt. eigenvalues --    1.55786   1.55961   1.58319   1.59013   1.59735
 Alpha virt. eigenvalues --    1.60888   1.61995   1.63450   1.65905   1.68886
 Alpha virt. eigenvalues --    1.70677   1.71250   1.72866   1.73933   1.74790
 Alpha virt. eigenvalues --    1.75535   1.78874   1.79689   1.82457   1.83279
 Alpha virt. eigenvalues --    1.85484   1.86346   1.87535   1.89659   1.91337
 Alpha virt. eigenvalues --    1.92452   1.95450   1.95796   1.96770   1.98951
 Alpha virt. eigenvalues --    2.00876   2.03096   2.05372   2.06490   2.08664
 Alpha virt. eigenvalues --    2.11367   2.14116   2.16169   2.16682   2.20251
 Alpha virt. eigenvalues --    2.21300   2.23064   2.25682   2.26783   2.29916
 Alpha virt. eigenvalues --    2.31233   2.34106   2.34834   2.35942   2.39073
 Alpha virt. eigenvalues --    2.41362   2.42691   2.44563   2.46578   2.48779
 Alpha virt. eigenvalues --    2.49318   2.51752   2.53357   2.56277   2.61069
 Alpha virt. eigenvalues --    2.62937   2.63525   2.66258   2.69074   2.71047
 Alpha virt. eigenvalues --    2.73111   2.73209   2.74484   2.76263   2.77370
 Alpha virt. eigenvalues --    2.78281   2.79044   2.81357   2.82370   2.82816
 Alpha virt. eigenvalues --    2.84459   2.85895   2.86518   2.88341   2.89240
 Alpha virt. eigenvalues --    2.90071   2.91625   2.92242   2.94663   2.95554
 Alpha virt. eigenvalues --    2.96471   2.97604   2.98676   2.99750   3.01084
 Alpha virt. eigenvalues --    3.04432   3.05369   3.07153   3.08397   3.09656
 Alpha virt. eigenvalues --    3.11473   3.11903   3.14180   3.16194   3.17568
 Alpha virt. eigenvalues --    3.19265   3.22461   3.23425   3.25906   3.27179
 Alpha virt. eigenvalues --    3.28473   3.29585   3.29724   3.31886   3.34730
 Alpha virt. eigenvalues --    3.35608   3.37201   3.38659   3.39745   3.41015
 Alpha virt. eigenvalues --    3.43624   3.43861   3.45301   3.47554   3.50420
 Alpha virt. eigenvalues --    3.52206   3.54487   3.55931   3.58196   3.59399
 Alpha virt. eigenvalues --    3.60882   3.62142   3.64814   3.65858   3.67868
 Alpha virt. eigenvalues --    3.70554   3.72532   3.73550   3.76402   3.78450
 Alpha virt. eigenvalues --    3.79051   3.81762   3.82679   3.84339   3.86290
 Alpha virt. eigenvalues --    3.87380   3.92051   3.94896   3.97189   4.00784
 Alpha virt. eigenvalues --    4.02080   4.04087   4.05066   4.08448   4.09358
 Alpha virt. eigenvalues --    4.12922   4.14080   4.18040   4.20357   4.22821
 Alpha virt. eigenvalues --    4.23688   4.24490   4.26891   4.28406   4.28961
 Alpha virt. eigenvalues --    4.32341   4.34147   4.34509   4.36485   4.36975
 Alpha virt. eigenvalues --    4.38782   4.41099   4.43174   4.44289   4.44380
 Alpha virt. eigenvalues --    4.46111   4.47235   4.48064   4.48544   4.50047
 Alpha virt. eigenvalues --    4.50850   4.51477   4.52295   4.53903   4.54672
 Alpha virt. eigenvalues --    4.55870   4.57449   4.57818   4.59400   4.60593
 Alpha virt. eigenvalues --    4.60926   4.62376   4.64485   4.65502   4.66983
 Alpha virt. eigenvalues --    4.68347   4.69027   4.70157   4.71258   4.72060
 Alpha virt. eigenvalues --    4.73898   4.74776   4.75412   4.76708   4.78154
 Alpha virt. eigenvalues --    4.78344   4.80159   4.82572   4.83634   4.84017
 Alpha virt. eigenvalues --    4.84373   4.87827   4.89101   4.89625   4.90331
 Alpha virt. eigenvalues --    4.91386   4.93641   4.95355   4.97699   4.98276
 Alpha virt. eigenvalues --    4.99913   5.01223   5.02782   5.05611   5.07604
 Alpha virt. eigenvalues --    5.10716   5.11423   5.11947   5.12655   5.17350
 Alpha virt. eigenvalues --    5.21160   5.21409   5.23628   5.25362   5.30659
 Alpha virt. eigenvalues --    5.32846   5.35158   5.38433   5.41348   5.42899
 Alpha virt. eigenvalues --    5.44187   5.48769   5.51550   5.53266   5.55240
 Alpha virt. eigenvalues --    5.58775   5.65414   5.66699   5.70140   5.76135
 Alpha virt. eigenvalues --    5.79009   5.81924   5.95103   5.96923   6.06308
 Alpha virt. eigenvalues --    6.09086   6.10563   6.30966   6.42367   6.65105
 Alpha virt. eigenvalues --    6.78994   6.96147   7.39316   9.78653  11.02368
 Alpha virt. eigenvalues --   11.26285  11.42572  11.44286  11.57511  11.85107
 Alpha virt. eigenvalues --   12.00492  12.19252  12.36077  12.59407  12.85277
 Alpha virt. eigenvalues --   13.08378  13.73085  20.02755
          Condensed to atoms (all electrons):
               1          2          3          4          5          6
     1  C    4.966992   0.423881  -0.048305   0.002089  -0.000225  -0.000001
     2  C    0.423881   4.846777   0.358639  -0.068363  -0.007370   0.000047
     3  N   -0.048305   0.358639   6.271024   0.370711  -0.056174   0.002136
     4  C    0.002089  -0.068363   0.370711   5.098651   0.336893  -0.028854
     5  C   -0.000225  -0.007370  -0.056174   0.336893   4.744944   0.314187
     6  O   -0.000001   0.000047   0.002136  -0.028854   0.314187   7.727007
     7  C   -0.000001   0.000013  -0.000005  -0.003655  -0.062114   0.393660
     8  C    0.000003  -0.000144   0.000226  -0.004989   0.008534  -0.085466
     9  O   -0.000000  -0.000000  -0.000001  -0.000218   0.000949  -0.052097
    10  C    0.000021   0.001523  -0.039541  -0.064547   0.395589  -0.016126
    11  C    0.002444  -0.046566   0.359328  -0.077749  -0.054720   0.000911
    12  C   -0.000457   0.003821  -0.034224   0.003072  -0.001142   0.000014
    13  N    0.000006  -0.000153   0.002005  -0.000062   0.000972  -0.000001
    14  H    0.356213  -0.024548   0.004033  -0.000158   0.000025  -0.000000
    15  H    0.373686  -0.026094   0.003898   0.000563   0.000052   0.000000
    16  H    0.378406  -0.029575  -0.002353   0.000196  -0.000002  -0.000000
    17  H   -0.034914   0.364495  -0.022673  -0.007195  -0.000791  -0.000013
    18  H   -0.048935   0.350564  -0.032681   0.003226   0.004257   0.000012
    19  H   -0.000184   0.005968  -0.018850   0.352494  -0.039909   0.001967
    20  H    0.000320  -0.009246  -0.014695   0.363390  -0.034067   0.001146
    21  H    0.000044   0.002600   0.001832  -0.059037   0.358877  -0.029126
    22  H   -0.000012   0.000416  -0.000309  -0.004590   0.003721  -0.000560
    23  H   -0.000000  -0.000004  -0.000004   0.000209  -0.000423   0.001246
    24  H   -0.000000  -0.000002  -0.000000   0.000045  -0.000695   0.001151
    25  H    0.000007  -0.000023   0.001214  -0.004493  -0.020092   0.000791
    26  H    0.000002  -0.000016   0.002778   0.006733  -0.024049   0.001678
    27  H    0.000019  -0.013289  -0.028981   0.006630   0.001984  -0.000068
    28  H    0.000296  -0.000296   0.004904   0.000006   0.000330  -0.000000
    29  H   -0.000031   0.000092  -0.002078   0.000703   0.000067  -0.000028
    30  H   -0.000002  -0.000004  -0.000002   0.000008  -0.000053  -0.000000
    31  H   -0.000000   0.000003  -0.000114   0.000008  -0.000018   0.000000
               7          8          9         10         11         12
     1  C   -0.000001   0.000003  -0.000000   0.000021   0.002444  -0.000457
     2  C    0.000013  -0.000144  -0.000000   0.001523  -0.046566   0.003821
     3  N   -0.000005   0.000226  -0.000001  -0.039541   0.359328  -0.034224
     4  C   -0.003655  -0.004989  -0.000218  -0.064547  -0.077749   0.003072
     5  C   -0.062114   0.008534   0.000949   0.395589  -0.054720  -0.001142
     6  O    0.393660  -0.085466  -0.052097  -0.016126   0.000911   0.000014
     7  C    4.184365   0.327507   0.768081   0.001625  -0.000067   0.000000
     8  C    0.327507   5.256107  -0.075294   0.000180   0.000016  -0.000000
     9  O    0.768081  -0.075294   7.714675  -0.000090   0.000001  -0.000000
    10  C    0.001625   0.000180  -0.000090   5.011205   0.355863  -0.031064
    11  C   -0.000067   0.000016   0.000001   0.355863   4.791842   0.402655
    12  C    0.000000  -0.000000  -0.000000  -0.031064   0.402655   4.922433
    13  N    0.000000   0.000000   0.000000   0.007148  -0.037941   0.334294
    14  H   -0.000000  -0.000000  -0.000000   0.000009  -0.000287   0.000009
    15  H    0.000000  -0.000000   0.000000   0.000000  -0.000392   0.000079
    16  H    0.000000  -0.000000  -0.000000   0.000023   0.001361  -0.000597
    17  H    0.000028  -0.000387  -0.000000  -0.000054   0.003929  -0.000254
    18  H    0.000002  -0.000023   0.000000   0.002457  -0.010491   0.000182
    19  H    0.001351   0.000247  -0.000062  -0.005890   0.002632  -0.000135
    20  H    0.000393  -0.000865  -0.000005   0.005938   0.005404  -0.000040
    21  H   -0.004243   0.002269  -0.000088  -0.040267   0.004704  -0.000213
    22  H   -0.012074   0.341596   0.003318   0.000019  -0.000014  -0.000001
    23  H   -0.010666   0.366225  -0.001514  -0.000011   0.000000  -0.000000
    24  H   -0.010729   0.370163  -0.001904  -0.000017  -0.000000  -0.000000
    25  H    0.000169   0.000033  -0.000017   0.352669  -0.019308  -0.013018
    26  H    0.000030   0.000020   0.000000   0.359251  -0.020287   0.003255
    27  H    0.000000  -0.000000  -0.000000  -0.038218   0.356570  -0.057451
    28  H    0.000000   0.000000   0.000000   0.005361  -0.040855   0.374171
    29  H   -0.000001  -0.000000  -0.000000  -0.008267  -0.015384   0.350640
    30  H   -0.000000  -0.000000  -0.000000  -0.001107  -0.002303  -0.054110
    31  H   -0.000000   0.000000  -0.000000  -0.000112   0.004494  -0.039767
              13         14         15         16         17         18
     1  C    0.000006   0.356213   0.373686   0.378406  -0.034914  -0.048935
     2  C   -0.000153  -0.024548  -0.026094  -0.029575   0.364495   0.350564
     3  N    0.002005   0.004033   0.003898  -0.002353  -0.022673  -0.032681
     4  C   -0.000062  -0.000158   0.000563   0.000196  -0.007195   0.003226
     5  C    0.000972   0.000025   0.000052  -0.000002  -0.000791   0.004257
     6  O   -0.000001  -0.000000   0.000000  -0.000000  -0.000013   0.000012
     7  C    0.000000  -0.000000   0.000000   0.000000   0.000028   0.000002
     8  C    0.000000  -0.000000  -0.000000  -0.000000  -0.000387  -0.000023
     9  O    0.000000  -0.000000   0.000000  -0.000000  -0.000000   0.000000
    10  C    0.007148   0.000009   0.000000   0.000023  -0.000054   0.002457
    11  C   -0.037941  -0.000287  -0.000392   0.001361   0.003929  -0.010491
    12  C    0.334294   0.000009   0.000079  -0.000597  -0.000254   0.000182
    13  N    6.591226   0.000000   0.000002  -0.000012   0.000001   0.000038
    14  H    0.000000   0.618305  -0.028999  -0.030190  -0.001454   0.002393
    15  H    0.000002  -0.028999   0.583480  -0.031498  -0.005064   0.006117
    16  H   -0.000012  -0.030190  -0.031498   0.594834   0.005647  -0.004385
    17  H    0.000001  -0.001454  -0.005064   0.005647   0.636318  -0.044114
    18  H    0.000038   0.002393   0.006117  -0.004385  -0.044114   0.675681
    19  H   -0.000091   0.000002  -0.000054   0.000008   0.000335  -0.000446
    20  H    0.000001  -0.000018   0.000040   0.000000   0.005023   0.000200
    21  H   -0.000003  -0.000002   0.000001   0.000006   0.000576   0.000525
    22  H    0.000000   0.000000   0.000000   0.000001   0.001780   0.000121
    23  H    0.000000  -0.000000   0.000000  -0.000000   0.000005   0.000002
    24  H   -0.000000   0.000000  -0.000000   0.000000  -0.000001  -0.000001
    25  H    0.003420  -0.000000  -0.000000   0.000002   0.000015  -0.000108
    26  H   -0.000073  -0.000001  -0.000000  -0.000002   0.000001  -0.000479
    27  H   -0.000731  -0.000096   0.000096   0.002882   0.000497   0.007085
    28  H   -0.043334   0.000008   0.000118   0.001047  -0.000001   0.000090
    29  H   -0.022953  -0.000000   0.000001   0.000010   0.000013   0.000005
    30  H    0.341416  -0.000000   0.000000   0.000003   0.000000   0.000005
    31  H    0.339856   0.000000   0.000000  -0.000003  -0.000000   0.000000
              19         20         21         22         23         24
     1  C   -0.000184   0.000320   0.000044  -0.000012  -0.000000  -0.000000
     2  C    0.005968  -0.009246   0.002600   0.000416  -0.000004  -0.000002
     3  N   -0.018850  -0.014695   0.001832  -0.000309  -0.000004  -0.000000
     4  C    0.352494   0.363390  -0.059037  -0.004590   0.000209   0.000045
     5  C   -0.039909  -0.034067   0.358877   0.003721  -0.000423  -0.000695
     6  O    0.001967   0.001146  -0.029126  -0.000560   0.001246   0.001151
     7  C    0.001351   0.000393  -0.004243  -0.012074  -0.010666  -0.010729
     8  C    0.000247  -0.000865   0.002269   0.341596   0.366225   0.370163
     9  O   -0.000062  -0.000005  -0.000088   0.003318  -0.001514  -0.001904
    10  C   -0.005890   0.005938  -0.040267   0.000019  -0.000011  -0.000017
    11  C    0.002632   0.005404   0.004704  -0.000014   0.000000  -0.000000
    12  C   -0.000135  -0.000040  -0.000213  -0.000001  -0.000000  -0.000000
    13  N   -0.000091   0.000001  -0.000003   0.000000   0.000000  -0.000000
    14  H    0.000002  -0.000018  -0.000002   0.000000  -0.000000   0.000000
    15  H   -0.000054   0.000040   0.000001   0.000000   0.000000  -0.000000
    16  H    0.000008   0.000000   0.000006   0.000001  -0.000000   0.000000
    17  H    0.000335   0.005023   0.000576   0.001780   0.000005  -0.000001
    18  H   -0.000446   0.000200   0.000525   0.000121   0.000002  -0.000001
    19  H    0.615971  -0.039814   0.005933  -0.000100  -0.000015   0.000043
    20  H   -0.039814   0.615349  -0.005540   0.000950   0.000056   0.001219
    21  H    0.005933  -0.005540   0.667397   0.001874   0.000238  -0.000108
    22  H   -0.000100   0.000950   0.001874   0.596139  -0.029684  -0.031182
    23  H   -0.000015   0.000056   0.000238  -0.029684   0.538632  -0.019968
    24  H    0.000043   0.001219  -0.000108  -0.031182  -0.019968   0.532065
    25  H    0.002672  -0.000157   0.006015   0.000015   0.000000   0.000000
    26  H    0.000036  -0.000235  -0.008577   0.000006  -0.000000  -0.000000
    27  H   -0.000236  -0.000250   0.000172   0.000003  -0.000000   0.000000
    28  H   -0.000046  -0.000006   0.000011   0.000000  -0.000000   0.000000
    29  H    0.001723  -0.000063   0.000009   0.000000  -0.000000   0.000000
    30  H    0.000001  -0.000000   0.000000  -0.000000   0.000000  -0.000000
    31  H    0.000001  -0.000000   0.000000  -0.000000  -0.000000  -0.000000
              25         26         27         28         29         30
     1  C    0.000007   0.000002   0.000019   0.000296  -0.000031  -0.000002
     2  C   -0.000023  -0.000016  -0.013289  -0.000296   0.000092  -0.000004
     3  N    0.001214   0.002778  -0.028981   0.004904  -0.002078  -0.000002
     4  C   -0.004493   0.006733   0.006630   0.000006   0.000703   0.000008
     5  C   -0.020092  -0.024049   0.001984   0.000330   0.000067  -0.000053
     6  O    0.000791   0.001678  -0.000068  -0.000000  -0.000028  -0.000000
     7  C    0.000169   0.000030   0.000000   0.000000  -0.000001  -0.000000
     8  C    0.000033   0.000020  -0.000000   0.000000  -0.000000  -0.000000
     9  O   -0.000017   0.000000  -0.000000   0.000000  -0.000000  -0.000000
    10  C    0.352669   0.359251  -0.038218   0.005361  -0.008267  -0.001107
    11  C   -0.019308  -0.020287   0.356570  -0.040855  -0.015384  -0.002303
    12  C   -0.013018   0.003255  -0.057451   0.374171   0.350640  -0.054110
    13  N    0.003420  -0.000073  -0.000731  -0.043334  -0.022953   0.341416
    14  H   -0.000000  -0.000001  -0.000096   0.000008  -0.000000  -0.000000
    15  H   -0.000000  -0.000000   0.000096   0.000118   0.000001   0.000000
    16  H    0.000002  -0.000002   0.002882   0.001047   0.000010   0.000003
    17  H    0.000015   0.000001   0.000497  -0.000001   0.000013   0.000000
    18  H   -0.000108  -0.000479   0.007085   0.000090   0.000005   0.000005
    19  H    0.002672   0.000036  -0.000236  -0.000046   0.001723   0.000001
    20  H   -0.000157  -0.000235  -0.000250  -0.000006  -0.000063  -0.000000
    21  H    0.006015  -0.008577   0.000172   0.000011   0.000009   0.000000
    22  H    0.000015   0.000006   0.000003   0.000000   0.000000  -0.000000
    23  H    0.000000  -0.000000  -0.000000  -0.000000  -0.000000   0.000000
    24  H    0.000000  -0.000000   0.000000   0.000000   0.000000  -0.000000
    25  H    0.584407  -0.036296   0.005153   0.000399   0.004676   0.000056
    26  H   -0.036296   0.618724  -0.008992  -0.000238   0.000004   0.000107
    27  H    0.005153  -0.008992   0.687002  -0.004342   0.006372   0.006096
    28  H    0.000399  -0.000238  -0.004342   0.671512  -0.045538  -0.005283
    29  H    0.004676   0.000004   0.006372  -0.045538   0.620002   0.006523
    30  H    0.000056   0.000107   0.006096  -0.005283   0.006523   0.518973
    31  H   -0.000263   0.000030  -0.000143  -0.004262  -0.002946  -0.032173
              31
     1  C   -0.000000
     2  C    0.000003
     3  N   -0.000114
     4  C    0.000008
     5  C   -0.000018
     6  O    0.000000
     7  C   -0.000000
     8  C    0.000000
     9  O   -0.000000
    10  C   -0.000112
    11  C    0.004494
    12  C   -0.039767
    13  N    0.339856
    14  H    0.000000
    15  H    0.000000
    16  H   -0.000003
    17  H   -0.000000
    18  H    0.000000
    19  H    0.000001
    20  H   -0.000000
    21  H    0.000000
    22  H   -0.000000
    23  H   -0.000000
    24  H   -0.000000
    25  H   -0.000263
    26  H    0.000030
    27  H   -0.000143
    28  H   -0.004262
    29  H   -0.002946
    30  H   -0.032173
    31  H    0.505689
 Mulliken charges:
               1
     1  C   -0.371365
     2  C   -0.133146
     3  N   -0.081738
     4  C   -0.221715
     5  C    0.130463
     6  O   -0.233614
     7  C    0.426328
     8  C   -0.505958
     9  O   -0.355734
    10  C   -0.253572
    11  C    0.034210
    12  C   -0.162154
    13  N   -0.515031
    14  H    0.104757
    15  H    0.123967
    16  H    0.114187
    17  H    0.098254
    18  H    0.088700
    19  H    0.114448
    20  H    0.105573
    21  H    0.094122
    22  H    0.128566
    23  H    0.155675
    24  H    0.159922
    25  H    0.132059
    26  H    0.106591
    27  H    0.072237
    28  H    0.085949
    29  H    0.106450
    30  H    0.221849
    31  H    0.229718
 Sum of Mulliken charges =  -0.00000
 Mulliken charges with hydrogens summed into heavy atoms:
               1
     1  C   -0.028454
     2  C    0.053809
     3  N   -0.081738
     4  C   -0.001694
     5  C    0.224585
     6  O   -0.233614
     7  C    0.426328
     8  C   -0.061795
     9  O   -0.355734
    10  C   -0.014922
    11  C    0.106447
    12  C    0.030246
    13  N   -0.063464
 Electronic spatial extent (au):  <R**2>=           3209.8622
 Charge=             -0.0000 electrons
 Dipole moment (field-independent basis, Debye):
    X=             -4.1210    Y=              3.1511    Z=             -0.7986  Tot=              5.2488
 Quadrupole moment (field-independent basis, Debye-Ang):
   XX=            -89.6824   YY=            -82.7090   ZZ=            -77.2500
   XY=             13.7353   XZ=             -0.3176   YZ=             -2.2847
 Traceless Quadrupole moment (field-independent basis, Debye-Ang):
   XX=             -6.4686   YY=              0.5048   ZZ=              5.9638
   XY=             13.7353   XZ=             -0.3176   YZ=             -2.2847
 Octapole moment (field-independent basis, Debye-Ang**2):
  XXX=           -106.9760  YYY=              4.7447  ZZZ=             -0.8409  XYY=             -4.6584
  XXY=             18.6159  XXZ=             -9.7026  XZZ=              6.4003  YZZ=             -6.3755
  YYZ=              7.1735  XYZ=              7.5348
 Hexadecapole moment (field-independent basis, Debye-Ang**3):
 XXXX=          -2980.0174 YYYY=          -1163.3935 ZZZZ=           -228.8848 XXXY=            264.6361
 XXXZ=            -28.9122 YYYX=             14.5892 YYYZ=            -20.8544 ZZZX=              6.5822
 ZZZY=              1.8101 XXYY=           -640.3667 XXZZ=           -472.2559 YYZZ=           -221.1612
 XXYZ=             -7.2899 YYXZ=            -18.7885 ZZXY=             12.4926
 N-N= 8.678638862980D+02 E-N=-3.164965550356D+03  KE= 6.091620383739D+02
 PrsmSu:  requested number of processors reduced to:  13 ShMem   1 Linda.
 Calling FoFJK, ICntrl=      2127 FMM=F ISym2X=0 I1Cent= 0 IOpClX= 0 NMat=1 NMatS=1 NMatT=0.
 ***** Axes restored to original set *****
 -------------------------------------------------------------------
 Center     Atomic                   Forces (Hartrees/Bohr)
 Number     Number              X              Y              Z
 -------------------------------------------------------------------
      1        6          -0.005864358   -0.002129928    0.005441133
      2        6          -0.010108114   -0.003406752   -0.004919673
      3        7           0.008138707   -0.004571414    0.008920590
      4        6          -0.007058591   -0.008078340   -0.003094652
      5        6           0.004560984   -0.000995871   -0.005014863
      6        8           0.009872946    0.002399767   -0.001635665
      7        6           0.040519516   -0.003222520   -0.014566454
      8        6          -0.007882272   -0.003160600    0.009478150
      9        8          -0.042421647    0.010622425    0.012666321
     10        6           0.010868098    0.011440810    0.007270761
     11        6          -0.003764505    0.006371289   -0.014661241
     12        6          -0.009167822    0.003437389    0.003660787
     13        7           0.007149907    0.004483540    0.000288572
     14        1          -0.002453038    0.000966720    0.001315722
     15        1           0.001058794    0.002160467   -0.000001087
     16        1          -0.000943477    0.000225716   -0.000205331
     17        1           0.003166928    0.001814687   -0.004262040
     18        1           0.000512469    0.001491149    0.002043987
     19        1           0.002236290    0.005357908    0.000907829
     20        1          -0.004400323    0.001357237    0.002160637
     21        1          -0.001148859   -0.005554256   -0.002627273
     22        1          -0.001095338    0.000377280   -0.000795214
     23        1           0.005253249   -0.002973727   -0.004182305
     24        1           0.003054909   -0.000386159    0.002377493
     25        1          -0.001699852   -0.001900207    0.001409539
     26        1           0.001098563   -0.000104477   -0.003183303
     27        1          -0.001554420   -0.004102021   -0.001251195
     28        1          -0.001433149   -0.010839661    0.000700120
     29        1           0.001192629   -0.000257093    0.001234962
     30        1           0.000565226   -0.000366475   -0.002720093
     31        1           0.001746553   -0.000456883    0.003243787
 -------------------------------------------------------------------
 Cartesian Forces:  Max     0.042421647 RMS     0.007972793

 GradGradGradGradGradGradGradGradGradGradGradGradGradGradGradGradGradGrad
 Berny optimization.
 FormGI is forming the generalized inverse of G from B-inverse, IUseBI=4.
 Internal  Forces:  Max     0.044933159 RMS     0.005327010
 Search for a local minimum.
 Step number   1 out of a maximum of  179
 All quantities printed in internal units (Hartrees-Bohrs-Radians)
 Mixed Optimization -- RFO/linear search
 Second derivative matrix not updated -- first step.
 ITU=  0
     Eigenvalues ---    0.00230   0.00406   0.00539   0.00688   0.00694
     Eigenvalues ---    0.00799   0.00839   0.01096   0.01295   0.02291
     Eigenvalues ---    0.02440   0.02655   0.04241   0.04243   0.04469
     Eigenvalues ---    0.04478   0.04554   0.04842   0.05027   0.05239
     Eigenvalues ---    0.05368   0.05458   0.05612   0.05683   0.05796
     Eigenvalues ---    0.05819   0.06129   0.06563   0.06873   0.06981
     Eigenvalues ---    0.07213   0.07469   0.08484   0.08813   0.09255
     Eigenvalues ---    0.09350   0.11675   0.12521   0.12707   0.13253
     Eigenvalues ---    0.15102   0.16000   0.16000   0.16000   0.16000
     Eigenvalues ---    0.16000   0.16000   0.16000   0.16000   0.17128
     Eigenvalues ---    0.19698   0.21844   0.21933   0.24999   0.25000
     Eigenvalues ---    0.25000   0.26156   0.27481   0.28233   0.28843
     Eigenvalues ---    0.30643   0.31813   0.32242   0.33820   0.33904
     Eigenvalues ---    0.33911   0.33936   0.33996   0.34000   0.34065
     Eigenvalues ---    0.34081   0.34088   0.34154   0.34183   0.34276
     Eigenvalues ---    0.34348   0.34384   0.34588   0.34597   0.35049
     Eigenvalues ---    0.35183   0.36410   0.40989   0.44443   0.44526
     Eigenvalues ---    0.54039   0.90437
 RFO step:  Lambda=-2.25892390D-02 EMin= 2.30000000D-03
 Linear search not attempted -- first point.
 Iteration  1 RMS(Cart)=  0.20159516 RMS(Int)=  0.01465639
 Iteration  2 RMS(Cart)=  0.05006076 RMS(Int)=  0.00071180
 Iteration  3 RMS(Cart)=  0.00150345 RMS(Int)=  0.00038479
 Iteration  4 RMS(Cart)=  0.00000191 RMS(Int)=  0.00038479
 Iteration  5 RMS(Cart)=  0.00000000 RMS(Int)=  0.00038479
 Variable       Old X    -DE/DX   Delta X   Delta X   Delta X     New X
                                 (Linear)    (Quad)   (Total)
    R1        2.86699   0.00823   0.00000   0.02502   0.02502   2.89201
    R2        2.06747   0.00160   0.00000   0.00436   0.00436   2.07184
    R3        2.07022  -0.00159   0.00000  -0.00437  -0.00437   2.06584
    R4        2.06687   0.00057   0.00000   0.00156   0.00156   2.06843
    R5        2.78896   0.00386   0.00000   0.01035   0.01035   2.79931
    R6        2.07438  -0.00128   0.00000  -0.00355  -0.00355   2.07083
    R7        2.07481   0.00254   0.00000   0.00703   0.00703   2.08183
    R8        2.77196   0.00288   0.00000   0.00864   0.00890   2.78086
    R9        2.81715   0.00258   0.00000   0.00113   0.00159   2.81874
   R10        2.87884   0.00892   0.00000   0.03026   0.03005   2.90890
   R11        2.07492   0.00022   0.00000   0.00060   0.00060   2.07552
   R12        2.06350  -0.00114   0.00000  -0.00310  -0.00310   2.06040
   R13        2.70231   0.00550   0.00000   0.01272   0.01272   2.71503
   R14        2.88292   0.00342   0.00000   0.01671   0.01623   2.89915
   R15        2.07330  -0.00143   0.00000  -0.00395  -0.00395   2.06935
   R16        2.55996  -0.00180   0.00000  -0.00320  -0.00320   2.55676
   R17        2.84487   0.00809   0.00000   0.02373   0.02373   2.86859
   R18        2.32732  -0.04493   0.00000  -0.04847  -0.04847   2.27885
   R19        2.05378   0.00077   0.00000   0.00205   0.00205   2.05583
   R20        2.06335   0.00056   0.00000   0.00152   0.00152   2.06486
   R21        2.06868  -0.00157   0.00000  -0.00430  -0.00430   2.06438
   R22        2.91787   0.00896   0.00000   0.02592   0.02591   2.94378
   R23        2.07336  -0.00261   0.00000  -0.00719  -0.00719   2.06618
   R24        2.07071  -0.00224   0.00000  -0.00615  -0.00615   2.06456
   R25        2.91632  -0.00709   0.00000  -0.02325  -0.02325   2.89307
   R26        2.07635  -0.00182   0.00000  -0.00505  -0.00505   2.07130
   R27        2.76746   0.00490   0.00000   0.01268   0.01268   2.78013
   R28        2.07221   0.00342   0.00000   0.00942   0.00942   2.08163
   R29        2.07194  -0.00039   0.00000  -0.00106  -0.00106   2.07087
   R30        1.92628  -0.00255   0.00000  -0.00545  -0.00545   1.92083
   R31        1.92530  -0.00349   0.00000  -0.00746  -0.00746   1.91784
    A1        1.91828   0.00327   0.00000   0.02119   0.02116   1.93945
    A2        1.92806  -0.00135   0.00000  -0.00769  -0.00774   1.92032
    A3        1.94654   0.00036   0.00000  -0.00105  -0.00109   1.94545
    A4        1.88404   0.00009   0.00000   0.00649   0.00646   1.89050
    A5        1.89137  -0.00187   0.00000  -0.00980  -0.00982   1.88155
    A6        1.89401  -0.00057   0.00000  -0.00928  -0.00934   1.88467
    A7        1.90653   0.00950   0.00000   0.04107   0.04113   1.94766
    A8        1.87244   0.00203   0.00000   0.02646   0.02695   1.89938
    A9        1.92806  -0.00482   0.00000  -0.02023  -0.02007   1.90800
   A10        1.93848  -0.00694   0.00000  -0.04320  -0.04388   1.89460
   A11        1.96362  -0.00176   0.00000  -0.00749  -0.00756   1.95607
   A12        1.85222   0.00173   0.00000   0.00306   0.00279   1.85502
   A13        1.92335   0.00595   0.00000   0.05586   0.05511   1.97846
   A14        1.93472   0.00332   0.00000   0.03105   0.02973   1.96446
   A15        1.82164  -0.00424   0.00000  -0.00779  -0.00877   1.81288
   A16        1.82196   0.00465   0.00000   0.02170   0.02181   1.84377
   A17        1.93212  -0.00214   0.00000  -0.01854  -0.01862   1.91349
   A18        1.95272  -0.00259   0.00000  -0.01318  -0.01395   1.93877
   A19        1.92403  -0.00530   0.00000  -0.04800  -0.04809   1.87594
   A20        2.00865   0.00158   0.00000   0.02681   0.02693   2.03558
   A21        1.82659   0.00331   0.00000   0.02710   0.02748   1.85407
   A22        1.96910   0.00881   0.00000   0.05425   0.05443   2.02353
   A23        1.74879  -0.00169   0.00000   0.00221   0.00204   1.75084
   A24        1.98753  -0.00350   0.00000  -0.02470  -0.02462   1.96290
   A25        1.95504  -0.00735   0.00000  -0.05589  -0.05553   1.89951
   A26        1.90615  -0.00001   0.00000   0.00667   0.00629   1.91244
   A27        1.89220   0.00311   0.00000   0.01273   0.01287   1.90507
   A28        2.13459   0.02008   0.00000   0.07367   0.07367   2.20826
   A29        2.09146   0.01400   0.00000   0.05162   0.05083   2.14229
   A30        2.09852  -0.01556   0.00000  -0.05681  -0.05757   2.04095
   A31        2.09312   0.00160   0.00000   0.00612   0.00529   2.09841
   A32        2.01030   0.00146   0.00000   0.01695   0.01690   2.02720
   A33        1.90563  -0.00355   0.00000  -0.02239  -0.02266   1.88297
   A34        1.89803   0.00002   0.00000  -0.00548  -0.00580   1.89223
   A35        1.83968   0.00412   0.00000   0.03366   0.03366   1.87334
   A36        1.88638   0.00087   0.00000   0.01105   0.01096   1.89734
   A37        1.92262  -0.00306   0.00000  -0.03554  -0.03613   1.88649
   A38        1.81822  -0.00111   0.00000   0.00295   0.00223   1.82045
   A39        1.92751  -0.00107   0.00000  -0.01704  -0.01724   1.91027
   A40        1.94919   0.00178   0.00000   0.01640   0.01649   1.96568
   A41        1.95604  -0.00052   0.00000  -0.01956  -0.01938   1.93666
   A42        1.94409   0.00146   0.00000   0.02166   0.02144   1.96553
   A43        1.87028  -0.00051   0.00000  -0.00439  -0.00422   1.86606
   A44        1.86213   0.00398   0.00000   0.01555   0.01592   1.87805
   A45        1.92933  -0.00094   0.00000  -0.00404  -0.00414   1.92520
   A46        1.93147  -0.00304   0.00000  -0.02815  -0.02849   1.90298
   A47        1.95301  -0.00196   0.00000   0.00362   0.00347   1.95648
   A48        1.91444   0.00091   0.00000   0.01297   0.01294   1.92738
   A49        1.87422   0.00095   0.00000  -0.00053  -0.00064   1.87358
   A50        1.94105  -0.00527   0.00000  -0.02052  -0.02084   1.92020
   A51        1.91945  -0.00432   0.00000  -0.02579  -0.02598   1.89347
   A52        1.92465   0.00044   0.00000  -0.02234  -0.02317   1.90147
   A53        1.90314   0.01049   0.00000   0.09100   0.09114   1.99428
   A54        1.90155  -0.00034   0.00000  -0.01578  -0.01666   1.88489
   A55        1.87255  -0.00069   0.00000  -0.00460  -0.00538   1.86716
   A56        1.90825   0.00018   0.00000   0.00088   0.00087   1.90913
   A57        1.90491   0.00195   0.00000   0.01057   0.01057   1.91548
   A58        1.85554  -0.00103   0.00000  -0.00589  -0.00590   1.84963
    D1        3.13489  -0.00055   0.00000  -0.00200  -0.00172   3.13317
    D2        1.03207   0.00120   0.00000   0.01107   0.01077   1.04285
    D3       -0.97946   0.00051   0.00000   0.00315   0.00317  -0.97629
    D4        1.05771  -0.00188   0.00000  -0.01854  -0.01825   1.03945
    D5       -1.04511  -0.00013   0.00000  -0.00547  -0.00576  -1.05087
    D6       -3.05664  -0.00081   0.00000  -0.01339  -0.01337  -3.07001
    D7       -1.05026  -0.00048   0.00000  -0.00085  -0.00058  -1.05083
    D8        3.13011   0.00128   0.00000   0.01222   0.01192  -3.14116
    D9        1.11858   0.00059   0.00000   0.00431   0.00431   1.12289
   D10       -2.65143  -0.00244   0.00000  -0.02401  -0.02280  -2.67423
   D11        1.62402  -0.00273   0.00000  -0.06573  -0.06624   1.55778
   D12       -0.58952   0.00181   0.00000   0.00811   0.00844  -0.58108
   D13       -2.59726   0.00152   0.00000  -0.03360  -0.03500  -2.63225
   D14        1.48395  -0.00191   0.00000  -0.02258  -0.02154   1.46240
   D15       -0.52379  -0.00221   0.00000  -0.06430  -0.06498  -0.58877
   D16       -1.39516  -0.00463   0.00000  -0.07406  -0.07405  -1.46921
   D17        2.81799   0.00004   0.00000  -0.02059  -0.02056   2.79744
   D18        0.78796  -0.00111   0.00000  -0.03434  -0.03436   0.75360
   D19        0.68293  -0.00015   0.00000  -0.01414  -0.01447   0.66846
   D20       -1.38711   0.00452   0.00000   0.03934   0.03903  -1.34808
   D21        2.86604   0.00337   0.00000   0.02558   0.02522   2.89127
   D22        1.77237   0.00512   0.00000   0.06345   0.06304   1.83541
   D23       -2.38355   0.00468   0.00000   0.07525   0.07491  -2.30863
   D24       -0.30940   0.00333   0.00000   0.05413   0.05404  -0.25536
   D25       -0.29798  -0.00113   0.00000  -0.01357  -0.01349  -0.31148
   D26        1.82929  -0.00157   0.00000  -0.00177  -0.00162   1.82767
   D27       -2.37975  -0.00292   0.00000  -0.02290  -0.02250  -2.40225
   D28       -2.87213   0.00620   0.00000   0.07606   0.07617  -2.79596
   D29       -0.79048   0.00050   0.00000   0.03585   0.03591  -0.75457
   D30        1.22553   0.00172   0.00000   0.04185   0.04199   1.26752
   D31       -0.79659   0.00367   0.00000   0.04263   0.04272  -0.75388
   D32        1.28506  -0.00203   0.00000   0.00242   0.00246   1.28752
   D33       -2.98212  -0.00081   0.00000   0.00842   0.00854  -2.97358
   D34        1.26390   0.00514   0.00000   0.06059   0.06024   1.32414
   D35       -2.93763  -0.00056   0.00000   0.02038   0.01998  -2.91765
   D36       -0.92163   0.00066   0.00000   0.02638   0.02606  -0.89557
   D37       -1.21956  -0.00716   0.00000  -0.17398  -0.17523  -1.39479
   D38        3.10590  -0.00587   0.00000  -0.17510  -0.17411   2.93179
   D39        1.00946  -0.00506   0.00000  -0.15988  -0.15963   0.84983
   D40        0.58066  -0.00432   0.00000  -0.05133  -0.05113   0.52953
   D41       -1.52272  -0.00252   0.00000  -0.02114  -0.02102  -1.54374
   D42        2.68106  -0.00232   0.00000  -0.01497  -0.01479   2.66627
   D43        2.67253   0.00174   0.00000  -0.01146  -0.01144   2.66110
   D44        0.56916   0.00355   0.00000   0.01873   0.01867   0.58783
   D45       -1.51025   0.00375   0.00000   0.02490   0.02490  -1.48535
   D46       -1.50609  -0.00080   0.00000  -0.02963  -0.02944  -1.53554
   D47        2.67372   0.00101   0.00000   0.00055   0.00067   2.67439
   D48        0.59431   0.00121   0.00000   0.00672   0.00690   0.60121
   D49       -0.00252  -0.00800   0.00000  -0.18462  -0.18363  -0.18615
   D50        3.12489  -0.00536   0.00000  -0.10900  -0.11000   3.01489
   D51       -0.10745   0.00095   0.00000   0.01571   0.01599  -0.09146
   D52       -2.17254  -0.00272   0.00000  -0.02225  -0.02169  -2.19423
   D53        2.01229   0.00310   0.00000   0.03755   0.03764   2.04993
   D54        3.04828  -0.00153   0.00000  -0.05915  -0.05949   2.98879
   D55        0.98319  -0.00520   0.00000  -0.09711  -0.09717   0.88602
   D56       -1.11516   0.00062   0.00000  -0.03732  -0.03784  -1.15301
   D57       -0.19176   0.00241   0.00000   0.03754   0.03796  -0.15380
   D58       -2.30399   0.00214   0.00000   0.03027   0.03047  -2.27352
   D59        1.90104   0.00160   0.00000   0.02010   0.02038   1.92141
   D60        1.89237   0.00018   0.00000   0.00879   0.00903   1.90141
   D61       -0.21987  -0.00009   0.00000   0.00152   0.00155  -0.21832
   D62       -2.29802  -0.00063   0.00000  -0.00865  -0.00855  -2.30657
   D63       -2.29559   0.00018   0.00000   0.00479   0.00494  -2.29064
   D64        1.87536  -0.00009   0.00000  -0.00248  -0.00254   1.87282
   D65       -0.20279  -0.00063   0.00000  -0.01265  -0.01264  -0.21543
   D66        3.09925   0.00155   0.00000   0.03833   0.03789   3.13714
   D67        0.98923  -0.00529   0.00000  -0.04534  -0.04529   0.94393
   D68       -1.07242  -0.00207   0.00000  -0.01026  -0.01044  -1.08286
   D69       -1.11108   0.00466   0.00000   0.05755   0.05746  -1.05363
   D70        3.06208  -0.00218   0.00000  -0.02612  -0.02573   3.03635
   D71        1.00043   0.00104   0.00000   0.00896   0.00913   1.00956
   D72        0.99067   0.00522   0.00000   0.07537   0.07515   1.06582
   D73       -1.11935  -0.00162   0.00000  -0.00831  -0.00803  -1.12738
   D74        3.10218   0.00160   0.00000   0.02677   0.02683   3.12901
   D75       -1.09822  -0.00081   0.00000  -0.03444  -0.03436  -1.13258
   D76       -3.12119  -0.00077   0.00000  -0.03378  -0.03371   3.12828
   D77        1.02135  -0.00260   0.00000  -0.01925  -0.01930   1.00205
   D78       -1.00162  -0.00256   0.00000  -0.01859  -0.01865  -1.02027
   D79        3.05995   0.00225   0.00000   0.01728   0.01726   3.07721
   D80        1.03698   0.00230   0.00000   0.01794   0.01792   1.05490
         Item               Value     Threshold  Converged?
 Maximum Force            0.044933     0.000450     NO 
 RMS     Force            0.005327     0.000300     NO 
 Maximum Displacement     1.317693     0.001800     NO 
 RMS     Displacement     0.242578     0.001200     NO 
 Predicted change in Energy=-1.445963D-02
 GradGradGradGradGradGradGradGradGradGradGradGradGradGradGradGradGradGrad

                          Input orientation:                          
 ---------------------------------------------------------------------
 Center     Atomic      Atomic             Coordinates (Angstroms)
 Number     Number       Type             X           Y           Z
 ---------------------------------------------------------------------
      1          6           0        0.751641    0.206088   -0.119212
      2          6           0        2.273991    0.050258   -0.134859
      3          7           0        2.867296    0.616530   -1.368417
      4          6           0        4.142027   -0.014567   -1.745626
      5          6           0        5.223224    0.710830   -0.924454
      6          8           0        6.568173    0.597143   -1.416784
      7          6           0        7.401937   -0.454645   -1.246092
      8          6           0        7.100218   -1.594949   -0.290592
      9          8           0        8.447455   -0.426008   -1.846345
     10          6           0        4.759147    2.164542   -1.082616
     11          6           0        3.211517    2.060963   -1.226844
     12          6           0        2.691027    2.851571   -2.430104
[...]
 125126,0.00124736,0.00103979,-0.00064730,-0.00021006,0.00019949,0.0000
 1635,-0.00000579,-0.00000769,0.00001620,0.00001039,0.00001342,-0.00002
 986,-0.00001662,-0.00001508,0.00007096,0.00002020,-0.00001209,0.000007
 84,-0.00002924,0.00007880,0.00019076,0.00014328,0.00044681,-0.00006650
 ,0.00012618,0.00020841,-0.00009028,0.00127088,0.00104002,0.00004842,0.
 00001270,0.00004875,-0.00000650,-0.00004144,0.00009086,0.00000069,-0.0
 0003783,-0.00002674,-0.06628798,-0.07138433,0.29728475,0.00003598,-0.0
 0009381,0.00009181,0.00010623,-0.00078690,-0.00150457,-0.00375129,-0.0
 0196379,0.00073934,-0.00299535,0.00249275,-0.00034248,0.00542555,0.009
 96051,0.01004061,0.00032421,-0.00058286,-0.00047000,-0.00002560,-0.000
 06694,-0.00006406,0.00000034,0.00002655,0.00002767,-0.00006770,0.00001
 684,-0.00000514,-0.08586641,-0.07043091,-0.06620844,-0.00811797,-0.019
 63592,-0.01981168,-0.00193145,-0.00117992,0.00050580,0.00049002,0.0006
 9067,0.00039751,-0.00005602,0.00002157,0.00003397,0.00002436,0.0000232
 7,-0.00000263,-0.00000713,0.00003573,-0.00003044,-0.00027864,-0.000172
 50,0.00041417,0.00007058,0.00014142,0.00023635,0.00002753,-0.00010381,
 -0.00004230,0.00078071,0.00011552,0.00011164,0.00028639,-0.00102254,0.
 00008263,0.00001288,-0.00000794,0.00000006,-0.00000222,0.00001132,-0.0
 0001164,0.00000565,-0.00001867,0.00001458,0.00345219,0.00535041,0.0051
 0530,0.09131528,-0.00000813,-0.00002830,0.00008377,-0.00001793,0.00004
 002,-0.00037803,0.00044038,-0.00051183,0.00019111,0.00170049,-0.005213
 59,0.00207910,-0.01368402,-0.01836464,-0.01890373,0.00096906,0.0005553
 7,0.00073487,-0.00020151,0.00012564,-0.00023897,-0.00003184,-0.0000801
 2,-0.00006932,0.00031342,-0.00009885,-0.00004569,-0.06966714,-0.167252
 17,-0.11589857,0.00130165,-0.00014880,0.00086933,0.00006684,0.00021369
 ,0.00013047,0.00014373,-0.00058651,0.00035497,-0.00004168,0.00001875,0
 .00000523,0.00000787,-0.00000775,-0.00000690,-0.00003417,0.00004267,-0
 .00000055,-0.00000954,0.00011822,0.00008351,0.00002140,-0.00001517,0.0
 0012908,0.00013562,0.00011688,-0.00005324,-0.00136203,-0.00079478,-0.0
 0077196,-0.00006855,0.00181736,0.00024008,0.00000210,-0.00001647,0.000
 05183,0.00002181,0.00002134,0.00003558,-0.00001581,0.00007277,-0.00003
 834,0.00335787,0.00610142,0.00587816,0.07637704,0.18331958,-0.00002406
 ,0.00003574,-0.00001527,0.00015506,0.00018947,0.00017616,0.00115424,0.
 00183947,0.00049476,0.00055918,0.00143679,0.00047414,0.00287426,0.0068
 9352,0.00413739,0.00076869,-0.00035043,0.00002107,-0.00024258,-0.00006
 901,0.00006358,0.00006774,-0.00007520,0.00002316,0.00015174,0.00003830
 ,-0.00003072,-0.06819389,-0.11857012,-0.15813215,0.00328049,0.00327708
 ,0.00119294,-0.00056799,-0.00075969,-0.00034722,0.00083428,0.00000725,
 0.00057009,0.00000899,-0.00001768,-0.00000273,-0.00000647,0.00000091,-
 0.00000237,0.00001755,-0.00002155,-0.00000650,0.00002476,-0.00000095,-
 0.00004906,-0.00002789,-0.00005802,-0.00003516,0.00011572,0.00028020,0
 .00029602,0.00017842,0.00022970,0.00030710,0.00064647,-0.00037898,0.00
 112338,-0.00002530,-0.00001200,-0.00002071,0.00000968,-0.00002151,-0.0
 0000689,0.00000673,0.00001994,0.00001067,-0.01174521,-0.02050449,-0.01
 892170,0.07018484,0.12556822,0.16692622,-0.00026085,-0.00088034,-0.000
 37790,0.00010984,-0.00098987,-0.00042092,0.00365380,-0.00442323,-0.005
 49956,-0.00165454,-0.00013875,-0.00039041,0.00019971,-0.00052631,0.001
 10695,-0.00112209,0.00085837,-0.00057029,0.00037347,-0.00035501,0.0001
 2924,-0.00004858,0.00007220,-0.00004525,-0.00026309,0.00014350,0.00004
 610,-0.01067026,0.00540056,0.02962815,-0.06743063,0.01732520,0.0617942
 5,0.00478346,-0.00168012,-0.01773792,0.00012110,-0.00112523,0.00043831
 ,0.00004385,0.00004174,0.00014394,-0.00000739,0.00004967,-0.00010054,-
 0.00062021,-0.00022948,0.00000566,-0.00003150,0.00012813,-0.00018127,0
 .00010295,0.00054713,-0.00017706,0.00022869,-0.00001526,-0.00005321,0.
 00008646,0.00010440,0.00002219,-0.00021377,0.00049120,-0.00027269,-0.0
 0000794,0.00001086,-0.00000793,-0.00000481,0.00001406,-0.00002337,-0.0
 0000076,0.00000087,0.00000074,-0.00514070,0.00095270,0.00023038,0.0015
 2094,-0.00018632,-0.00011486,0.07615886,-0.00034306,-0.00026016,0.0002
 8198,0.00272623,0.00146577,-0.00459511,0.00643722,-0.02323141,-0.02968
 071,-0.00388744,-0.00185708,-0.00176732,-0.00040082,-0.00049779,0.0002
 0897,0.00033614,0.00009488,0.00016547,-0.00027196,0.00020866,-0.000067
 28,-0.00002921,-0.00002874,-0.00000325,0.00015112,-0.00004940,-0.00006
 157,-0.00208142,0.00122110,0.00282511,0.01607930,-0.06002888,-0.047787
 26,-0.00436380,0.00421508,0.01842676,-0.00043983,0.00208350,-0.0003068
 7,-0.00010486,0.00012275,0.00011369,0.00024679,0.00006436,-0.00001878,
 -0.00049400,0.00016088,-0.00004131,0.00034738,0.00036442,0.00034421,0.
 00037446,0.00018189,0.00200031,0.00091938,-0.00039541,-0.00032164,0.00
 062435,-0.00035455,-0.00026744,0.00030650,0.00014481,0.00016874,0.0000
 0991,0.00001004,0.00000337,0.00001352,0.00000632,0.00000364,0.00000134
 ,0.00002866,-0.00003134,-0.00098939,0.00045820,0.00074940,-0.00004269,
 0.00064850,0.00056315,-0.01677063,0.07675109,0.00027149,-0.00030295,-0
 .00012687,0.00324550,0.00157995,0.00232604,-0.00084021,-0.00766954,-0.
 00374880,-0.00181268,0.00063330,-0.00083287,-0.00002291,-0.00000575,-0
 .00039047,0.00055662,-0.00027436,0.00030549,-0.00034243,0.00033312,-0.
 00021104,0.00001141,-0.00004419,0.00002148,0.00021392,-0.00010960,-0.0
 0001636,0.00006024,0.00011690,-0.00070220,0.06162044,-0.05074950,-0.25
 048052,0.00670213,-0.00488865,-0.02603218,0.00024999,-0.00057095,0.001
 73874,0.00000177,0.00033462,0.00011525,0.00013058,0.00032282,0.0000640
 7,-0.00070509,0.00052236,0.00013492,0.00016777,0.00024136,0.00046783,-
 0.00102001,-0.00147442,0.00104855,0.00030597,-0.00005411,-0.00009669,0
 .00002992,-0.00009570,-0.00009110,0.00008373,-0.00018181,0.00023511,0.
 00000721,0.00000074,0.00000349,0.00001123,-0.00000535,0.00000953,-0.00
 000448,0.00001678,-0.00001839,0.00008073,0.00006633,0.00092190,0.00057
 769,0.00023465,0.00114213,-0.06617332,0.05769676,0.27485063,-0.0006224
 9,-0.00015555,0.00089853,-0.00086669,0.00041527,-0.00016427,0.00237738
 ,-0.00003499,0.00017681,-0.00015964,0.00018626,0.00032649,-0.00046630,
 -0.00119406,-0.00029296,-0.00034940,0.00073521,-0.00008927,0.00044927,
 -0.00035651,0.00021476,-0.00004346,0.00003373,-0.00005398,-0.00026789,
 0.00011613,0.00003218,-0.00012194,0.00187844,-0.00251766,-0.01827657,-
 0.00258947,0.00279388,-0.27892558,-0.03001370,0.01984473,-0.00293084,-
 0.00997478,-0.00160082,0.00017014,-0.00056559,0.00023348,0.00019384,0.
 00028381,0.00031739,0.00000097,-0.00073785,-0.00036792,0.00017919,0.00
 000771,-0.00010456,0.00013305,0.00001324,0.00001659,0.00006114,-0.0000
 7183,-0.00006735,0.00010197,0.00008116,0.00001626,-0.00003291,0.000174
 22,-0.00004510,0.00001189,0.00000405,0.00001470,-0.00001145,0.00001644
 ,-0.00000154,0.00000038,-0.00000841,-0.00000392,0.00054683,-0.00007425
 ,-0.00019155,-0.00051181,0.00022991,-0.00012471,0.00086944,-0.00025114
 ,-0.00020063,0.30600791,-0.00005972,-0.00032679,0.00066679,0.00016388,
 -0.00016498,0.00009222,-0.00048829,0.00183972,-0.00069974,0.00022428,0
 .00014494,-0.00030811,0.00065794,0.00084671,0.00007881,0.00052442,-0.0
 0070521,0.00013295,-0.00035059,0.00028111,-0.00018616,0.00002481,-0.00
 002272,0.00002921,0.00026448,-0.00009356,-0.00003982,0.00148859,-0.002
 53530,0.00282179,0.01877802,0.00220938,-0.00152984,-0.03402346,-0.0523
 5337,0.00237238,-0.03672311,-0.02061105,-0.00029301,-0.00006702,-0.000
 04891,0.00000381,-0.00019264,-0.00022826,0.00005752,-0.00017869,-0.000
 11753,0.00021903,-0.00001891,-0.00000926,0.00001610,-0.00005385,0.0000
 0656,-0.00003939,-0.00008858,-0.00002101,0.00004922,-0.00005027,-0.000
 00817,0.00003459,-0.00002276,-0.00007939,0.00005253,-0.00000925,-0.000
 00428,-0.00000622,0.00000666,-0.00001170,0.00000378,0.00000124,0.00000
 752,0.00000272,-0.00035848,-0.00012307,0.00013495,0.00064148,-0.000085
 76,0.00034398,-0.00078546,0.00066318,-0.00013152,0.04381977,0.06629593
 ,0.00015631,0.00081292,0.00009400,-0.00033094,0.00014320,-0.00000855,0
 .00090010,-0.00115472,0.00008031,-0.00001500,-0.00015362,0.00007140,-0
 .00070505,-0.00099699,0.00024941,-0.00045533,0.00071197,-0.00006205,0.
 00024764,-0.00019876,0.00018202,-0.00001841,0.00000960,-0.00002221,-0.
 00020620,0.00007534,0.00002544,-0.00077282,0.00338819,-0.00255316,-0.0
 2414409,-0.00097056,0.00072134,0.02155431,0.00305442,-0.05519323,-0.00
 598563,-0.00322042,0.00360644,0.00003826,-0.00015020,-0.00008310,-0.00
 001206,-0.00006830,-0.00003762,0.00031792,0.00011476,-0.00064570,0.000
 11086,-0.00002453,-0.00005910,0.00001767,0.00002050,-0.00001272,-0.000
 00805,0.00005356,0.00006461,0.00008120,0.00003659,0.00006390,0.0000585
 1,-0.00002879,-0.00003087,0.00000469,0.00000249,0.00000252,-0.00000186
 ,0.00000766,-0.00000365,0.00000020,-0.00000112,-0.00000288,-0.00019107
 ,-0.00017044,0.00033452,-0.00029429,-0.00011608,0.00019897,0.00055965,
 -0.00087235,0.00116410,-0.01979162,-0.00439325,0.05374137,-0.00005302,
 0.00020045,0.00038929,-0.00021110,-0.00007091,0.00004601,-0.00011139,-
 0.00099986,0.00047896,0.00007184,-0.00012098,0.00005369,0.00000289,0.0
 0025825,-0.00007885,0.00012072,-0.00014749,0.00008837,-0.00013116,0.00
 009904,-0.00003403,0.00000991,-0.00001450,0.00000902,0.00007591,-0.000
 03264,-0.00001737,0.00174893,-0.00045013,-0.00160916,0.00288906,-0.002
 72007,-0.01645198,-0.07319732,0.01853875,0.07411323,0.00305333,-0.0021
 5916,-0.00905525,0.00002244,-0.00020460,0.00002231,0.00001971,0.000079
 02,0.00004286,0.00005120,-0.00016195,-0.00032182,0.00008336,-0.0000185
 7,0.00002627,0.00003665,-0.00005612,0.00007882,0.00001649,0.00008706,-
 0.00000584,0.00000301,-0.00001853,0.00001309,-0.00002670,-0.00007896,0
 .00007463,-0.00000123,-0.00000152,-0.00000104,0.00000385,-0.00000379,0
 .00000400,-0.00000161,0.00000540,-0.00000072,-0.00024781,-0.00012602,0
 .00039804,0.00002782,0.00004047,0.00002615,-0.00092570,0.00160463,-0.0
 0276161,-0.01002522,0.00660269,0.02956919,0.07570523,0.00005079,0.0000
 9238,0.00007360,-0.00023528,-0.00001357,0.00031063,-0.00041873,0.00204
 039,-0.00109105,0.00026588,-0.00008967,0.00014155,-0.00010437,0.000115
 97,0.00014351,0.00000821,-0.00007276,-0.00004545,-0.00004281,0.0000313
 3,-0.00000402,0.00000606,-0.00000258,0.00000604,0.00002159,-0.00001106
 ,-0.00000321,-0.00117329,0.00047470,-0.00029219,-0.00430089,0.00359428
 ,0.01956266,0.01666312,-0.06056179,-0.05198623,0.00753814,-0.01543036,
 -0.03524742,-0.00001016,-0.00005607,-0.00001210,-0.00002727,-0.0000140
 4,-0.00002111,0.00011589,-0.00005792,-0.00004798,-0.00001533,-0.000043
 21,-0.00007377,-0.00004966,-0.00005576,-0.00028328,0.00008159,-0.00012
 445,0.00008937,-0.00000707,-0.00000913,-0.00004757,0.00000321,0.000009
 43,-0.00006862,-0.00000522,-0.00000092,-0.00000356,0.00000094,-0.00000
 257,-0.00000106,-0.00000019,0.00000078,0.00000419,-0.00005055,0.000123
 65,-0.00048727,-0.00004715,-0.00001402,0.00003821,0.00220416,-0.002209
 88,0.00286687,-0.00073467,0.00229239,0.00345752,-0.01900273,0.07570395
 ,-0.00001233,-0.00016722,-0.00009271,0.00026267,0.00000588,0.00014215,
 -0.00021253,-0.00061771,0.00249044,-0.00004565,0.00024631,-0.00048926,
 0.00000275,-0.00006839,0.00027981,-0.00008081,0.00010461,0.00006932,-0
 .00003663,0.00003902,-0.00002768,0.00000352,-0.00001603,0.00000893,-0.
 00000674,-0.00000565,0.00002671,0.00183435,0.00007379,0.00075995,0.005
 66695,-0.00451315,-0.02452858,0.06975743,-0.05821849,-0.26506050,0.000
 24627,-0.00271189,-0.00331559,-0.00001299,0.00006511,0.00003853,0.0000
 3952,0.00002832,0.00000970,-0.00011394,0.00008354,0.00003140,0.0000473
 5,0.00009184,0.00006344,-0.00010557,-0.00021546,0.00029690,-0.00015502
 ,0.00017006,0.00013870,-0.00006512,0.00004079,0.00011100,0.00011114,-0
 .00020163,0.00006265,0.00000294,-0.00000091,0.00000050,0.00000231,-0.0
 0000171,0.00000063,0.00000218,0.00000082,-0.00000298,-0.00119813,-0.00
 018178,0.00062572,0.00019787,-0.00012540,0.00044139,-0.00251886,0.0029
 3635,-0.00210482,0.00107383,-0.00029128,-0.00233243,-0.07428046,0.0643
 4723,0.28983545,0.00003928,-0.00012818,-0.00010770,0.00023611,0.000085
 54,0.00000817,-0.00014062,-0.00000324,-0.00044617,0.00000443,-0.000118
 38,-0.00002192,-0.00009698,-0.00000367,-0.00025500,-0.00000573,-0.0000
 4916,-0.00003321,-0.00000679,0.00001909,0.00001049,0.00000511,0.000009
 71,0.00000841,0.00000281,-0.00001036,-0.00001391,-0.00014000,0.0002662
 4,0.00070530,0.00026292,0.00062974,0.00170331,-0.00120434,-0.01064247,
 -0.01210652,-0.08520899,0.06605207,0.16748994,-0.00003053,0.00009636,-
 0.00002363,-0.00003422,-0.00005569,-0.00004067,0.00001301,0.00006566,0
 .00015013,-0.00005011,0.00001102,0.00000350,-0.00005479,0.00002328,-0.
 00003844,0.00001235,-0.00002314,-0.00001702,-0.00002562,-0.00002319,-0
 .00001851,-0.00001816,0.00008958,-0.00002273,0.00000059,0.00000400,-0.
 00000559,-0.00000011,-0.00000242,-0.00000128,-0.00000244,-0.00000477,-
 0.00000002,0.00023724,-0.00015928,-0.00023022,-0.00044053,0.00007412,-
 0.00021864,0.00023459,0.00033676,-0.00040803,0.00169533,0.00064739,-0.
 00139228,0.00058788,-0.00148651,-0.00037397,0.08270815,0.00002141,-0.0
 0018167,-0.00009012,0.00006475,-0.00008698,0.00006237,-0.00051189,0.00
 007926,0.00101458,0.00007768,0.00016508,-0.00010134,0.00011432,-0.0000
 6930,0.00001349,-0.00017305,0.00012507,-0.00000714,0.00015602,-0.00010
 128,0.00001701,-0.00000772,0.00001066,-0.00000540,-0.00009615,0.000028
 89,0.00003470,0.00007079,0.00007589,0.00008341,0.00036766,0.00055856,-
 0.00228619,0.01741033,-0.01381080,-0.03591998,0.04690514,-0.09253832,-
 0.08957999,0.00000698,0.00006716,0.00001513,0.00001687,0.00004501,0.00
 001708,-0.00008721,0.00002845,0.00005143,-0.00001836,0.00003991,0.0000
 1733,-0.00002185,-0.00004974,0.00005238,-0.00006683,0.00006684,0.00002
 509,-0.00004266,0.00004424,0.00003043,0.00000842,-0.00001511,0.0000109
 0,0.00000722,0.00000049,0.00000418,-0.00000577,0.00000370,-0.00000060,
 0.00000056,-0.00001065,0.00000015,-0.00024178,0.00001312,0.00002970,0.
 00009620,-0.00000020,0.00002553,0.00003180,-0.00033432,0.00148361,-0.0
 0060337,0.00185734,0.00021756,-0.00176072,-0.00704228,-0.00032694,-0.0
 5181848,0.10337477,0.00000724,0.00000238,0.00001371,0.00008682,0.00002
 286,0.00001068,-0.00010453,-0.00000997,-0.00021879,0.00002774,-0.00001
 991,-0.00004345,-0.00008242,0.00004382,-0.00003534,0.00002873,-0.00003
 196,-0.00000307,-0.00004366,0.00003470,0.00000055,0.00000064,-0.000002
 38,0.00000388,0.00002499,-0.00001110,-0.00001096,0.00005373,0.00004478
 ,-0.00003645,-0.00009242,0.00021364,0.00210242,0.00397955,-0.00252059,
 -0.00552798,0.11711922,-0.09015166,-0.31568571,-0.00001432,0.00002043,
 -0.00001371,-0.00001875,-0.00004344,-0.00003576,0.00002182,-0.00000861
 ,0.00005205,-0.00001412,-0.00000448,-0.00001091,-0.00002729,0.00001161
 ,-0.00002883,0.00000561,-0.00001556,0.00001367,-0.00000663,-0.00001705
 ,-0.00000590,-0.00000407,0.00002063,-0.00000719,-0.00000193,0.00000065
 ,-0.00000261,0.00000060,-0.00000032,-0.00000048,0.00000051,0.00000187,
 0.00000033,0.00007316,-0.00009271,-0.00005020,-0.00009607,-0.00001253,
 -0.00003317,0.00049884,-0.00047636,-0.00017739,-0.00025806,0.00147561,
 0.00073230,-0.00108812,-0.00113336,0.00189121,-0.13696188,0.10369554,0
 .34375813,-0.00000082,0.00002277,-0.00001086,-0.00007406,0.00014400,0.
 00012796,0.00033395,0.00005552,-0.00050375,0.00014518,-0.00001466,-0.0
 0008113,0.00034146,-0.00022780,0.00006670,-0.00035255,0.00022245,-0.00
 001174,0.00031956,-0.00018303,0.00002262,-0.00001079,0.00001797,-0.000
 00496,-0.00020034,0.00004146,0.00008153,0.00024131,0.00005111,-0.00054
 207,-0.00054929,0.00013679,0.00006373,-0.00208112,-0.01329290,0.008246
 87,-0.07670713,0.11076205,-0.13647923,0.00000499,0.00002916,-0.0000309
 2,-0.00002432,-0.00004939,-0.00001332,0.00000199,0.00001242,0.00007300
 ,0.00003025,0.00007240,-0.00004126,-0.00001357,-0.00000673,-0.00003785
 ,-0.00003186,0.00002158,0.00004413,0.00001805,0.00007629,0.00004463,-0
 .00000625,0.00000862,0.00000113,0.00001064,0.00000134,0.00000847,-0.00
 000773,0.00000602,-0.00000112,0.00000052,-0.00002016,0.00000315,0.0000
 5181,-0.00008731,0.00003173,0.00014547,0.00012486,0.00022661,-0.000084
 33,-0.00004476,-0.00003691,0.00081346,-0.00037456,0.00070818,0.0004020
 4,0.00075229,-0.00003233,0.00142016,-0.00990028,0.01688507,0.07586332,
 0.00002922,-0.00000679,0.00003999,0.00043952,-0.00022201,-0.00024180,0
 .00080588,-0.00177253,0.00106937,-0.00034435,-0.00032287,0.00040243,-0
 .00005368,0.00002529,-0.00004482,0.00010053,-0.00002385,0.00001510,-0.
 00005881,0.00003780,0.00000668,-0.00000160,-0.00000752,-0.00000087,0.0
 0003707,-0.00001251,-0.00002432,-0.00041654,0.00014002,-0.00015053,-0.
 00377964,-0.00477867,-0.00434356,0.01773591,-0.02296114,0.02926930,0.0
 7772260,-0.16642338,0.14407467,-0.00003712,0.00002312,-0.00000737,-0.0
 0001655,-0.00002633,-0.00003129,-0.00001175,0.00003218,0.00003133,-0.0
 0008093,-0.00008292,0.00008633,-0.00004814,-0.00002021,0.00010879,0.00
 004318,0.00000032,-0.00004553,0.00017382,-0.00013425,-0.00004194,-0.00
 000396,0.00001549,-0.00000126,0.00000053,0.00000057,-0.00000024,0.0000
 0413,0.00000244,0.00000165,-0.00000244,0.00000955,-0.00000649,0.000113
 43,0.00002216,-0.00003874,0.00015503,0.00000676,0.00005217,-0.00027055
 ,0.00035353,0.00010821,-0.00062919,0.00110552,0.00041384,0.00063351,0.
 00133279,-0.00057003,-0.00388162,0.00765622,-0.01103652,-0.08835750,0.
 18603125,-0.00000102,0.00000138,0.00001616,0.00003582,-0.00009504,-0.0
 0006549,-0.00016882,-0.00079028,0.00036033,-0.00005129,0.00010293,0.00
 008317,0.00000646,0.00002614,0.00004243,0.00007549,-0.00003730,-0.0000
 0154,-0.00005772,0.00002874,0.00000336,0.00000463,-0.00000143,-0.00000
 086,0.00003783,-0.00000613,-0.00002191,-0.00010521,-0.00007577,0.00005
 412,-0.00008999,-0.00091811,0.00024398,0.00153814,-0.00634984,0.006386
 42,-0.09544314,0.14686764,-0.25333415,0.00000539,-0.00001620,0.0000123
 9,0.00001537,0.00003300,0.00001535,-0.00001865,-0.00001338,-0.00004068
 ,-0.00001863,-0.00003670,0.00001515,0.00001157,0.00000521,0.00002962,0
 .00001177,-0.00000320,-0.00001848,0.00000968,-0.00002172,0.00000754,-0
 .00000271,-0.00000671,-0.00000502,-0.00000180,-0.00000084,-0.00000116,
 0.00000246,-0.00000136,0.00000083,-0.00000194,0.00000435,-0.00000129,-
 0.00001520,0.00004481,0.00000614,0.00012191,-0.00001066,0.00000447,0.0
 0006095,-0.00018930,0.00048042,-0.00008370,-0.00066962,-0.00028538,0.0
 0027233,-0.00019213,0.00063001,-0.01734191,0.02141608,-0.02665102,0.11
 119196,-0.15909454,0.27203508\\0.00000013,-0.00000043,-0.00000067,-0.0
 0000108,-0.00000135,-0.00000370,0.00000322,0.00000478,0.00000589,0.000
 00159,-0.00000220,-0.00000311,-0.00001177,0.00000136,-0.00000026,0.000
 01302,0.00000371,0.00000223,-0.00000432,0.00000282,-0.00000874,-0.0000
 0434,-0.00000993,-0.00000335,-0.00000503,0.00000041,0.00000394,0.00000
 575,0.00000587,-0.00000066,-0.00000283,-0.00000379,-0.00000021,0.00000
 019,0.00000097,-0.00000145,-0.00000174,0.00000294,0.00000611,-0.000000
 51,0.00000058,0.00000021,0.00000034,0.00000139,-0.00000014,-0.00000173
 ,0.00000062,0.00000100,-0.00000017,-0.00000032,-0.00000022,-0.00000027
 ,0.00000055,0.00000008,0.00000029,-0.00000027,0.00000234,0.00000059,-0
 .00000382,-0.00000050,0.00000290,-0.00000184,0.00000165,0.00000019,0.0
 0000396,-0.00000039,-0.00000249,-0.00000145,0.00000055,0.00000352,0.00
 000011,0.00000444,0.00000075,-0.00000204,-0.00000018,0.00000061,-0.000
 00025,-0.00000058,-0.00000158,-0.00000074,-0.00000265,0.00000094,-0.00
 000155,0.00000065,-0.00000060,-0.00000028,0.00000030,-0.00000004,0.000
 00128,-0.00000295,0.00000448,-0.00000110,0.00000035\\\@


 The mind is not a vessel to be filled but a fire to be kindled.
                                  -- Plutarch
 Job cpu time:       0 days  6 hours 35 minutes  8.3 seconds.
 Elapsed time:       0 days  1 hours 38 minutes 48.8 seconds.
 File lengths (MBytes):  RWF=    464 Int=      0 D2E=      0 Chk=     18 Scr=      1
 Normal termination of Gaussian 16 at Mon May 22 21:41:37 2023.
### All Done ###
