### Starting Gaussian ###
 Entering Gaussian System, Link 0=g16
 Initial command:
 /cluster/software/gaussian/gaussian-16-A.03/avx2/g16/l1.exe "/local/scratch/yxie/Gau-1686.inp" -scrdir="/local/scratch/yxie/"
 Entering Link 1 = /cluster/software/gaussian/gaussian-16-A.03/avx2/g16/l1.exe PID=      1687.
  
 Copyright (c) 1988,1990,1992,1993,1995,1998,2003,2009,2016,
            Gaussian, Inc.  All Rights Reserved.
  
 This is part of the Gaussian(R) 16 program.  It is based on
 the Gaussian(R) 09 system (copyright 2009, Gaussian, Inc.),
 the Gaussian(R) 03 system (copyright 2003, Gaussian, Inc.),
 the Gaussian(R) 98 system (copyright 1998, Gaussian, Inc.),
 the Gaussian(R) 94 system (copyright 1995, Gaussian, Inc.),
 the Gaussian 92(TM) system (copyright 1992, Gaussian, Inc.),
 the Gaussian 90(TM) system (copyright 1990, Gaussian, Inc.),
 the Gaussian 88(TM) system (copyright 1988, Gaussian, Inc.),
 the Gaussian 86(TM) system (copyright 1986, Carnegie Mellon
 University), and the Gaussian 82(TM) system (copyright 1983,
 Carnegie Mellon University). Gaussian is a federally registered
 trademark of Gaussian, Inc.
  
 This software contains proprietary and confidential information,
 including trade secrets, belonging to Gaussian, Inc.
  
 This software is provided under written license and may be
 used, copied, transmitted, or stored only in accord with that
 written license.
  
 The following legend is applicable only to US Government
 contracts under FAR:
  
                    RESTRICTED RIGHTS LEGEND
  
 Use, reproduction and disclosure by the US Government is
 subject to restrictions as set forth in subparagraphs (a)
 and (c) of the Commercial Computer Software - Restricted
 Rights clause in FAR 52.227-19.
  
 Gaussian, Inc.
 340 Quinnipiac St., Bldg. 40, Wallingford CT 06492
  
  
 ---------------------------------------------------------------
 Warning -- This program may not be used in any manner that
 competes with the business of Gaussian, Inc. or will provide
 assistance to any competitor of Gaussian, Inc.  The licensee
 of this program is prohibited from giving any competitor of
 Gaussian, Inc. access to this program.  By using this program,
 the user acknowledges that Gaussian, Inc. is engaged in the
 business of creating and licensing software in the field of
 computational chemistry and represents and warrants to the
 licensee that it is not a competitor of Gaussian, Inc. and that
 it will not use this program in any manner prohibited above.
 ---------------------------------------------------------------
  

 Cite this work as:
 Gaussian 16, Revision A.03,
 M. J. Frisch, G. W. Trucks, H. B. Schlegel, G. E. Scuseria, 
 M. A. Robb, J. R. Cheeseman, G. Scalmani, V. Barone, 
 G. A. Petersson, H. Nakatsuji, X. Li, M. Caricato, A. V. Marenich, 
 J. Bloino, B. G. Janesko, R. Gomperts, B. Mennucci, H. P. Hratchian, 
 J. V. Ortiz, A. F. Izmaylov, J. L. Sonnenberg, D. Williams-Young, 
 F. Ding, F. Lipparini, F. Egidi, J. Goings, B. Peng, A. Petrone, 
 T. Henderson, D. Ranasinghe, V. G. Zakrzewski, J. Gao, N. Rega, 
 G. Zheng, W. Liang, M. Hada, M. Ehara, K. Toyota, R. Fukuda, 
 J. Hasegawa, M. Ishida, T. Nakajima, Y. Honda, O. Kitao, H. Nakai, 
 T. Vreven, K. Throssell, J. A. Montgomery, Jr., J. E. Peralta, 
 F. Ogliaro, M. J. Bearpark, J. J. Heyd, E. N. Brothers, K. N. Kudin, 
 V. N. Staroverov, T. A. Keith, R. Kobayashi, J. Normand, 
 K. Raghavachari, A. P. Rendell, J. C. Burant, S. S. Iyengar, 
 J. Tomasi, M. Cossi, J. M. Millam, M. Klene, C. Adamo, R. Cammi, 
 J. W. Ochterski, R. L. Martin, K. Morokuma, O. Farkas, 
 J. B. Foresman, and D. J. Fox, Gaussian, Inc., Wallingford CT, 2016.
 
 ******************************************
 Gaussian 16:  ES64L-G16RevA.03 25-Dec-2016
                26-May-2023 
 ******************************************
 %chk=CCOCCOCOCCCNC1CqCCrC1CO.chk
 %NProcShared=20
 Will use up to   20 processors via shared memory.
 ----------------------------------------------------------------
 # opt freq b3lyp/6-31+g(2df,p) Geom=AllCheckpoint TD(NStates=10)
 ----------------------------------------------------------------
 1/18=20,19=15,26=3,29=7,38=1/1,3;
 2/9=110,12=2,40=1/2;
 3/5=1,6=6,7=114,11=9,14=-4,25=1,30=1,71=1,74=-5/1,2,3,8;
 4//1;
 5/5=2,38=5/2;
 8/6=1,10=2,108=10/1;
 9/15=2,41=10,42=1,70=2/14;
 10/5=4/2;
 6/7=2,8=2,9=2,10=2/1;
 7/12=6,13=5/1,2,3,16;
 1/18=20,19=15,26=3/3(2);
 2/9=110/2;
 99//99;
 2/9=110/2;
 3/5=1,6=6,7=114,11=9,14=-2,25=1,30=1,71=1,74=-5/1,2,3,8;
 4/5=5,16=3,69=1/1;
 5/5=2,38=5/2;
 8/6=1,10=2,108=10/1;
 9/15=2,41=10,42=1,49=4,70=2/14;
 10/5=4/2;
 7/12=6,13=5/1,2,3,16;
 1/18=20,19=15,26=3/3(-8);
 2/9=110/2;
 6/7=2,8=2,9=2,10=2/1;
 99//99;
 Structure from the checkpoint file:  "CCOCCOCOCCCNC1CqCCrC1CO.chk"
 -------------------
 Title Card Required
 -------------------
 Charge =  0 Multiplicity = 1
 Redundant internal coordinates found in file.  (old form).
 C,0,1.317694127,0.6007516635,0.143659863
 C,0,2.6182504406,-0.1402800222,0.402892868
 O,0,3.1494191219,-0.566116563,-0.835624002
 C,0,4.3626751204,-1.2686831269,-0.7094343265
 C,0,4.8137971497,-1.6595055226,-2.1081541121
 O,0,6.0279064045,-2.3667297659,-1.9799486883
 C,0,6.54871632,-2.777932443,-3.203865309
 O,0,7.7328390118,-3.4464567644,-2.911119747
 C,0,8.3846759726,-3.9446866086,-4.0624936955
 C,0,9.6656675627,-4.6397439747,-3.6241048275
 C,0,10.4284907615,-5.2573412101,-4.7946604747
 N,0,11.674509816,-5.8684601334,-4.3375196388
 C,0,12.4248988482,-6.4962038367,-5.3903179537
 C,0,13.3116343771,-7.6864085732,-5.1395221299
 C,0,13.4368537844,-8.3424335966,-3.7772731061
 C,0,14.398013122,-7.5926457952,-2.8460912286
 C,0,12.0626782151,-7.845975025,-5.9891629274
 C,0,12.1472759326,-8.0789991233,-7.4774574625
 O,0,11.0478072412,-7.5297532726,-8.195928107
 H,0,0.8804235711,0.9444438762,1.0858082615
 H,0,0.5969107958,-0.0525301638,-0.3562621178
 H,0,1.4925948613,1.4704272466,-0.4960965181
 H,0,2.4451146147,-1.009439649,1.0600234997
 H,0,3.3406502145,0.5134782204,0.9204953905
 H,0,4.2399735537,-2.1746589935,-0.0941536748
 H,0,5.1378887101,-0.6487759795,-0.230823598
 H,0,4.9415153825,-0.7542130706,-2.7227658346
 H,0,4.0389969753,-2.2788365767,-2.5876025385
 H,0,6.739621805,-1.9044428895,-3.863449393
 H,0,5.8351844242,-3.4483529797,-3.7296156628
 H,0,8.6136051279,-3.1214222847,-4.7608729293
 H,0,7.7260344658,-4.6486546381,-4.6001815945
 H,0,9.403352793,-5.4167365613,-2.894372912
 H,0,10.3090234473,-3.9218600036,-3.105423369
 H,0,10.6884531311,-4.4776162065,-5.5229695619
 H,0,9.7812566978,-5.9733960209,-5.3353042684
 H,0,11.4763032275,-6.5297118226,-3.5948506794
 H,0,12.8045455921,-5.7657550927,-6.1027301344
 H,0,14.2503687916,-7.6714771894,-5.6912646183
 H,0,13.7787733827,-9.3768195913,-3.9116431825
 H,0,12.4506832541,-8.4232123498,-3.302285908
 H,0,15.4010115867,-7.5350578759,-3.2827873714
 H,0,14.4848644629,-8.0940992074,-1.8770400179
 H,0,14.0516730238,-6.5689541935,-2.6745913893
 H,0,11.242249711,-8.3659023571,-5.4928847007
 H,0,12.2598461418,-9.153915483,-7.6944811679
 H,0,13.0357577473,-7.5786308516,-7.8789382305
 H,0,10.248159178,-7.9594736177,-7.876630773
 Recover connectivity data from disk.

 GradGradGradGradGradGradGradGradGradGradGradGradGradGradGradGradGradGrad
 Berny optimization.
 Initialization pass.
                           ----------------------------
                           !    Initial Parameters    !
                           ! (Angstroms and Degrees)  !
 --------------------------                            --------------------------
 ! Name  Definition              Value          Derivative Info.                !
 --------------------------------------------------------------------------------
 ! R1    R(1,2)                  1.5191         estimate D2E/DX2                !
 ! R2    R(1,20)                 1.0941         estimate D2E/DX2                !
 ! R3    R(1,21)                 1.0937         estimate D2E/DX2                !
 ! R4    R(1,22)                 1.0937         estimate D2E/DX2                !
 ! R5    R(2,3)                  1.4133         estimate D2E/DX2                !
 ! R6    R(2,23)                 1.1033         estimate D2E/DX2                !
 ! R7    R(2,24)                 1.1033         estimate D2E/DX2                !
 ! R8    R(3,4)                  1.4077         estimate D2E/DX2                !
 ! R9    R(4,5)                  1.5207         estimate D2E/DX2                !
 ! R10   R(4,25)                 1.102          estimate D2E/DX2                !
 ! R11   R(4,26)                 1.102          estimate D2E/DX2                !
 ! R12   R(5,6)                  1.4109         estimate D2E/DX2                !
 ! R13   R(5,27)                 1.1016         estimate D2E/DX2                !
 ! R14   R(5,28)                 1.1017         estimate D2E/DX2                !
 ! R15   R(6,7)                  1.3922         estimate D2E/DX2                !
 ! R16   R(7,8)                  1.391          estimate D2E/DX2                !
 ! R17   R(7,29)                 1.1111         estimate D2E/DX2                !
 ! R18   R(7,30)                 1.1113         estimate D2E/DX2                !
 ! R19   R(8,9)                  1.4138         estimate D2E/DX2                !
 ! R20   R(9,10)                 1.5219         estimate D2E/DX2                !
 ! R21   R(9,31)                 1.1036         estimate D2E/DX2                !
 ! R22   R(9,32)                 1.1039         estimate D2E/DX2                !
 ! R23   R(10,11)                1.5276         estimate D2E/DX2                !
 ! R24   R(10,33)                1.0977         estimate D2E/DX2                !
 ! R25   R(10,34)                1.0947         estimate D2E/DX2                !
 ! R26   R(11,12)                1.4612         estimate D2E/DX2                !
 ! R27   R(11,35)                1.0982         estimate D2E/DX2                !
 ! R28   R(11,36)                1.1063         estimate D2E/DX2                !
 ! R29   R(12,13)                1.4372         estimate D2E/DX2                !
 ! R30   R(12,37)                1.014          estimate D2E/DX2                !
 ! R31   R(13,14)                1.5053         estimate D2E/DX2                !
 ! R32   R(13,17)                1.5204         estimate D2E/DX2                !
 ! R33   R(13,38)                1.0887         estimate D2E/DX2                !
 ! R34   R(14,15)                1.5172         estimate D2E/DX2                !
 ! R35   R(14,17)                1.519          estimate D2E/DX2                !
 ! R36   R(14,39)                1.089          estimate D2E/DX2                !
 ! R37   R(15,16)                1.534          estimate D2E/DX2                !
 ! R38   R(15,40)                1.0977         estimate D2E/DX2                !
 ! R39   R(15,41)                1.0976         estimate D2E/DX2                !
 ! R40   R(16,42)                1.0955         estimate D2E/DX2                !
 ! R41   R(16,43)                1.0946         estimate D2E/DX2                !
 ! R42   R(16,44)                1.0942         estimate D2E/DX2                !
 ! R43   R(17,18)                1.5088         estimate D2E/DX2                !
 ! R44   R(17,45)                1.0907         estimate D2E/DX2                !
 ! R45   R(18,19)                1.4236         estimate D2E/DX2                !
 ! R46   R(18,46)                1.1024         estimate D2E/DX2                !
 ! R47   R(18,47)                1.0959         estimate D2E/DX2                !
 ! R48   R(19,48)                0.9623         estimate D2E/DX2                !
 ! A1    A(2,1,20)             110.3929         estimate D2E/DX2                !
 ! A2    A(2,1,21)             110.5383         estimate D2E/DX2                !
 ! A3    A(2,1,22)             110.5355         estimate D2E/DX2                !
 ! A4    A(20,1,21)            108.5335         estimate D2E/DX2                !
 ! A5    A(20,1,22)            108.5323         estimate D2E/DX2                !
 ! A6    A(21,1,22)            108.2383         estimate D2E/DX2                !
 ! A7    A(1,2,3)              108.6143         estimate D2E/DX2                !
 ! A8    A(1,2,23)             110.5836         estimate D2E/DX2                !
 ! A9    A(1,2,24)             110.5839         estimate D2E/DX2                !
 ! A10   A(3,2,23)             110.0943         estimate D2E/DX2                !
 ! A11   A(3,2,24)             110.0959         estimate D2E/DX2                !
 ! A12   A(23,2,24)            106.8664         estimate D2E/DX2                !
 ! A13   A(2,3,4)              113.3132         estimate D2E/DX2                !
 ! A14   A(3,4,5)              107.5472         estimate D2E/DX2                !
 ! A15   A(3,4,25)             111.3709         estimate D2E/DX2                !
 ! A16   A(3,4,26)             111.3766         estimate D2E/DX2                !
 ! A17   A(5,4,25)             109.5894         estimate D2E/DX2                !
 ! A18   A(5,4,26)             109.5946         estimate D2E/DX2                !
 ! A19   A(25,4,26)            107.3563         estimate D2E/DX2                !
 ! A20   A(4,5,6)              107.4883         estimate D2E/DX2                !
 ! A21   A(4,5,27)             109.6541         estimate D2E/DX2                !
 ! A22   A(4,5,28)             109.6404         estimate D2E/DX2                !
 ! A23   A(6,5,27)             111.2751         estimate D2E/DX2                !
 ! A24   A(6,5,28)             111.2808         estimate D2E/DX2                !
 ! A25   A(27,5,28)            107.4997         estimate D2E/DX2                !
 ! A26   A(5,6,7)              112.9589         estimate D2E/DX2                !
 ! A27   A(6,7,8)              105.9853         estimate D2E/DX2                !
 ! A28   A(6,7,29)             110.7294         estimate D2E/DX2                !
 ! A29   A(6,7,30)             110.7255         estimate D2E/DX2                !
 ! A30   A(8,7,29)             110.8865         estimate D2E/DX2                !
 ! A31   A(8,7,30)             110.8678         estimate D2E/DX2                !
 ! A32   A(29,7,30)            107.6826         estimate D2E/DX2                !
 ! A33   A(7,8,9)              112.984          estimate D2E/DX2                !
 ! A34   A(8,9,10)             108.3264         estimate D2E/DX2                !
 ! A35   A(8,9,31)             110.3722         estimate D2E/DX2                !
 ! A36   A(8,9,32)             110.2632         estimate D2E/DX2                !
 ! A37   A(10,9,31)            110.388          estimate D2E/DX2                !
 ! A38   A(10,9,32)            110.5654         estimate D2E/DX2                !
 ! A39   A(31,9,32)            106.934          estimate D2E/DX2                !
 ! A40   A(9,10,11)            112.5958         estimate D2E/DX2                !
 ! A41   A(9,10,33)            108.2769         estimate D2E/DX2                !
 ! A42   A(9,10,34)            109.3697         estimate D2E/DX2                !
 ! A43   A(11,10,33)           110.0324         estimate D2E/DX2                !
 ! A44   A(11,10,34)           109.5564         estimate D2E/DX2                !
 ! A45   A(33,10,34)           106.8367         estimate D2E/DX2                !
 ! A46   A(10,11,12)           110.8052         estimate D2E/DX2                !
 ! A47   A(10,11,35)           109.8372         estimate D2E/DX2                !
 ! A48   A(10,11,36)           110.1208         estimate D2E/DX2                !
 ! A49   A(12,11,35)           107.6127         estimate D2E/DX2                !
 ! A50   A(12,11,36)           112.4006         estimate D2E/DX2                !
 ! A51   A(35,11,36)           105.8993         estimate D2E/DX2                !
 ! A52   A(11,12,13)           113.4995         estimate D2E/DX2                !
 ! A53   A(11,12,37)           109.5856         estimate D2E/DX2                !
 ! A54   A(13,12,37)           110.7175         estimate D2E/DX2                !
 ! A55   A(12,13,14)           122.0658         estimate D2E/DX2                !
 ! A56   A(12,13,17)           123.4969         estimate D2E/DX2                !
 ! A57   A(12,13,38)           111.6154         estimate D2E/DX2                !
 ! A58   A(14,13,38)           115.7293         estimate D2E/DX2                !
 ! A59   A(17,13,38)           114.8965         estimate D2E/DX2                !
 ! A60   A(13,14,15)           122.6921         estimate D2E/DX2                !
 ! A61   A(13,14,39)           114.3658         estimate D2E/DX2                !
 ! A62   A(15,14,17)           121.647          estimate D2E/DX2                !
 ! A63   A(15,14,39)           112.9365         estimate D2E/DX2                !
 ! A64   A(17,14,39)           115.2671         estimate D2E/DX2                !
 ! A65   A(14,15,16)           112.6696         estimate D2E/DX2                !
 ! A66   A(14,15,40)           108.8604         estimate D2E/DX2                !
 ! A67   A(14,15,41)           110.2575         estimate D2E/DX2                !
 ! A68   A(16,15,40)           109.8606         estimate D2E/DX2                !
 ! A69   A(16,15,41)           109.6487         estimate D2E/DX2                !
 ! A70   A(40,15,41)           105.2776         estimate D2E/DX2                !
 ! A71   A(15,16,42)           110.9405         estimate D2E/DX2                !
 ! A72   A(15,16,43)           111.298          estimate D2E/DX2                !
 ! A73   A(15,16,44)           110.7383         estimate D2E/DX2                !
 ! A74   A(42,16,43)           107.72           estimate D2E/DX2                !
 ! A75   A(42,16,44)           107.6441         estimate D2E/DX2                !
 ! A76   A(43,16,44)           108.3584         estimate D2E/DX2                !
 ! A77   A(13,17,18)           120.8147         estimate D2E/DX2                !
 ! A78   A(13,17,45)           115.0342         estimate D2E/DX2                !
 ! A79   A(14,17,18)           121.4582         estimate D2E/DX2                !
 ! A80   A(14,17,45)           114.459          estimate D2E/DX2                !
 ! A81   A(18,17,45)           114.6682         estimate D2E/DX2                !
 ! A82   A(17,18,19)           113.2616         estimate D2E/DX2                !
 ! A83   A(17,18,46)           110.519          estimate D2E/DX2                !
 ! A84   A(17,18,47)           109.6526         estimate D2E/DX2                !
 ! A85   A(19,18,46)           110.8369         estimate D2E/DX2                !
 ! A86   A(19,18,47)           105.3726         estimate D2E/DX2                !
 ! A87   A(46,18,47)           106.8762         estimate D2E/DX2                !
 ! A88   A(18,19,48)           107.579          estimate D2E/DX2                !
 ! D1    D(20,1,2,3)          -179.989          estimate D2E/DX2                !
 ! D2    D(20,1,2,23)           59.0974         estimate D2E/DX2                !
 ! D3    D(20,1,2,24)          -59.0734         estimate D2E/DX2                !
 ! D4    D(21,1,2,3)            59.9177         estimate D2E/DX2                !
 ! D5    D(21,1,2,23)          -60.9958         estimate D2E/DX2                !
 ! D6    D(21,1,2,24)         -179.1666         estimate D2E/DX2                !
 ! D7    D(22,1,2,3)           -59.8992         estimate D2E/DX2                !
 ! D8    D(22,1,2,23)          179.1873         estimate D2E/DX2                !
 ! D9    D(22,1,2,24)           61.0164         estimate D2E/DX2                !
 ! D10   D(1,2,3,4)           -179.9741         estimate D2E/DX2                !
 ! D11   D(23,2,3,4)           -58.7595         estimate D2E/DX2                !
 ! D12   D(24,2,3,4)            58.81           estimate D2E/DX2                !
 ! D13   D(2,3,4,5)           -179.9137         estimate D2E/DX2                !
 ! D14   D(2,3,4,25)            59.9978         estimate D2E/DX2                !
 ! D15   D(2,3,4,26)           -59.8154         estimate D2E/DX2                !
 ! D16   D(3,4,5,6)           -179.8413         estimate D2E/DX2                !
 ! D17   D(3,4,5,27)            59.0613         estimate D2E/DX2                !
 ! D18   D(3,4,5,28)           -58.7452         estimate D2E/DX2                !
 ! D19   D(25,4,5,6)           -58.63           estimate D2E/DX2                !
 ! D20   D(25,4,5,27)         -179.7273         estimate D2E/DX2                !
 ! D21   D(25,4,5,28)           62.4662         estimate D2E/DX2                !
 ! D22   D(26,4,5,6)            58.9372         estimate D2E/DX2                !
 ! D23   D(26,4,5,27)          -62.1601         estimate D2E/DX2                !
 ! D24   D(26,4,5,28)         -179.9666         estimate D2E/DX2                !
 ! D25   D(4,5,6,7)           -179.7933         estimate D2E/DX2                !
 ! D26   D(27,5,6,7)           -59.7195         estimate D2E/DX2                !
 ! D27   D(28,5,6,7)            60.1463         estimate D2E/DX2                !
 ! D28   D(5,6,7,8)            179.7391         estimate D2E/DX2                !
 ! D29   D(5,6,7,29)            59.4114         estimate D2E/DX2                !
 ! D30   D(5,6,7,30)           -59.958          estimate D2E/DX2                !
 ! D31   D(6,7,8,9)            179.3739         estimate D2E/DX2                !
 ! D32   D(29,7,8,9)           -60.4008         estimate D2E/DX2                !
 ! D33   D(30,7,8,9)            59.1636         estimate D2E/DX2                !
 ! D34   D(7,8,9,10)           179.4524         estimate D2E/DX2                !
 ! D35   D(7,8,9,31)            58.49           estimate D2E/DX2                !
 ! D36   D(7,8,9,32)           -59.4337         estimate D2E/DX2                !
 ! D37   D(8,9,10,11)          178.1389         estimate D2E/DX2                !
 ! D38   D(8,9,10,33)           56.2553         estimate D2E/DX2                !
 ! D39   D(8,9,10,34)          -59.8131         estimate D2E/DX2                !
 ! D40   D(31,9,10,11)         -60.9084         estimate D2E/DX2                !
 ! D41   D(31,9,10,33)         177.208          estimate D2E/DX2                !
 ! D42   D(31,9,10,34)          61.1396         estimate D2E/DX2                !
 ! D43   D(32,9,10,11)          57.2121         estimate D2E/DX2                !
 ! D44   D(32,9,10,33)         -64.6715         estimate D2E/DX2                !
 ! D45   D(32,9,10,34)         179.26           estimate D2E/DX2                !
 ! D46   D(9,10,11,12)         177.8279         estimate D2E/DX2                !
 ! D47   D(9,10,11,35)          59.0652         estimate D2E/DX2                !
 ! D48   D(9,10,11,36)         -57.187          estimate D2E/DX2                !
 ! D49   D(33,10,11,12)        -61.2882         estimate D2E/DX2                !
 ! D50   D(33,10,11,35)        179.9492         estimate D2E/DX2                !
 ! D51   D(33,10,11,36)         63.6969         estimate D2E/DX2                !
 ! D52   D(34,10,11,12)         55.8855         estimate D2E/DX2                !
 ! D53   D(34,10,11,35)        -62.8772         estimate D2E/DX2                !
 ! D54   D(34,10,11,36)       -179.1294         estimate D2E/DX2                !
 ! D55   D(10,11,12,13)        178.6151         estimate D2E/DX2                !
 ! D56   D(10,11,12,37)         54.2721         estimate D2E/DX2                !
 ! D57   D(35,11,12,13)        -61.2857         estimate D2E/DX2                !
 ! D58   D(35,11,12,37)        174.3713         estimate D2E/DX2                !
 ! D59   D(36,11,12,13)         54.9287         estimate D2E/DX2                !
 ! D60   D(36,11,12,37)        -69.4144         estimate D2E/DX2                !
 ! D61   D(11,12,13,14)       -150.0677         estimate D2E/DX2                !
 ! D62   D(11,12,13,17)        -76.7603         estimate D2E/DX2                !
 ! D63   D(11,12,13,38)         66.8735         estimate D2E/DX2                !
 ! D64   D(37,12,13,14)        -26.3397         estimate D2E/DX2                !
 ! D65   D(37,12,13,17)         46.9677         estimate D2E/DX2                !
 ! D66   D(37,12,13,38)       -169.3985         estimate D2E/DX2                !
 ! D67   D(12,13,14,15)          2.4708         estimate D2E/DX2                !
 ! D68   D(12,13,14,39)       -140.5653         estimate D2E/DX2                !
 ! D69   D(38,13,14,15)        144.1384         estimate D2E/DX2                !
 ! D70   D(38,13,14,39)          1.1023         estimate D2E/DX2                !
 ! D71   D(12,13,17,18)        138.5248         estimate D2E/DX2                !
 ! D72   D(12,13,17,45)         -6.0553         estimate D2E/DX2                !
 ! D73   D(38,13,17,18)         -4.0502         estimate D2E/DX2                !
 ! D74   D(38,13,17,45)       -148.6302         estimate D2E/DX2                !
 ! D75   D(13,14,15,16)        -80.7818         estimate D2E/DX2                !
 ! D76   D(13,14,15,40)        157.0945         estimate D2E/DX2                !
 ! D77   D(13,14,15,41)         42.0779         estimate D2E/DX2                !
 ! D78   D(17,14,15,16)       -153.6436         estimate D2E/DX2                !
 ! D79   D(17,14,15,40)         84.2326         estimate D2E/DX2                !
 ! D80   D(17,14,15,41)        -30.7839         estimate D2E/DX2                !
 ! D81   D(39,14,15,16)         62.7215         estimate D2E/DX2                !
 ! D82   D(39,14,15,40)        -59.4022         estimate D2E/DX2                !
 ! D83   D(39,14,15,41)       -174.4188         estimate D2E/DX2                !
 ! D84   D(15,14,17,18)       -138.0955         estimate D2E/DX2                !
 ! D85   D(15,14,17,45)          6.5708         estimate D2E/DX2                !
 ! D86   D(39,14,17,18)          4.7606         estimate D2E/DX2                !
 ! D87   D(39,14,17,45)        149.4268         estimate D2E/DX2                !
 ! D88   D(14,15,16,42)        -59.0783         estimate D2E/DX2                !
 ! D89   D(14,15,16,43)       -179.0096         estimate D2E/DX2                !
 ! D90   D(14,15,16,44)         60.3882         estimate D2E/DX2                !
 ! D91   D(40,15,16,42)         62.4795         estimate D2E/DX2                !
 ! D92   D(40,15,16,43)        -57.4518         estimate D2E/DX2                !
 ! D93   D(40,15,16,44)       -178.054          estimate D2E/DX2                !
 ! D94   D(41,15,16,42)        177.722          estimate D2E/DX2                !
 ! D95   D(41,15,16,43)         57.7907         estimate D2E/DX2                !
 ! D96   D(41,15,16,44)        -62.8115         estimate D2E/DX2                !
 ! D97   D(13,17,18,19)        -78.1483         estimate D2E/DX2                !
 ! D98   D(13,17,18,46)        156.8012         estimate D2E/DX2                !
 ! D99   D(13,17,18,47)         39.2333         estimate D2E/DX2                !
 ! D100  D(14,17,18,19)       -148.8495         estimate D2E/DX2                !
 ! D101  D(14,17,18,46)         86.1            estimate D2E/DX2                !
 ! D102  D(14,17,18,47)        -31.4678         estimate D2E/DX2                !
 ! D103  D(45,17,18,19)         66.5521         estimate D2E/DX2                !
 ! D104  D(45,17,18,46)        -58.4984         estimate D2E/DX2                !
 ! D105  D(45,17,18,47)       -176.0663         estimate D2E/DX2                !
 ! D106  D(17,18,19,48)        -61.0303         estimate D2E/DX2                !
 ! D107  D(46,18,19,48)         63.8485         estimate D2E/DX2                !
 ! D108  D(47,18,19,48)        179.1123         estimate D2E/DX2                !
 --------------------------------------------------------------------------------
 Trust Radius=3.00D-01 FncErr=1.00D-07 GrdErr=1.00D-06 EigMax=2.50D+02 EigMin=1.00D-04
 Number of steps in this run=    254 maximum allowed number of steps=    288.
 GradGradGradGradGradGradGradGradGradGradGradGradGradGradGradGradGradGrad

                          Input orientation:                          
 ---------------------------------------------------------------------
 Center     Atomic      Atomic             Coordinates (Angstroms)
 Number     Number       Type             X           Y           Z
 ---------------------------------------------------------------------
      1          6           0        1.317694    0.600752    0.143660
      2          6           0        2.618250   -0.140280    0.402893
      3          8           0        3.149419   -0.566117   -0.835624
      4          6           0        4.362675   -1.268683   -0.709434
      5          6           0        4.813797   -1.659506   -2.108154
      6          8           0        6.027906   -2.366730   -1.979949
      7          6           0        6.548716   -2.777932   -3.203865
      8          8           0        7.732839   -3.446457   -2.911120
      9          6           0        8.384676   -3.944687   -4.062494
     10          6           0        9.665668   -4.639744   -3.624105
     11          6           0       10.428491   -5.257341   -4.794660
     12          7           0       11.674510   -5.868460   -4.337520
     13          6           0       12.424899   -6.496204   -5.390318
     14          6           0       13.311634   -7.686409   -5.139522
     15          6           0       13.436854   -8.342434   -3.777273
     16          6           0       14.398013   -7.592646   -2.846091
     17          6           0       12.062678   -7.845975   -5.989163
     18          6           0       12.147276   -8.078999   -7.477457
     19          8           0       11.047807   -7.529753   -8.195928
     20          1           0        0.880424    0.944444    1.085808
     21          1           0        0.596911   -0.052530   -0.356262
     22          1           0        1.492595    1.470427   -0.496097
     23          1           0        2.445115   -1.009440    1.060023
     24          1           0        3.340650    0.513478    0.920495
     25          1           0        4.239974   -2.174659   -0.094154
     26          1           0        5.137889   -0.648776   -0.230824
     27          1           0        4.941515   -0.754213   -2.722766
     28          1           0        4.038997   -2.278837   -2.587603
     29          1           0        6.739622   -1.904443   -3.863449
     30          1           0        5.835184   -3.448353   -3.729616
     31          1           0        8.613605   -3.121422   -4.760873
     32          1           0        7.726034   -4.648655   -4.600182
     33          1           0        9.403353   -5.416737   -2.894373
     34          1           0       10.309023   -3.921860   -3.105423
     35          1           0       10.688453   -4.477616   -5.522970
     36          1           0        9.781257   -5.973396   -5.335304
     37          1           0       11.476303   -6.529712   -3.594851
     38          1           0       12.804546   -5.765755   -6.102730
     39          1           0       14.250369   -7.671477   -5.691265
     40          1           0       13.778773   -9.376820   -3.911643
     41          1           0       12.450683   -8.423212   -3.302286
     42          1           0       15.401012   -7.535058   -3.282787
     43          1           0       14.484864   -8.094099   -1.877040
     44          1           0       14.051673   -6.568954   -2.674591
     45          1           0       11.242250   -8.365902   -5.492885
     46          1           0       12.259846   -9.153915   -7.694481
     47          1           0       13.035758   -7.578631   -7.878938
     48          1           0       10.248159   -7.959474   -7.876631
 ---------------------------------------------------------------------
                    Distance matrix (angstroms):
                    1          2          3          4          5
     1  C    0.000000
     2  C    1.519137   0.000000
     3  O    2.382393   1.413294   0.000000
     4  C    3.673481   2.356604   1.407663   0.000000
     5  C    4.733093   3.665219   2.363258   1.520747   0.000000
     6  O    5.958335   4.718132   3.582928   2.364933   1.410909
     7  C    7.070009   5.951006   4.696373   3.644008   2.336965
     8  O    8.177142   6.933434   5.797567   4.576912   3.515502
     9  C    9.396540   8.225865   7.016790   5.880518   4.668262
    10  C   10.552133   9.280516   8.175057   6.926838   5.892417
    11  C   11.904238  10.686381   9.521893   8.330221   7.189334
    12  N   13.007509  11.717482  10.632746   9.369305   8.351931
    13  C   14.295513  13.043367  11.914097  10.688176   9.596620
    14  C   15.506245  14.213053  13.133648  11.869994  10.850161
    15  C   15.563686  14.205326  13.227083  11.907573  11.036512
    16  C   15.721486  14.312808  13.414356  12.052627  11.296190
    17  C   14.980434  13.763478  12.609579  11.420436  10.289845
    18  C   15.833488  14.694404  13.472891  12.360686  11.127409
    19  O   15.176592  14.128038  12.847212  11.829606  10.506364
    20  H    1.094063   2.159408   3.334972   4.499656   5.696786
    21  H    1.093722   2.160979   2.647425   3.973001   4.840829
    22  H    1.093716   2.160940   2.647236   3.973110   4.839999
    23  H    2.168759   1.103284   2.070280   2.622065   4.008814
    24  H    2.168742   1.103256   2.070278   2.622462   4.008084
    25  H    4.037224   2.648724   2.080023   1.102006   2.156584
    26  H    4.036762   2.647403   2.080055   1.101957   2.156613
    27  H    4.815019   3.942615   2.609271   2.157137   1.101641
    28  H    4.812204   3.941447   2.606566   2.157010   1.101706
    29  H    7.192373   6.188671   4.883482   4.000235   2.617223
    30  H    7.197585   6.194323   4.888334   4.005089   2.621516
    31  H    9.546693   8.455529   7.196839   6.157695   4.859286
    32  H    9.546053   8.452553   7.196139   6.154211   4.860693
    33  H   10.526998   9.206007   8.177937   6.883948   5.983222
    34  H   10.576132   9.260487   8.226356   6.938240   6.025803
    35  H   12.071107  10.911302   9.700931   8.572213   7.356242
    36  H   12.036210  10.874778   9.667837   8.537800   7.328015
    37  H   12.962149  11.630644  10.607299   9.306329   8.385593
    38  H   14.542955  13.331531  12.165530  10.980732   9.832089
    39  H   16.423465  15.138159  14.046155  12.789875  11.748675
    40  H   16.470456  15.115759  14.144736  12.831949  11.965797
    41  H   14.739400  13.379539  12.423039  11.105226  10.271110
    42  H   16.621425  15.220577  14.305812  12.951234  12.165155
    43  H   15.907798  14.466439  13.647248  12.264107  11.618389
    44  H   14.882924  13.473007  12.580739  11.217459  10.476731
    45  H   14.514418  13.296406  12.166373  10.980914   9.887222
    46  H   16.622896  15.484620  14.275647  13.165602  11.950602
    47  H   16.388331  15.246057  14.018678  12.901147  11.659272
    48  H   14.742989  13.707874  12.435016  11.435659  10.124091
                    6          7          8          9         10
     6  O    0.000000
     7  C    1.392229   0.000000
     8  O    2.222540   1.390961   0.000000
     9  C    3.518708   2.338655   1.413784   0.000000
    10  C    4.593816   3.654905   2.380779   1.521916   0.000000
    11  C    5.970208   4.871421   3.754140   2.536988   1.527588
    12  N    7.050134   6.091822   4.841228   3.820936   2.460519
    13  C    8.342942   7.289420   6.120687   4.959512   3.765542
    14  C    9.556913   8.577702   7.352954   6.279761   4.987156
    15  C    9.686687   8.873495   7.566809   6.704180   5.287269
    16  C    9.905508   9.215255   7.849819   7.137749   5.632054
    17  C    9.083744   7.990414   6.897653   5.697351   4.649632
    18  C   10.014954   8.815258   7.861243   6.550700   5.730199
    19  O    9.512866   8.230572   7.455972   6.085249   5.582475
    20  H    6.845386   8.024147   9.067030  10.330654  11.425714
    21  H    6.122711   7.138673   8.304668   9.462258  10.675377
    22  H    6.123287   7.137572   8.303537   9.462739  10.673226
    23  H    4.890814   6.176396   7.047628   8.374619   9.341122
    24  H    4.891781   6.175389   7.046537   8.375417   9.338894
    25  H    2.605728   3.919763   4.663998   6.004938   6.926424
    26  H    2.608244   3.919530   4.663129   6.007192   6.924086
    27  H    2.081402   2.628686   3.882672   4.881531   6.182829
    28  H    2.081521   2.632027   3.887476   4.882140   6.189317
    29  H    2.065871   1.111072   2.066693   2.628387   4.012593
    30  H    2.066007   1.111308   2.066648   2.618599   4.012873
    31  H    3.871555   2.608836   2.074363   1.103588   2.168958
    32  H    3.867356   2.614456   2.073224   1.103851   2.171401
    33  H    4.640296   3.899746   2.583196   2.137555   1.097741
    34  H    4.691811   3.931688   2.626878   2.149330   1.094666
    35  H    6.223306   5.040297   4.076850   2.779279   2.162883
    36  H    6.193068   5.020293   4.056859   2.772390   2.172600
    37  H    7.044385   6.205629   4.897701   4.056995   2.617487
    38  H    8.629805   7.514380   6.425553   5.197509   4.155002
    39  H   10.465328   9.457769   8.249739   7.137802   5.872311
    40  H   10.627735   9.814275   8.527812   7.656834   6.280144
    41  H    8.926456   8.167747   6.868709   6.096517   4.708982
    42  H   10.782583  10.049856   8.698027   7.920080   6.433779
    43  H   10.214377   9.643886   8.261946   7.694552   6.181380
    44  H    9.084165   8.422965   7.052205   6.397492   4.884718
    45  H    8.690234   7.648155   6.571333   5.455171   4.456703
    46  H   10.842456   9.666219   8.714897   7.439378   6.608742
    47  H   10.539069   9.326560   8.359129   7.028752   6.172372
    48  H    9.157520   7.897404   7.165923   5.842835   5.426221
                   11         12         13         14         15
    11  C    0.000000
    12  N    1.461167   0.000000
    13  C    2.423888   1.437195   0.000000
    14  C    3.785738   2.574553   1.505253   0.000000
    15  C    4.427541   3.088734   2.652269   1.517159   0.000000
    16  C    5.000768   3.551710   3.401243   2.539456   1.533985
    17  C    3.286096   2.605603   1.520428   1.518961   2.650903
    18  C    4.255981   3.869005   2.634097   2.641174   3.927311
    19  O    4.137153   4.247348   3.291816   3.806714   5.088468
    20  H   12.814353  13.868686  15.184807  16.364026  16.357249
    21  H   11.977036  13.129686  14.379289  15.582679  15.661735
    22  H   11.982936  13.125822  14.385266  15.655630  15.802648
    23  H   10.772942  11.744160  13.088452  14.180886  14.070912
    24  H   10.779742  11.740063  13.095250  14.261223  14.227773
    25  H    8.360349   9.323232  10.663869  11.752879  11.670022
    26  H    8.370063   9.318662  10.673018  11.850473  11.859279
    27  H    7.394444   8.607913   9.802414  11.133505  11.439574
    28  H    7.387031   8.616766   9.796160  11.033401  11.247321
    29  H    5.071177   6.347542   7.465787   8.845950   9.290214
    30  H    5.050269   6.350133   7.447930   8.708976   9.041000
    31  H    2.803052   4.134560   5.129455   6.561551   7.175664
    32  H    2.776975   4.140939   5.110487   6.381047   6.850886
    33  H    2.165042   2.728531   4.065062   5.046461   5.060469
    34  H    2.156688   2.678034   4.040411   5.227337   5.456755
    35  H    1.098174   2.076547   2.665996   4.162266   5.053511
    36  H    1.106319   2.142660   2.695403   3.928907   4.626358
    37  H    2.038721   1.013951   2.030926   2.663156   2.676378
    38  H    2.759559   2.098451   1.088677   2.207673   3.528007
    39  H    4.608547   3.423236   2.191843   1.088974   2.185258
    40  H    5.382770   4.113135   3.509616   2.140886   1.097688
    41  H    4.042176   2.863724   2.841462   2.158600   1.097575
    42  H    5.674479   4.216257   3.791853   2.799262   2.180433
    43  H    5.745770   4.348048   4.374911   3.490912   2.184235
    44  H    4.398008   2.984448   3.166521   2.805752   2.176956
    45  H    3.288293   2.785486   2.214713   2.206565   2.785707
    46  H    5.190965   4.733500   3.521341   3.128522   4.169936
    47  H    4.658218   4.161649   2.781731   2.755381   4.191411
    48  H    4.102753   4.351106   3.614015   4.117185   5.207606
                   16         17         18         19         20
    16  C    0.000000
    17  C    3.923884   0.000000
    18  C    5.172225   1.508800   0.000000
    19  O    6.312574   2.449443   1.423623   0.000000
    20  H   16.464111  15.886142  16.783742  16.165962   0.000000
    21  H   15.922406  14.964330  15.765360  15.052922   1.775923
    22  H   15.944014  15.122691  15.920213  15.218171   1.775904
    23  H   14.193947  13.745064  14.730892  14.219474   2.503315
    24  H   14.218358  13.917529  14.896742  14.394548   2.503153
    25  H   11.836955  11.318554  12.324765  11.860117   4.733676
    26  H   11.866207  11.528697  12.524114  12.071366   4.732640
    27  H   11.670678  10.567563  11.321774  10.637211   5.820923
    28  H   11.645282  10.341330  11.103907  10.399465   5.818941
    29  H    9.593833   8.255628   8.968217   8.305116   8.181779
    30  H    9.553942   7.951497   8.679384   7.986064   8.187468
    31  H    7.557619   5.977140   6.666651   6.095763  10.512709
    32  H    7.500614   5.564046   6.292325   5.680167  10.510738
    33  H    5.448261   4.748783   5.968368   5.939323  11.355474
    34  H    5.501069   5.175900   6.306795   6.282988  11.408148
    35  H    5.534431   3.667652   4.349499   4.073007  13.010462
    36  H    5.489316   3.023073   3.823667   3.494219  12.973512
    37  H    3.197946   2.794479   4.233808   4.727960  13.785653
    38  H    4.059848   2.211466   2.770014   3.252583  15.455955
    39  H    2.850092   2.214765   2.789186   4.068148  17.289252
    40  H    2.168441   3.099122   4.130515   5.406008  17.258923
    41  H    2.165652   2.775439   4.200309   5.168565  15.520286
    42  H    1.095457   4.308783   5.336471   6.564249  17.373372
    43  H    1.094559   4.778923   6.068709   7.215275  16.599836
    44  H    1.094216   4.071028   5.382795   6.358577  15.622854
    45  H    4.190738   1.090743   2.199981   2.836088  15.405492
    46  H    5.524148   2.158169   1.102369   2.087676  17.565922
    47  H    5.213970   2.142337   1.095881   2.013658  17.342481
    48  H    6.531629   2.620667   1.944292   0.962314  15.727668
                   21         22         23         24         25
    21  H    0.000000
    22  H    1.772344   0.000000
    23  H    2.517419   3.078724   0.000000
    24  H    3.078730   2.517497   1.772211   0.000000
    25  H    4.224220   4.582172   2.431333   3.010710   0.000000
    26  H    4.581673   4.224874   3.007889   2.430316   1.775739
    27  H    4.996828   4.669275   4.539455   4.176501   3.069109
    28  H    4.667256   4.991547   4.178158   4.537782   2.503704
    29  H    7.311829   7.089436   6.594271   6.347084   4.530877
    30  H    7.095818   7.314925   6.354645   6.598662   4.169362
    31  H    9.648113   9.485894   8.740342   8.561221   6.465546
    32  H    9.484704   9.651033   8.553942   8.738254   6.211084
    33  H   10.619328  10.759407   9.136662   9.299303   6.709156
    34  H   10.809937  10.659023   9.363450   9.189041   6.996701
    35  H   12.170270  12.050414  11.104804  10.973581   8.738338
    36  H   12.008319  12.146207  10.925203  11.076822   8.520908
    37  H   13.069182  13.163546  11.563028  11.669778   9.142529
    38  H   14.652276  14.551869  13.462741  13.353643  11.061232
    39  H   16.520518  16.532543  15.143535  15.156874  12.718124
    40  H   16.533137  16.741532  14.939288  15.169772  12.547233
    41  H   14.807407  15.027924  13.194892  13.442062  10.805197
    42  H   16.843817  16.802037  15.142621  15.096319  12.785540
    43  H   16.120014  16.192166  14.274954  14.356535  11.965628
    44  H   15.128419  15.070101  13.400289  13.334598  11.056127
    45  H   14.450616  14.723350  13.207866  13.505929  10.793964
    46  H   16.513895  16.751928  15.469415  15.723498  13.068793
    47  H   16.369415  16.420609  15.336917  15.391796  12.929486
    48  H   14.567851  14.834258  13.749701  14.031893  11.407424
                   26         27         28         29         30
    26  H    0.000000
    27  H    2.501890   0.000000
    28  H    3.069050   1.776875   0.000000
    29  H    4.163919   2.420201   3.010204   0.000000
    30  H    4.534909   3.011774   2.428632   1.794318   0.000000
    31  H    6.222213   4.820975   5.134208   2.407950   2.981610
    32  H    6.464427   5.142462   4.822941   3.007737   2.402899
    33  H    6.929800   6.455739   6.222286   4.513400   4.159806
    34  H    6.761438   6.244242   6.502376   4.169557   4.541923
    35  H    8.571790   7.398119   7.593832   4.996849   5.275388
    36  H    8.715972   7.582105   7.360243   5.289072   4.952329
    37  H    9.277801   8.764723   8.625428   6.625814   6.429242
    38  H   10.928879   9.918012  10.067252   7.530432   7.718421
    39  H   12.734679  11.971436  11.957650   9.644217   9.617597
    40  H   12.821547  12.404028  12.124260  10.265885   9.913650
    41  H   11.106426  10.748814  10.441293   8.684785   8.288345
    42  H   12.730556  12.477762  12.538202  10.347012  10.411814
    43  H   12.062704  12.069163  11.976574  10.111699   9.991594
    44  H   10.976159  10.807798  10.893409   8.754264   8.852226
    45  H   11.158250  10.262097   9.868125   8.042336   7.518495
    46  H   13.370335  12.199628  11.871364   9.884560   9.463080
    47  H   12.995879  11.776058  11.705886   9.378800   9.280319
    48  H   11.748171  10.326595   9.939676   8.067147   7.551310
                   31         32         33         34         35
    31  H    0.000000
    32  H    1.773709   0.000000
    33  H    3.062024   2.512594   0.000000
    34  H    2.501131   3.071541   1.760522   0.000000
    35  H    2.593270   3.107526   3.072938   2.509454   0.000000
    36  H    3.134826   2.553289   2.531961   3.075664   1.759426
    37  H    4.601205   4.314346   2.454894   2.898788   2.923944
    38  H    5.133913   5.412656   4.688655   4.314096   2.544262
    39  H    7.303542   7.272885   6.033243   6.023322   4.787099
    40  H    8.156602   7.711373   5.988439   6.515039   6.012374
    41  H    6.705194   6.184992   4.300176   4.988751   4.858459
    42  H    8.230055   8.304946   6.372602   6.246199   6.047692
    43  H    8.216793   8.060296   5.833095   6.029441   6.386274
    44  H    6.768355   6.885430   4.794037   4.604362   4.878340
    45  H    5.911868   5.194095   4.339514   5.130341   3.927641
    46  H    7.634927   7.101233   6.720647   7.227694   5.390038
    47  H    7.010312   6.894068   6.535598   6.602537   4.547166
    48  H    5.982178   5.296957   5.657040   6.250636   4.225744
                   36         37         38         39         40
    36  H    0.000000
    37  H    2.492358   0.000000
    38  H    3.126073   2.938931   0.000000
    39  H    4.794075   3.659784   2.427238   0.000000
    40  H    5.439691   3.675289   4.334717   2.509511   0.000000
    41  H    4.154588   2.149501   3.876827   3.084022   1.744851
    42  H    6.183305   4.063427   4.221865   2.672705   2.533615
    43  H    6.211352   3.801266   5.108925   3.844725   2.506700
    44  H    5.066610   2.735132   3.735317   3.217974   3.080402
    45  H    2.807743   2.651209   3.094099   3.093600   3.155350
    46  H    4.671705   4.930249   3.782856   3.189464   4.082486
    47  H    4.431549   4.678198   2.548508   2.503960   4.418709
    48  H    3.258963   4.678269   3.807130   4.569075   5.495019
                   41         42         43         44         45
    41  H    0.000000
    42  H    3.081174   0.000000
    43  H    2.505501   1.768609   0.000000
    44  H    2.528921   1.767477   1.774770   0.000000
    45  H    2.502463   4.782273   4.864438   4.366310   0.000000
    46  H    4.456650   5.652492   6.317954   5.923847   2.550195
    47  H    4.690562   5.169229   6.195837   5.397847   3.087024
    48  H    5.098117   6.916315   7.345943   6.592532   2.614507
                   46         47         48
    46  H    0.000000
    47  H    1.765668   0.000000
    48  H    2.346647   2.813495   0.000000
 Stoichiometry    C14H29NO4
 Framework group  C1[X(C14H29NO4)]
 Deg. of freedom   138
 Full point group                 C1      NOp   1
 Largest Abelian subgroup         C1      NOp   1
 Largest concise Abelian subgroup C1      NOp   1
                         Standard orientation:                         
 ---------------------------------------------------------------------
 Center     Atomic      Atomic             Coordinates (Angstroms)
 Number     Number       Type             X           Y           Z
 ---------------------------------------------------------------------
      1          6           0       -9.587367    0.093544   -0.291867
      2          6           0       -8.311005   -0.729419   -0.329423
      3          8           0       -7.211169    0.134297   -0.125080
      4          6           0       -5.970343   -0.530223   -0.141787
      5          6           0       -4.888431    0.512906    0.090630
      6          8           0       -3.645176   -0.153843    0.069971
      7          6           0       -2.566639    0.701623    0.277908
      8          8           0       -1.429486   -0.098274    0.235254
      9          6           0       -0.233198    0.632689    0.417936
     10          6           0        0.935260   -0.341092    0.366110
     11          6           0        2.287027    0.356004    0.508618
     12          7           0        3.376192   -0.618016    0.505093
     13          6           0        4.679546   -0.020627    0.604719
     14          6           0        5.898277   -0.654419   -0.010738
     15          6           0        5.834538   -1.933892   -0.823546
     16          6           0        5.783399   -3.190427    0.054871
     17          6           0        5.379825    0.664203   -0.558173
     18          6           0        6.136372    1.953529   -0.353837
     19          8           0        5.289532    3.094574   -0.266769
     20          1           0      -10.459583   -0.548384   -0.447245
     21          1           0       -9.574353    0.857741   -1.074210
     22          1           0       -9.692381    0.594785    0.674540
     23          1           0       -8.211563   -1.246970   -1.298695
     24          1           0       -8.329796   -1.510133    0.449875
     25          1           0       -5.797242   -1.033398   -1.106810
     26          1           0       -5.916421   -1.300155    0.644728
     27          1           0       -5.057679    1.013223    1.057404
     28          1           0       -4.942044    1.283406   -0.694999
     29          1           0       -2.654312    1.213424    1.260178
     30          1           0       -2.528993    1.485473   -0.508964
     31          1           0       -0.250230    1.161585    1.386381
     32          1           0       -0.131741    1.402222   -0.366929
     33          1           0        0.890103   -0.882556   -0.587731
     34          1           0        0.822003   -1.086646    1.159595
     35          1           0        2.328390    0.897280    1.463236
     36          1           0        2.404738    1.122937   -0.279988
     37          1           0        3.310165   -1.198734   -0.323462
     38          1           0        4.830989    0.452206    1.573591
     39          1           0        6.797972   -0.583131    0.598633
     40          1           0        6.708685   -1.977340   -1.486039
     41          1           0        4.964929   -1.915928   -1.492969
     42          1           0        6.663728   -3.250380    0.704064
     43          1           0        5.755528   -4.099927   -0.553481
     44          1           0        4.897736   -3.178264    0.697335
     45          1           0        4.866878    0.584493   -1.517470
     46          1           0        6.893612    2.086573   -1.143840
     47          1           0        6.674675    1.917791    0.600054
     48          1           0        4.809688    3.164493   -1.097977
 ---------------------------------------------------------------------
 Rotational constants (GHZ):           0.9028447           0.0647042           0.0612988
 Standard basis: 6-31+G(2df,p) (6D, 7F)
 There are   810 symmetry adapted cartesian basis functions of A   symmetry.
 There are   753 symmetry adapted basis functions of A   symmetry.
   753 basis functions,  1115 primitive gaussians,   810 cartesian basis functions
    76 alpha electrons       76 beta electrons
       nuclear repulsion energy      1386.6320498878 Hartrees.
 NAtoms=   48 NActive=   48 NUniq=   48 SFac= 1.00D+00 NAtFMM=   60 NAOKFM=F Big=F
 Integral buffers will be    131072 words long.
 Regular integral format.
 Two-electron integral symmetry is turned on.
 One-electron integrals computed using PRISM.
 PrsmSu:  requested number of processors reduced to:  12 ShMem   1 Linda.
 NBasis=   753 RedAO= T EigKep=  5.31D-06  NBF=   753
 NBsUse=   753 1.00D-06 EigRej= -1.00D+00 NBFU=   753
 ExpMin= 4.38D-02 ExpMax= 5.48D+03 ExpMxC= 8.25D+02 IAcc=3 IRadAn=         5 AccDes= 0.00D+00
 Harris functional with IExCor=  402 and IRadAn=       5 diagonalized for initial guess.
 HarFok:  IExCor=  402 AccDes= 0.00D+00 IRadAn=         5 IDoV= 1 UseB2=F ITyADJ=14
 ICtDFT=  3500011 ScaDFX=  1.000000  1.000000  1.000000  1.000000
 FoFCou: FMM=F IPFlag=           0 FMFlag=      100000 FMFlg1=           0
         NFxFlg=           0 DoJE=T BraDBF=F KetDBF=T FulRan=T
         wScrn=  0.000000 ICntrl=       500 IOpCl=  0 I1Cent=   200000004 NGrid=           0
         NMat0=    1 NMatS0=      1 NMatT0=    0 NMatD0=    1 NMtDS0=    0 NMtDT0=    0
 Petite list used in FoFCou.
 Requested convergence on RMS density matrix=1.00D-08 within 128 cycles.
 Requested convergence on MAX density matrix=1.00D-06.
 Requested convergence on             energy=1.00D-06.
 No special actions if energy rises.
 SCF Done:  E(RB3LYP) =  -906.628299680     A.U. after   13 cycles
            NFock= 13  Conv=0.24D-08     -V/T= 2.0077
 DoSCS=F DFT=T ScalE2(SS,OS)=  1.000000  1.000000
 ExpMin= 4.38D-02 ExpMax= 5.48D+03 ExpMxC= 8.25D+02 IAcc=3 IRadAn=         5 AccDes= 0.00D+00
 HarFok:  IExCor=  205 AccDes= 0.00D+00 IRadAn=         5 IDoV=-2 UseB2=F ITyADJ=14
 ICtDFT= 12500011 ScaDFX=  1.000000  1.000000  1.000000  1.000000
 Range of M.O.s used for correlation:    20   753
 NBasis=   753 NAE=    76 NBE=    76 NFC=    19 NFV=     0
 NROrb=    734 NOA=    57 NOB=    57 NVA=   677 NVB=   677

 **** Warning!!: The largest alpha MO coefficient is  0.84326267D+02

 Orbital symmetries:
       Occupied  (A) (A) (A) (A) (A) (A) (A) (A) (A) (A) (A) (A)
                 (A) (A) (A) (A) (A) (A) (A) (A) (A) (A) (A) (A)
                 (A) (A) (A) (A) (A) (A) (A) (A) (A) (A) (A) (A)
                 (A) (A) (A) (A) (A) (A) (A) (A) (A) (A) (A) (A)
                 (A) (A) (A) (A) (A) (A) (A) (A) (A) (A) (A) (A)
                 (A) (A) (A) (A) (A) (A) (A) (A) (A) (A) (A) (A)
                 (A) (A) (A) (A)
       Virtual   (A) (A) (A) (A) (A) (A) (A) (A) (A) (A) (A) (A)
                 (A) (A) (A) (A) (A) (A) (A) (A) (A) (A) (A) (A)
                 (A) (A) (A) (A) (A) (A) (A) (A) (A) (A) (A) (A)
                 (A) (A) (A) (A) (A) (A) (A) (A) (A) (A) (A) (A)
                 (A) (A) (A) (A) (A) (A) (A) (A) (A) (A) (A) (A)
                 (A) (A) (A) (A) (A) (A) (A) (A) (A) (A) (A) (A)
                 (A) (A) (A) (A) (A) (A) (A) (A) (A) (A) (A) (A)
                 (A) (A) (A) (A) (A) (A) (A) (A) (A) (A) (A) (A)
                 (A) (A) (A) (A) (A) (A) (A) (A) (A) (A) (A) (A)
                 (A) (A) (A) (A) (A) (A) (A) (A) (A) (A) (A) (A)
                 (A) (A) (A) (A) (A) (A) (A) (A) (A) (A) (A) (A)
                 (A) (A) (A) (A) (A) (A) (A) (A) (A) (A) (A) (A)
                 (A) (A) (A) (A) (A) (A) (A) (A) (A) (A) (A) (A)
                 (A) (A) (A) (A) (A) (A) (A) (A) (A) (A) (A) (A)
                 (A) (A) (A) (A) (A) (A) (A) (A) (A) (A) (A) (A)
                 (A) (A) (A) (A) (A) (A) (A) (A) (A) (A) (A) (A)
                 (A) (A) (A) (A) (A) (A) (A) (A) (A) (A) (A) (A)
                 (A) (A) (A) (A) (A) (A) (A) (A) (A) (A) (A) (A)
                 (A) (A) (A) (A) (A) (A) (A) (A) (A) (A) (A) (A)
                 (A) (A) (A) (A) (A) (A) (A) (A) (A) (A) (A) (A)
                 (A) (A) (A) (A) (A) (A) (A) (A) (A) (A) (A) (A)
                 (A) (A) (A) (A) (A) (A) (A) (A) (A) (A) (A) (A)
                 (A) (A) (A) (A) (A) (A) (A) (A) (A) (A) (A) (A)
                 (A) (A) (A) (A) (A) (A) (A) (A) (A) (A) (A) (A)
                 (A) (A) (A) (A) (A) (A) (A) (A) (A) (A) (A) (A)
                 (A) (A) (A) (A) (A) (A) (A) (A) (A) (A) (A) (A)
                 (A) (A) (A) (A) (A) (A) (A) (A) (A) (A) (A) (A)
                 (A) (A) (A) (A) (A) (A) (A) (A) (A) (A) (A) (A)
                 (A) (A) (A) (A) (A) (A) (A) (A) (A) (A) (A) (A)
                 (A) (A) (A) (A) (A) (A) (A) (A) (A) (A) (A) (A)
                 (A) (A) (A) (A) (A) (A) (A) (A) (A) (A) (A) (A)
                 (A) (A) (A) (A) (A) (A) (A) (A) (A) (A) (A) (A)
                 (A) (A) (A) (A) (A) (A) (A) (A) (A) (A) (A) (A)
                 (A) (A) (A) (A) (A) (A) (A) (A) (A) (A) (A) (A)
                 (A) (A) (A) (A) (A) (A) (A) (A) (A) (A) (A) (A)
                 (A) (A) (A) (A) (A) (A) (A) (A) (A) (A) (A) (A)
                 (A) (A) (A) (A) (A) (A) (A) (A) (A) (A) (A) (A)
                 (A) (A) (A) (A) (A) (A) (A) (A) (A) (A) (A) (A)
                 (A) (A) (A) (A) (A) (A) (A) (A) (A) (A) (A) (A)
                 (A) (A) (A) (A) (A) (A) (A) (A) (A) (A) (A) (A)
                 (A) (A) (A) (A) (A) (A) (A) (A) (A) (A) (A) (A)
                 (A) (A) (A) (A) (A) (A) (A) (A) (A) (A) (A) (A)
                 (A) (A) (A) (A) (A) (A) (A) (A) (A) (A) (A) (A)
                 (A) (A) (A) (A) (A) (A) (A) (A) (A) (A) (A) (A)
                 (A) (A) (A) (A) (A) (A) (A) (A) (A) (A) (A) (A)
                 (A) (A) (A) (A) (A) (A) (A) (A) (A) (A) (A) (A)
                 (A) (A) (A) (A) (A) (A) (A) (A) (A) (A) (A) (A)
                 (A) (A) (A) (A) (A) (A) (A) (A) (A) (A) (A) (A)
                 (A) (A) (A) (A) (A) (A) (A) (A) (A) (A) (A) (A)
                 (A) (A) (A) (A) (A) (A) (A) (A) (A) (A) (A) (A)
                 (A) (A) (A) (A) (A) (A) (A) (A) (A) (A) (A) (A)
                 (A) (A) (A) (A) (A) (A) (A) (A) (A) (A) (A) (A)
                 (A) (A) (A) (A) (A) (A) (A) (A) (A) (A) (A) (A)
                 (A) (A) (A) (A) (A) (A) (A) (A) (A) (A) (A) (A)
                 (A) (A) (A) (A) (A) (A) (A) (A) (A) (A) (A) (A)
                 (A) (A) (A) (A) (A) (A) (A) (A) (A) (A) (A) (A)
                 (A) (A) (A) (A) (A)
    40 initial guesses have been made.
 Convergence on wavefunction:    0.000001000000000
 Iteration     1 Dimension    40 NMult     0 NNew     40
 CISAX will form     2 AO SS matrices at one time.
 New state      5 was old state      6
 New state      6 was old state      5
 New state      7 was old state      8
 New state      8 was old state     10
 New state     10 was old state      7
 Iteration     2 Dimension    60 NMult    40 NNew     20
 Iteration     3 Dimension    80 NMult    60 NNew     20
 Iteration     4 Dimension   100 NMult    80 NNew     20
 Iteration     5 Dimension   120 NMult   100 NNew     20
 Iteration     6 Dimension   140 NMult   120 NNew     20
 Iteration     7 Dimension   160 NMult   140 NNew     20
 Iteration     8 Dimension   180 NMult   160 NNew     20
 Iteration     9 Dimension   200 NMult   180 NNew     20
 Iteration    10 Dimension   220 NMult   200 NNew     20
