### Starting Gaussian ###
 Entering Gaussian System, Link 0=g16
 Initial command:
 /cluster/software/gaussian/gaussian-16-A.03/avx2/g16/l1.exe "/local/scratch/cz9n3/Gau-15243.inp" -scrdir="/local/scratch/cz9n3/"
 Entering Link 1 = /cluster/software/gaussian/gaussian-16-A.03/avx2/g16/l1.exe PID=     15244.
  
 Copyright (c) 1988,1990,1992,1993,1995,1998,2003,2009,2016,
            Gaussian, Inc.  All Rights Reserved.
  
 This is part of the Gaussian(R) 16 program.  It is based on
 the Gaussian(R) 09 system (copyright 2009, Gaussian, Inc.),
 the Gaussian(R) 03 system (copyright 2003, Gaussian, Inc.),
 the Gaussian(R) 98 system (copyright 1998, Gaussian, Inc.),
 the Gaussian(R) 94 system (copyright 1995, Gaussian, Inc.),
 the Gaussian 92(TM) system (copyright 1992, Gaussian, Inc.),
 the Gaussian 90(TM) system (copyright 1990, Gaussian, Inc.),
 the Gaussian 88(TM) system (copyright 1988, Gaussian, Inc.),
 the Gaussian 86(TM) system (copyright 1986, Carnegie Mellon
 University), and the Gaussian 82(TM) system (copyright 1983,
 Carnegie Mellon University). Gaussian is a federally registered
 trademark of Gaussian, Inc.
  
 This software contains proprietary and confidential information,
 including trade secrets, belonging to Gaussian, Inc.
  
 This software is provided under written license and may be
 used, copied, transmitted, or stored only in accord with that
 written license.
  
 The following legend is applicable only to US Government
 contracts under FAR:
  
                    RESTRICTED RIGHTS LEGEND
  
 Use, reproduction and disclosure by the US Government is
 subject to restrictions as set forth in subparagraphs (a)
 and (c) of the Commercial Computer Software - Restricted
 Rights clause in FAR 52.227-19.
  
 Gaussian, Inc.
 340 Quinnipiac St., Bldg. 40, Wallingford CT 06492
  
  
 ---------------------------------------------------------------
 Warning -- This program may not be used in any manner that
 competes with the business of Gaussian, Inc. or will provide
 assistance to any competitor of Gaussian, Inc.  The licensee
 of this program is prohibited from giving any competitor of
 Gaussian, Inc. access to this program.  By using this program,
 the user acknowledges that Gaussian, Inc. is engaged in the
 business of creating and licensing software in the field of
 computational chemistry and represents and warrants to the
 licensee that it is not a competitor of Gaussian, Inc. and that
 it will not use this program in any manner prohibited above.
 ---------------------------------------------------------------
  

 Cite this work as:
 Gaussian 16, Revision A.03,
 M. J. Frisch, G. W. Trucks, H. B. Schlegel, G. E. Scuseria, 
 M. A. Robb, J. R. Cheeseman, G. Scalmani, V. Barone, 
 G. A. Petersson, H. Nakatsuji, X. Li, M. Caricato, A. V. Marenich, 
 J. Bloino, B. G. Janesko, R. Gomperts, B. Mennucci, H. P. Hratchian, 
 J. V. Ortiz, A. F. Izmaylov, J. L. Sonnenberg, D. Williams-Young, 
 F. Ding, F. Lipparini, F. Egidi, J. Goings, B. Peng, A. Petrone, 
 T. Henderson, D. Ranasinghe, V. G. Zakrzewski, J. Gao, N. Rega, 
 G. Zheng, W. Liang, M. Hada, M. Ehara, K. Toyota, R. Fukuda, 
 J. Hasegawa, M. Ishida, T. Nakajima, Y. Honda, O. Kitao, H. Nakai, 
 T. Vreven, K. Throssell, J. A. Montgomery, Jr., J. E. Peralta, 
 F. Ogliaro, M. J. Bearpark, J. J. Heyd, E. N. Brothers, K. N. Kudin, 
 V. N. Staroverov, T. A. Keith, R. Kobayashi, J. Normand, 
 K. Raghavachari, A. P. Rendell, J. C. Burant, S. S. Iyengar, 
 J. Tomasi, M. Cossi, J. M. Millam, M. Klene, C. Adamo, R. Cammi, 
 J. W. Ochterski, R. L. Martin, K. Morokuma, O. Farkas, 
 J. B. Foresman, and D. J. Fox, Gaussian, Inc., Wallingford CT, 2016.
 
 ******************************************
 Gaussian 16:  ES64L-G16RevA.03 25-Dec-2016
                24-May-2023 
 ******************************************
 %chk=CCOCqCNrCCCCCqCrCqCrN.chk
 %NProcShared=20
 Will use up to   20 processors via shared memory.
 -----------------------------
 # opt freq b3lyp/6-31g(2df,p)
 -----------------------------
 1/18=20,19=15,26=3,38=1/1,3;
 2/9=110,12=2,17=6,18=5,40=1/2;
 3/5=1,6=6,7=104,11=2,25=1,30=1,71=1,74=-5/1,2,3;
 4//1;
 5/5=2,38=5/2;
 6/7=2,8=2,9=2,10=2,28=1/1;
 7//1,2,3,16;
 1/18=20,19=15,26=3/3(2);
 2/9=110/2;
 99//99;
 2/9=110/2;
 3/5=1,6=6,7=104,11=2,25=1,30=1,71=1,74=-5/1,2,3;
 4/5=5,16=3,69=1/1;
 5/5=2,38=5/2;
 7//1,2,3,16;
 1/18=20,19=15,26=3/3(-5);
 2/9=110/2;
 6/7=2,8=2,9=2,10=2,19=2,28=1/1;
 99/9=1/99;
 -------------------
 Title Card Required
 -------------------
 Symbolic Z-matrix:
 Charge =  0 Multiplicity = 1
 C                     0.9034   -0.0291   -0.05488 
 C                     2.40879  -0.03823   0.02875 
 O                     2.99983  -0.71891  -1.07586 
 C                     4.44226  -0.7088   -1.01804 
 C                     5.00586  -1.45693   0.22808 
 N                     4.72738  -0.80801   1.5091 
 C                     4.94076  -1.37842  -2.31076 
 C                     6.46357  -1.39363  -2.39172 
 C                     6.9411   -2.06076  -3.66422 
 C                     8.4662   -2.07402  -3.68769 
 C                     9.02969  -2.75387  -4.94568 
 C                     8.53144  -2.02631  -6.20598 
 C                     10.57868  -2.79495  -4.90244 
 C                     11.12293  -3.54533  -3.68326 
 N                     11.0907  -3.44068  -6.11392 
 H                     0.50048   0.45608   0.84078 
 H                     0.52832  -1.05681  -0.08767 
 H                     0.54998   0.49415  -0.94399 
 H                     2.60727  -0.58495   0.94605 
 H                     2.80425   0.98153   0.096 
 H                     4.78501   0.33437  -1.02548 
 H                     6.09317  -1.52708   0.18021 
 H                     4.59929  -2.47342   0.24172 
 H                     5.08898   0.13733   1.52068 
 H                     5.14137  -1.33592   2.27698 
 H                     4.53055  -0.84936  -3.18232 
 H                     4.54819  -2.40145  -2.38092 
 H                     6.89822  -1.9506   -1.55797 
 H                     6.84758  -0.36758  -2.33757 
 H                     6.52985  -1.51309  -4.51473 
 H                     6.56784  -3.09113  -3.71038 
 H                     8.8029   -2.60331  -2.78865 
 H                     8.85245  -1.04929  -3.61016 
 H                     8.64807  -3.78417  -4.97372 
 H                     8.8466   -0.97732  -6.19731 
 H                     7.441    -2.0519   -6.28512 
 H                     8.90564  -2.49401  -7.11987 
 H                     10.96076  -1.76697  -4.87735 
 H                     10.74491  -4.57313  -3.64679 
 H                     10.84996  -3.05094  -2.74626 
 H                     12.21732  -3.58332  -3.70253 
 H                     10.75771  -4.40325  -6.15612 
 H                     12.10714  -3.48497  -6.08386 
 

 GradGradGradGradGradGradGradGradGradGradGradGradGradGradGradGradGradGrad
 Berny optimization.
 Initialization pass.
                           ----------------------------
                           !    Initial Parameters    !
                           ! (Angstroms and Degrees)  !
 --------------------------                            --------------------------
 ! Name  Definition              Value          Derivative Info.                !
 --------------------------------------------------------------------------------
 ! R1    R(1,2)                  1.5077         estimate D2E/DX2                !
 ! R2    R(1,16)                 1.0954         estimate D2E/DX2                !
 ! R3    R(1,17)                 1.0945         estimate D2E/DX2                !
 ! R4    R(1,18)                 1.0905         estimate D2E/DX2                !
 ! R5    R(2,3)                  1.4258         estimate D2E/DX2                !
 ! R6    R(2,19)                 1.0862         estimate D2E/DX2                !
 ! R7    R(2,20)                 1.0958         estimate D2E/DX2                !
 ! R8    R(3,4)                  1.4436         estimate D2E/DX2                !
 ! R9    R(4,5)                  1.5589         estimate D2E/DX2                !
 ! R10   R(4,7)                  1.5388         estimate D2E/DX2                !
 ! R11   R(4,21)                 1.0981         estimate D2E/DX2                !
 ! R12   R(5,6)                  1.4628         estimate D2E/DX2                !
 ! R13   R(5,22)                 1.0906         estimate D2E/DX2                !
 ! R14   R(5,23)                 1.0949         estimate D2E/DX2                !
 ! R15   R(6,24)                 1.0122         estimate D2E/DX2                !
 ! R16   R(6,25)                 1.0197         estimate D2E/DX2                !
 ! R17   R(7,8)                  1.525          estimate D2E/DX2                !
 ! R18   R(7,26)                 1.099          estimate D2E/DX2                !
 ! R19   R(7,27)                 1.098          estimate D2E/DX2                !
 ! R20   R(8,9)                  1.5141         estimate D2E/DX2                !
 ! R21   R(8,28)                 1.0928         estimate D2E/DX2                !
 ! R22   R(8,29)                 1.0969         estimate D2E/DX2                !
 ! R23   R(9,10)                 1.5253         estimate D2E/DX2                !
 ! R24   R(9,30)                 1.092          estimate D2E/DX2                !
 ! R25   R(9,31)                 1.0969         estimate D2E/DX2                !
 ! R26   R(10,11)                1.537          estimate D2E/DX2                !
 ! R27   R(10,32)                1.0963         estimate D2E/DX2                !
 ! R28   R(10,33)                1.0978         estimate D2E/DX2                !
 ! R29   R(11,12)                1.5382         estimate D2E/DX2                !
 ! R30   R(11,13)                1.5501         estimate D2E/DX2                !
 ! R31   R(11,34)                1.0991         estimate D2E/DX2                !
 ! R32   R(12,35)                1.0953         estimate D2E/DX2                !
 ! R33   R(12,36)                1.0936         estimate D2E/DX2                !
 ! R34   R(12,37)                1.0927         estimate D2E/DX2                !
 ! R35   R(13,14)                1.5316         estimate D2E/DX2                !
 ! R36   R(13,15)                1.4652         estimate D2E/DX2                !
 ! R37   R(13,38)                1.097          estimate D2E/DX2                !
 ! R38   R(14,39)                1.0957         estimate D2E/DX2                !
 ! R39   R(14,40)                1.094          estimate D2E/DX2                !
 ! R40   R(14,41)                1.0952         estimate D2E/DX2                !
 ! R41   R(15,42)                1.0194         estimate D2E/DX2                !
 ! R42   R(15,43)                1.0178         estimate D2E/DX2                !
 ! A1    A(2,1,16)             108.94           estimate D2E/DX2                !
 ! A2    A(2,1,17)             109.7633         estimate D2E/DX2                !
 ! A3    A(2,1,18)             111.8212         estimate D2E/DX2                !
 ! A4    A(16,1,17)            108.3204         estimate D2E/DX2                !
 ! A5    A(16,1,18)            109.5669         estimate D2E/DX2                !
 ! A6    A(17,1,18)            108.3638         estimate D2E/DX2                !
 ! A7    A(1,2,3)              111.951          estimate D2E/DX2                !
 ! A8    A(1,2,19)             103.4351         estimate D2E/DX2                !
 ! A9    A(1,2,20)             110.9828         estimate D2E/DX2                !
 ! A10   A(3,2,19)             109.7699         estimate D2E/DX2                !
 ! A11   A(3,2,20)             110.0123         estimate D2E/DX2                !
 ! A12   A(19,2,20)            110.5265         estimate D2E/DX2                !
 ! A13   A(2,3,4)              112.3228         estimate D2E/DX2                !
 ! A14   A(3,4,5)              112.9479         estimate D2E/DX2                !
 ! A15   A(3,4,7)              106.6775         estimate D2E/DX2                !
 ! A16   A(3,4,21)             108.558          estimate D2E/DX2                !
 ! A17   A(5,4,7)              110.2162         estimate D2E/DX2                !
 ! A18   A(5,4,21)             110.3947         estimate D2E/DX2                !
 ! A19   A(7,4,21)             107.8536         estimate D2E/DX2                !
 ! A20   A(4,5,6)              114.7282         estimate D2E/DX2                !
 ! A21   A(4,5,22)             110.8684         estimate D2E/DX2                !
 ! A22   A(4,5,23)             108.7391         estimate D2E/DX2                !
 ! A23   A(6,5,22)             104.8788         estimate D2E/DX2                !
 ! A24   A(6,5,23)             109.2848         estimate D2E/DX2                !
 ! A25   A(22,5,23)            108.1222         estimate D2E/DX2                !
 ! A26   A(5,6,24)             110.875          estimate D2E/DX2                !
 ! A27   A(5,6,25)             110.6423         estimate D2E/DX2                !
 ! A28   A(24,6,25)            109.261          estimate D2E/DX2                !
 ! A29   A(4,7,8)              111.8643         estimate D2E/DX2                !
 ! A30   A(4,7,26)             109.6222         estimate D2E/DX2                !
 ! A31   A(4,7,27)             110.0775         estimate D2E/DX2                !
 ! A32   A(8,7,26)             109.5977         estimate D2E/DX2                !
 ! A33   A(8,7,27)             110.1404         estimate D2E/DX2                !
 ! A34   A(26,7,27)            105.3316         estimate D2E/DX2                !
 ! A35   A(7,8,9)              111.343          estimate D2E/DX2                !
 ! A36   A(7,8,28)             111.2065         estimate D2E/DX2                !
 ! A37   A(7,8,29)             109.7324         estimate D2E/DX2                !
 ! A38   A(9,8,28)             106.9297         estimate D2E/DX2                !
 ! A39   A(9,8,29)             110.0744         estimate D2E/DX2                !
 ! A40   A(28,8,29)            107.4479         estimate D2E/DX2                !
 ! A41   A(8,9,10)             109.397          estimate D2E/DX2                !
 ! A42   A(8,9,30)             108.3508         estimate D2E/DX2                !
 ! A43   A(8,9,31)             109.9959         estimate D2E/DX2                !
 ! A44   A(10,9,30)            111.6493         estimate D2E/DX2                !
 ! A45   A(10,9,31)            109.3556         estimate D2E/DX2                !
 ! A46   A(30,9,31)            108.071          estimate D2E/DX2                !
 ! A47   A(9,10,11)            112.5201         estimate D2E/DX2                !
 ! A48   A(9,10,32)            107.3775         estimate D2E/DX2                !
 ! A49   A(9,10,33)            110.0335         estimate D2E/DX2                !
 ! A50   A(11,10,32)           110.1863         estimate D2E/DX2                !
 ! A51   A(11,10,33)           109.9797         estimate D2E/DX2                !
 ! A52   A(32,10,33)           106.54           estimate D2E/DX2                !
 ! A53   A(10,11,12)           110.0383         estimate D2E/DX2                !
 ! A54   A(10,11,13)           110.8085         estimate D2E/DX2                !
 ! A55   A(10,11,34)           107.9532         estimate D2E/DX2                !
 ! A56   A(12,11,13)           111.0434         estimate D2E/DX2                !
 ! A57   A(12,11,34)           108.0613         estimate D2E/DX2                !
 ! A58   A(13,11,34)           108.8345         estimate D2E/DX2                !
 ! A59   A(11,12,35)           110.6893         estimate D2E/DX2                !
 ! A60   A(11,12,36)           111.7904         estimate D2E/DX2                !
 ! A61   A(11,12,37)           111.8323         estimate D2E/DX2                !
 ! A62   A(35,12,36)           108.0517         estimate D2E/DX2                !
 ! A63   A(35,12,37)           108.542          estimate D2E/DX2                !
 ! A64   A(36,12,37)           105.7194         estimate D2E/DX2                !
 ! A65   A(11,13,14)           112.9721         estimate D2E/DX2                !
 ! A66   A(11,13,15)           109.7435         estimate D2E/DX2                !
 ! A67   A(11,13,38)           108.8958         estimate D2E/DX2                !
 ! A68   A(14,13,15)           108.5473         estimate D2E/DX2                !
 ! A69   A(14,13,38)           108.4907         estimate D2E/DX2                !
 ! A70   A(15,13,38)           108.0705         estimate D2E/DX2                !
 ! A71   A(13,14,39)           111.3136         estimate D2E/DX2                !
 ! A72   A(13,14,40)           111.8211         estimate D2E/DX2                !
 ! A73   A(13,14,41)           110.9821         estimate D2E/DX2                !
 ! A74   A(39,14,40)           108.017          estimate D2E/DX2                !
 ! A75   A(39,14,41)           108.2271         estimate D2E/DX2                !
 ! A76   A(40,14,41)           106.264          estimate D2E/DX2                !
 ! A77   A(13,15,42)           109.6465         estimate D2E/DX2                !
 ! A78   A(13,15,43)           110.1042         estimate D2E/DX2                !
 ! A79   A(42,15,43)           106.6385         estimate D2E/DX2                !
 ! D1    D(16,1,2,3)           176.9709         estimate D2E/DX2                !
 ! D2    D(16,1,2,19)           58.8574         estimate D2E/DX2                !
 ! D3    D(16,1,2,20)          -59.6796         estimate D2E/DX2                !
 ! D4    D(17,1,2,3)            58.5192         estimate D2E/DX2                !
 ! D5    D(17,1,2,19)          -59.5943         estimate D2E/DX2                !
 ! D6    D(17,1,2,20)         -178.1313         estimate D2E/DX2                !
 ! D7    D(18,1,2,3)           -61.777          estimate D2E/DX2                !
 ! D8    D(18,1,2,19)         -179.8904         estimate D2E/DX2                !
 ! D9    D(18,1,2,20)           61.5726         estimate D2E/DX2                !
 ! D10   D(1,2,3,4)            178.8157         estimate D2E/DX2                !
 ! D11   D(19,2,3,4)           -66.9132         estimate D2E/DX2                !
 ! D12   D(20,2,3,4)            54.9205         estimate D2E/DX2                !
 ! D13   D(2,3,4,5)             62.8735         estimate D2E/DX2                !
 ! D14   D(2,3,4,7)           -175.8891         estimate D2E/DX2                !
 ! D15   D(2,3,4,21)           -59.9012         estimate D2E/DX2                !
 ! D16   D(3,4,5,6)            -67.8662         estimate D2E/DX2                !
 ! D17   D(3,4,5,22)           173.5712         estimate D2E/DX2                !
 ! D18   D(3,4,5,23)            54.8307         estimate D2E/DX2                !
 ! D19   D(7,4,5,6)            172.9229         estimate D2E/DX2                !
 ! D20   D(7,4,5,22)            54.3603         estimate D2E/DX2                !
 ! D21   D(7,4,5,23)           -64.3802         estimate D2E/DX2                !
 ! D22   D(21,4,5,6)            53.8794         estimate D2E/DX2                !
 ! D23   D(21,4,5,22)          -64.6832         estimate D2E/DX2                !
 ! D24   D(21,4,5,23)          176.5763         estimate D2E/DX2                !
 ! D25   D(3,4,7,8)            178.3093         estimate D2E/DX2                !
 ! D26   D(3,4,7,26)            56.5228         estimate D2E/DX2                !
 ! D27   D(3,4,7,27)           -58.8925         estimate D2E/DX2                !
 ! D28   D(5,4,7,8)            -58.7304         estimate D2E/DX2                !
 ! D29   D(5,4,7,26)           179.4831         estimate D2E/DX2                !
 ! D30   D(5,4,7,27)            64.0677         estimate D2E/DX2                !
 ! D31   D(21,4,7,8)            61.8511         estimate D2E/DX2                !
 ! D32   D(21,4,7,26)          -59.9354         estimate D2E/DX2                !
 ! D33   D(21,4,7,27)         -175.3508         estimate D2E/DX2                !
 ! D34   D(4,5,6,24)           -57.262          estimate D2E/DX2                !
 ! D35   D(4,5,6,25)          -178.6569         estimate D2E/DX2                !
 ! D36   D(22,5,6,24)           64.6185         estimate D2E/DX2                !
 ! D37   D(22,5,6,25)          -56.7763         estimate D2E/DX2                !
 ! D38   D(23,5,6,24)         -179.6643         estimate D2E/DX2                !
 ! D39   D(23,5,6,25)           58.9408         estimate D2E/DX2                !
 ! D40   D(4,7,8,9)            179.7213         estimate D2E/DX2                !
 ! D41   D(4,7,8,28)            60.5803         estimate D2E/DX2                !
 ! D42   D(4,7,8,29)           -58.1609         estimate D2E/DX2                !
 ! D43   D(26,7,8,9)           -58.4782         estimate D2E/DX2                !
 ! D44   D(26,7,8,28)         -177.6192         estimate D2E/DX2                !
 ! D45   D(26,7,8,29)           63.6396         estimate D2E/DX2                !
 ! D46   D(27,7,8,9)            56.959          estimate D2E/DX2                !
 ! D47   D(27,7,8,28)          -62.1821         estimate D2E/DX2                !
 ! D48   D(27,7,8,29)          179.0767         estimate D2E/DX2                !
 ! D49   D(7,8,9,10)          -178.9933         estimate D2E/DX2                !
 ! D50   D(7,8,9,30)            59.0775         estimate D2E/DX2                !
 ! D51   D(7,8,9,31)           -58.8583         estimate D2E/DX2                !
 ! D52   D(28,8,9,10)          -57.332          estimate D2E/DX2                !
 ! D53   D(28,8,9,30)         -179.2611         estimate D2E/DX2                !
 ! D54   D(28,8,9,31)           62.803          estimate D2E/DX2                !
 ! D55   D(29,8,9,10)           59.087          estimate D2E/DX2                !
 ! D56   D(29,8,9,30)          -62.8422         estimate D2E/DX2                !
 ! D57   D(29,8,9,31)          179.222          estimate D2E/DX2                !
 ! D58   D(8,9,10,11)          179.2754         estimate D2E/DX2                !
 ! D59   D(8,9,10,32)           57.8639         estimate D2E/DX2                !
 ! D60   D(8,9,10,33)          -57.7067         estimate D2E/DX2                !
 ! D61   D(30,9,10,11)         -60.7995         estimate D2E/DX2                !
 ! D62   D(30,9,10,32)         177.789          estimate D2E/DX2                !
 ! D63   D(30,9,10,33)          62.2184         estimate D2E/DX2                !
 ! D64   D(31,9,10,11)          58.7491         estimate D2E/DX2                !
 ! D65   D(31,9,10,32)         -62.6624         estimate D2E/DX2                !
 ! D66   D(31,9,10,33)        -178.233          estimate D2E/DX2                !
 ! D67   D(9,10,11,12)          59.0268         estimate D2E/DX2                !
 ! D68   D(9,10,11,13)        -177.7782         estimate D2E/DX2                !
 ! D69   D(9,10,11,34)         -58.6886         estimate D2E/DX2                !
 ! D70   D(32,10,11,12)        178.8231         estimate D2E/DX2                !
 ! D71   D(32,10,11,13)        -57.9818         estimate D2E/DX2                !
 ! D72   D(32,10,11,34)         61.1078         estimate D2E/DX2                !
 ! D73   D(33,10,11,12)        -64.0212         estimate D2E/DX2                !
 ! D74   D(33,10,11,13)         59.1738         estimate D2E/DX2                !
 ! D75   D(33,10,11,34)        178.2634         estimate D2E/DX2                !
 ! D76   D(10,11,12,35)         59.5305         estimate D2E/DX2                !
 ! D77   D(10,11,12,36)        -60.9805         estimate D2E/DX2                !
 ! D78   D(10,11,12,37)       -179.306          estimate D2E/DX2                !
 ! D79   D(13,11,12,35)        -63.527          estimate D2E/DX2                !
 ! D80   D(13,11,12,36)        175.9621         estimate D2E/DX2                !
 ! D81   D(13,11,12,37)         57.6366         estimate D2E/DX2                !
 ! D82   D(34,11,12,35)        177.1789         estimate D2E/DX2                !
 ! D83   D(34,11,12,36)         56.6679         estimate D2E/DX2                !
 ! D84   D(34,11,12,37)        -61.6575         estimate D2E/DX2                !
 ! D85   D(10,11,13,14)         59.0054         estimate D2E/DX2                !
 ! D86   D(10,11,13,15)       -179.7156         estimate D2E/DX2                !
 ! D87   D(10,11,13,38)        -61.6044         estimate D2E/DX2                !
 ! D88   D(12,11,13,14)       -178.3816         estimate D2E/DX2                !
 ! D89   D(12,11,13,15)        -57.1027         estimate D2E/DX2                !
 ! D90   D(12,11,13,38)         61.0086         estimate D2E/DX2                !
 ! D91   D(34,11,13,14)        -59.5516         estimate D2E/DX2                !
 ! D92   D(34,11,13,15)         61.7274         estimate D2E/DX2                !
 ! D93   D(34,11,13,38)        179.8387         estimate D2E/DX2                !
 ! D94   D(11,13,14,39)         57.5034         estimate D2E/DX2                !
 ! D95   D(11,13,14,40)        -63.4173         estimate D2E/DX2                !
 ! D96   D(11,13,14,41)        178.1153         estimate D2E/DX2                !
 ! D97   D(15,13,14,39)        -64.4502         estimate D2E/DX2                !
 ! D98   D(15,13,14,40)        174.6291         estimate D2E/DX2                !
 ! D99   D(15,13,14,41)         56.1617         estimate D2E/DX2                !
 ! D100  D(38,13,14,39)        178.3438         estimate D2E/DX2                !
 ! D101  D(38,13,14,40)         57.4231         estimate D2E/DX2                !
 ! D102  D(38,13,14,41)        -61.0443         estimate D2E/DX2                !
 ! D103  D(11,13,15,42)        -62.0025         estimate D2E/DX2                !
 ! D104  D(11,13,15,43)       -179.0308         estimate D2E/DX2                !
 ! D105  D(14,13,15,42)         61.9008         estimate D2E/DX2                !
 ! D106  D(14,13,15,43)        -55.1275         estimate D2E/DX2                !
 ! D107  D(38,13,15,42)        179.3753         estimate D2E/DX2                !
 ! D108  D(38,13,15,43)         62.347          estimate D2E/DX2                !
 --------------------------------------------------------------------------------
 Trust Radius=3.00D-01 FncErr=1.00D-07 GrdErr=1.00D-06 EigMax=2.50D+02 EigMin=1.00D-04
 Number of steps in this run=    239 maximum allowed number of steps=    258.
 GradGradGradGradGradGradGradGradGradGradGradGradGradGradGradGradGradGrad

                          Input orientation:                          
 ---------------------------------------------------------------------
 Center     Atomic      Atomic             Coordinates (Angstroms)
 Number     Number       Type             X           Y           Z
 ---------------------------------------------------------------------
      1          6           0        0.903400   -0.029100   -0.054880
      2          6           0        2.408790   -0.038230    0.028750
      3          8           0        2.999830   -0.718910   -1.075860
      4          6           0        4.442260   -0.708800   -1.018040
      5          6           0        5.005860   -1.456930    0.228080
      6          7           0        4.727380   -0.808010    1.509100
      7          6           0        4.940760   -1.378420   -2.310760
      8          6           0        6.463570   -1.393630   -2.391720
      9          6           0        6.941100   -2.060760   -3.664220
     10          6           0        8.466200   -2.074020   -3.687690
     11          6           0        9.029690   -2.753870   -4.945680
     12          6           0        8.531440   -2.026310   -6.205980
     13          6           0       10.578680   -2.794950   -4.902440
     14          6           0       11.122930   -3.545330   -3.683260
     15          7           0       11.090700   -3.440680   -6.113920
     16          1           0        0.500480    0.456080    0.840780
     17          1           0        0.528320   -1.056810   -0.087670
     18          1           0        0.549980    0.494150   -0.943990
     19          1           0        2.607270   -0.584950    0.946050
     20          1           0        2.804250    0.981530    0.096000
     21          1           0        4.785010    0.334370   -1.025480
     22          1           0        6.093170   -1.527080    0.180210
     23          1           0        4.599290   -2.473420    0.241720
     24          1           0        5.088980    0.137330    1.520680
     25          1           0        5.141370   -1.335920    2.276980
     26          1           0        4.530550   -0.849360   -3.182320
     27          1           0        4.548190   -2.401450   -2.380920
     28          1           0        6.898220   -1.950600   -1.557970
     29          1           0        6.847580   -0.367580   -2.337570
     30          1           0        6.529850   -1.513090   -4.514730
     31          1           0        6.567840   -3.091130   -3.710380
     32          1           0        8.802900   -2.603310   -2.788650
     33          1           0        8.852450   -1.049290   -3.610160
     34          1           0        8.648070   -3.784170   -4.973720
     35          1           0        8.846600   -0.977320   -6.197310
     36          1           0        7.441000   -2.051900   -6.285120
     37          1           0        8.905640   -2.494010   -7.119870
     38          1           0       10.960760   -1.766970   -4.877350
     39          1           0       10.744910   -4.573130   -3.646790
     40          1           0       10.849960   -3.050940   -2.746260
     41          1           0       12.217320   -3.583320   -3.702530
     42          1           0       10.757710   -4.403250   -6.156120
     43          1           0       12.107140   -3.484970   -6.083860
 ---------------------------------------------------------------------
                    Distance matrix (angstroms):
                    1          2          3          4          5
     1  C    0.000000
     2  C    1.507739   0.000000
     3  O    2.431719   1.425769   0.000000
     4  C    3.730040   2.383366   1.443624   0.000000
     5  C    4.353038   2.966010   2.503815   1.558897   0.000000
     6  N    4.204231   2.856546   3.110368   2.545108   1.462758
     7  C    4.817669   3.698687   2.393145   1.538837   2.540888
     8  C    6.183709   4.912945   3.766196   2.538047   2.998713
     9  C    7.321803   6.186315   4.902426   3.882559   4.388595
    10  C    8.635679   7.392468   6.207993   5.018262   5.261940
    11  C    9.868175   8.715272   7.448207   6.375985   6.681396
    12  C   10.000594   8.961650   7.656771   6.735870   7.358739
    13  C   11.169593   9.932937   8.740230   7.556205   7.692129
    14  C   11.400342  10.100248   8.987321   7.731795   7.555034
    15  N   12.334177  11.166227   9.912228   8.810954   9.010078
    16  H    1.095423   2.131990   3.361675   4.511074   4.932895
    17  H    1.094508   2.141781   2.683106   4.038022   4.506457
    18  H    1.090510   2.164446   2.736909   4.074606   5.003532
    19  H    2.052804   1.086157   2.064018   2.690758   2.651238
    20  H    2.158094   1.095820   2.074368   2.604108   3.287951
    21  H    4.017595   2.626148   2.073356   1.098060   2.197486
    22  H    5.406748   3.976716   3.435055   2.197928   1.090622
    23  H    4.440977   3.282346   2.715252   2.173830   1.094869
    24  H    4.475396   3.072474   3.440889   2.753050   2.054115
    25  H    5.010563   3.769023   4.025970   3.426250   2.056939
    26  H    4.859004   3.933290   2.607162   2.170636   3.496554
    27  H    4.931835   3.996042   2.632782   2.175713   2.812199
    28  H    6.472195   5.131259   4.116666   2.804520   2.648530
    29  H    6.376403   5.040912   4.064545   2.764626   3.340835
    30  H    7.331400   6.308848   4.991752   4.151115   4.981962
    31  H    7.404363   6.371734   5.029793   4.176396   4.541130
    32  H    8.746551   7.443253   6.337210   5.073402   4.983208
    33  H    8.767451   7.468913   6.386313   5.126870   5.449267
    34  H    9.913398   8.830934   7.516099   6.541723   6.763170
    35  H   10.085782   9.005060   7.776937   6.804054   7.501130
    36  H    9.254611   8.321235   6.974041   6.207938   6.978945
    37  H   10.955625   9.967080   8.634792   7.767951   8.383089
    38  H   11.288352  10.009723   8.884040   7.648846   7.849992
    39  H   11.419516  10.176729   9.025018   7.846450   7.593551
    40  H   10.738207   9.382455   8.357819   7.037825   6.748412
    41  H   12.407361  11.076885  10.003318   8.713261   8.483890
    42  H   12.388129  11.269893   9.978382   8.940567   9.084194
    43  H   13.183908  11.970882  10.755196   9.597918   9.715025
                    6          7          8          9         10
     6  N    0.000000
     7  C    3.868104   0.000000
     8  C    4.309722   1.525036   0.000000
     9  C    5.764823   2.509741   1.514052   0.000000
    10  C    6.525962   3.848184   2.480523   1.525338   0.000000
    11  C    7.997526   5.055098   3.867549   2.546517   1.536963
    12  C    8.687784   5.337179   4.384627   2.998485   2.519587
    13  C    8.904689   6.364708   5.020114   3.912060   2.541246
    14  C    8.680817   6.693167   5.292214   4.437568   3.036937
    15  N   10.272937   7.519222   6.281363   5.012424   3.826533
    16  H    4.462203   5.745753   7.030571   8.252945   9.505848
    17  H    4.499298   4.951282   6.375679   7.411030   8.775238
    18  H    5.016367   4.965232   6.374181   7.400921   8.762986
    19  H    2.204914   4.084309   5.163886   6.497283   7.616819
    20  H    2.982907   3.990806   5.022027   6.364614   7.463938
    21  H    2.780728   2.147057   2.769505   4.165132   5.141874
    22  H    2.036760   2.748651   2.601890   3.972838   4.570674
    23  H    2.096724   2.798353   3.402425   4.572825   5.527457
    24  H    1.012204   4.123033   4.420431   5.928333   6.589598
    25  H    1.019665   4.592321   4.852659   6.249982   6.868521
    26  H    4.695729   1.098997   2.158204   2.740523   4.152654
    27  H    4.207543   1.098009   2.164370   2.736594   4.143146
    28  H    3.927464   2.173875   1.092829   2.109565   2.647546
    29  H    4.414306   2.158351   1.096893   2.153045   2.711954
    30  H    6.327129   2.720446   2.127401   1.091987   2.179011
    31  H    5.986894   2.745852   2.152032   1.096866   2.153787
    32  H    6.188992   4.079811   2.663333   2.127741   1.096261
    33  H    6.578848   4.134983   2.703685   2.163158   1.097849
    34  H    8.139797   5.159761   4.141672   2.756570   2.147455
    35  H    8.739874   5.524648   4.509397   3.349823   2.765076
    36  H    8.346308   4.743449   4.067831   2.668163   2.792520
    37  H    9.734453   6.331852   5.434146   3.998580   3.485593
    38  H    8.975599   6.555818   5.151937   4.208998   2.780719
    39  H    8.773255   6.758647   5.478530   4.558649   3.382269
    40  H    7.786194   6.156755   4.702424   4.135492   2.742804
    41  H    9.537433   7.729614   6.294331   5.491644   4.043403
    42  H   10.394529   7.600875   6.455088   5.124777   4.095055
    43  H   10.921539   8.368443   7.060842   5.879711   4.581359
                   11         12         13         14         15
    11  C    0.000000
    12  C    1.538165   0.000000
    13  C    1.550138   2.545823   0.000000
    14  C    2.569390   3.922672   1.531561   0.000000
    15  N    2.466628   2.925531   1.465202   2.433125   0.000000
    16  H   10.795106  10.968838  12.046738  12.219438  13.255389
    17  H    9.937483  10.120453  11.278869  11.461534  12.392030
    18  H    9.923137   9.886605  11.272193  11.645096  12.382158
    19  H    8.981324   9.398130  10.130761  10.134635  11.400305
    20  H    8.838996   9.031210   9.984386  10.196848  11.259854
    21  H    6.551527   6.815140   7.641340   7.892091   8.938957
    22  H    6.033483   6.854036   6.896421   6.655691   8.261552
    23  H    6.827607   7.565352   7.894230   7.688455   9.136091
    24  H    8.105680   8.731159   8.943799   8.777900  10.349392
    25  H    8.324448   9.161322   9.123441   8.728403  10.499131
    26  H    5.194118   5.151199   6.582098   7.139935   7.638376
    27  H    5.175523   5.535169   6.548260   6.799394   7.603928
    28  H    4.082277   4.927183   5.044224   4.990811   6.368195
    29  H    4.154302   4.533361   5.137294   5.494324   6.458237
    30  H    2.823907   2.670222   4.264564   5.090945   5.203303
    31  H    2.774962   3.349266   4.194707   4.577759   5.133756
    32  H    2.174139   3.476315   2.767350   2.658998   4.122213
    33  H    2.172699   2.792113   2.774380   3.375002   4.122781
    34  H    1.099062   2.149916   2.170459   2.801297   2.717440
    35  H    2.180878   1.095345   2.824990   4.254034   3.333329
    36  H    2.193353   1.093608   3.508413   4.749381   3.908750
    37  H    2.193175   1.092687   2.794034   4.222788   2.585074
    38  H    2.169717   2.781027   1.096977   2.148189   2.085017
    39  H    2.817588   4.234996   2.183166   1.095720   2.736557
    40  H    2.870380   4.288947   2.188204   1.094031   3.398674
    41  H    3.520567   4.719879   2.178635   1.095219   2.665412
    42  H    2.677998   3.257086   2.047045   2.642811   1.019414
    43  H    3.361645   3.863707   2.051358   2.595225   1.017848
                   16         17         18         19         20
    16  H    0.000000
    17  H    1.775283   0.000000
    18  H    1.785862   1.771787   0.000000
    19  H    2.352316   2.369232   2.994854   0.000000
    20  H    2.477529   3.060788   2.529990   1.793111   0.000000
    21  H    4.674926   4.575399   4.238826   3.078089   2.366420
    22  H    5.970549   5.591106   6.006343   3.691290   4.137295
    23  H    5.073567   4.322971   5.158419   2.833821   3.896163
    24  H    4.649537   4.981203   5.177300   2.647786   2.821769
    25  H    5.178011   5.191310   5.899548   2.959222   3.948339
    26  H    5.842172   5.063372   4.760260   4.562056   4.132754
    27  H    5.910058   4.819378   5.141493   4.258588   4.541037
    28  H    7.244114   6.598202   6.830368   5.152414   5.300339
    29  H    7.146048   6.743155   6.507258   5.367461   4.908246
    30  H    8.301351   7.471641   7.248313   6.787356   6.431334
    31  H    8.373089   7.330640   7.531387   6.606769   6.726046
    32  H    9.563619   8.840567   9.005982   7.510499   7.560164
    33  H    9.582923   9.038757   8.855601   7.744478   7.378386
    34  H   10.870665   9.861152  10.006089   9.042674   9.086484
    35  H   11.011225  10.321231   9.929577   9.492670   8.941635
    36  H   10.258617   9.337223   9.082742   8.820811   8.451026
    37  H   11.946619  11.031630  10.811459  10.410237  10.068521
    38  H   12.126682  11.501355  11.356422  10.251339   9.940680
    39  H   12.262935  11.375876  11.701241  10.159771  10.388301
    40  H   11.501208  10.843473  11.041079   9.362489   9.437834
    41  H   13.200104  12.493326  12.663417  11.088398  11.129806
    42  H   13.333434  12.355775  12.463891  11.465161  11.460471
    43  H   14.078248  13.263458  13.259699  12.168701  12.028468
                   21         22         23         24         25
    21  H    0.000000
    22  H    2.574872   0.000000
    23  H    3.086093   1.769469   0.000000
    24  H    2.571800   2.361253   2.948144   0.000000
    25  H    3.717943   2.310608   2.393750   1.656864   0.000000
    26  H    2.473444   3.769309   3.790296   4.837728   5.514871
    27  H    3.062354   3.116227   2.624125   4.686186   4.814899
    28  H    3.157577   1.961822   2.966025   4.136531   4.262768
    29  H    2.543326   2.872767   4.017724   4.270094   5.014270
    30  H    4.316531   4.715225   5.222367   6.420761   6.934450
    31  H    4.703320   4.219983   4.458234   6.322497   6.400317
    32  H    5.280357   4.161134   5.183662   6.314637   6.377593
    33  H    5.013896   4.712623   5.912233   6.472812   6.965105
    34  H    6.890153   6.179398   6.731382   8.379888   8.418047
    35  H    6.705585   6.968240   7.857421   8.656184   9.255858
    36  H    6.357073   6.625147   7.131103   8.441282   8.894407
    37  H    7.881682   7.882646   8.528662   9.805608  10.188802
    38  H    7.575779   7.023524   8.195868   8.890385   9.232310
    39  H    8.153234   6.750040   7.569540   8.993371   8.773268
    40  H    7.155769   5.789078   6.952153   7.846065   7.795013
    41  H    8.817830   7.537175   8.650050   9.588451   9.532807
    42  H    9.189214   8.377313   9.087504  10.568095  10.586263
    43  H    9.684428   8.901671   9.869347  10.963788  11.092521
                   26         27         28         29         30
    26  H    0.000000
    27  H    1.746865   0.000000
    28  H    3.075240   2.530445   0.000000
    29  H    2.512836   3.070130   1.765302   0.000000
    30  H    2.492600   3.044553   3.011568   2.480559   0.000000
    31  H    3.074887   2.514380   2.458217   3.062774   1.771619
    32  H    4.635115   4.278966   2.359748   3.004203   3.055272
    33  H    4.347624   4.676112   2.973694   2.470570   2.535316
    34  H    5.364345   5.044159   4.253387   4.675910   3.139320
    35  H    5.266386   5.921934   5.125128   4.389243   2.912981
    36  H    4.420881   4.871685   4.759288   4.332693   2.062715
    37  H    6.111513   6.438446   5.937993   5.623852   3.659691
    38  H    6.712878   6.910556   5.249403   5.032596   4.452967
    39  H    7.259509   6.687149   5.102730   5.881317   5.280520
    40  H    6.706120   6.345677   4.270718   4.835958   4.914857
    41  H    8.175059   7.871406   5.963031   6.406107   6.106786
    42  H    7.762161   7.537737   6.484916   6.793900   5.377917
    43  H    8.530539   8.486666   7.069004   7.170480   6.120183
                   31         32         33         34         35
    31  H    0.000000
    32  H    2.466384   0.000000
    33  H    3.065713   1.758497   0.000000
    34  H    2.530551   2.488561   3.062782   0.000000
    35  H    3.980673   3.776866   2.588157   3.068386   0.000000
    36  H    2.910617   3.792641   3.186350   2.485467   1.771481
    37  H    4.176899   4.333817   3.795802   2.517303   1.776218
    38  H    4.734233   3.117450   2.562383   3.070329   2.614482
    39  H    4.432638   2.896204   4.000024   2.603832   4.799852
    40  H    4.389498   2.095859   2.956852   3.216757   4.497010
    41  H    5.670885   3.667950   4.213335   3.794181   4.937299
    42  H    5.025765   4.289629   4.621794   2.496380   3.923141
    43  H    6.039235   4.749077   4.758649   3.645147   4.114888
                   36         37         38         39         40
    36  H    0.000000
    37  H    1.742825   0.000000
    38  H    3.801541   3.127459   0.000000
    39  H    4.922724   4.446115   3.071710   0.000000
    40  H    5.014242   4.818611   2.490462   1.771737   0.000000
    41  H    5.641653   4.881806   2.501654   1.775055   1.751443
    42  H    4.067684   2.829165   2.937083   2.515106   3.669387
    43  H    4.885392   3.507837   2.391940   2.996510   3.592834
                   41         42         43
    41  H    0.000000
    42  H    2.970328   0.000000
    43  H    2.385905   1.633836   0.000000
 Stoichiometry    C12H28N2O
 Framework group  C1[X(C12H28N2O)]
 Deg. of freedom   123
 Full point group                 C1      NOp   1
 Largest Abelian subgroup         C1      NOp   1
 Largest concise Abelian subgroup C1      NOp   1
                         Standard orientation:                         
 ---------------------------------------------------------------------
 Center     Atomic      Atomic             Coordinates (Angstroms)
 Number     Number       Type             X           Y           Z
 ---------------------------------------------------------------------
      1          6           0        6.237310   -1.199154   -0.253571
      2          6           0        5.098162   -0.333168    0.221494
      3          8           0        3.835362   -0.820798   -0.226134
      4          6           0        2.736556   -0.012859    0.247054
      5          6           0        2.783903    1.450708   -0.287633
      6          7           0        3.890521    2.255538    0.229383
      7          6           0        1.444906   -0.707636   -0.218719
      8          6           0        0.198922    0.031797    0.257199
      9          6           0       -1.064331   -0.657679   -0.213085
     10          6           0       -2.279628    0.130410    0.265064
     11          6           0       -3.605817   -0.499403   -0.189703
     12          6           0       -3.717976   -1.936670    0.346615
     13          6           0       -4.810332    0.361592    0.269382
     14          6           0       -4.763362    1.792940   -0.273495
     15          7           0       -6.060980   -0.262676   -0.169919
     16          1           0        7.183194   -0.751852    0.070738
     17          1           0        6.235787   -1.245625   -1.347091
     18          1           0        6.162391   -2.215857    0.133615
     19          1           0        5.304178    0.629240   -0.237925
     20          1           0        5.100673   -0.245909    1.313831
     21          1           0        2.745308   -0.019588    1.345059
     22          1           0        1.883732    1.997252   -0.004019
     23          1           0        2.835978    1.424250   -1.380942
     24          1           0        3.868559    2.291595    1.240706
     25          1           0        3.849179    3.204268   -0.141992
     26          1           0        1.425950   -1.740750    0.155594
     27          1           0        1.437621   -0.795219   -1.313205
     28          1           0        0.170098    1.051245   -0.135448
     29          1           0        0.204852    0.101027    1.351889
     30          1           0       -1.065732   -1.677083    0.178385
     31          1           0       -1.075438   -0.713839   -1.308457
     32          1           0       -2.187681    1.147591   -0.133280
     33          1           0       -2.262818    0.220486    1.359082
     34          1           0       -3.600261   -0.544928   -1.287808
     35          1           0       -3.677009   -1.945590    1.441157
     36          1           0       -2.911859   -2.573778   -0.027880
     37          1           0       -4.646692   -2.417331    0.029730
     38          1           0       -4.818518    0.405312    1.365456
     39          1           0       -4.724096    1.802502   -1.368469
     40          1           0       -3.894139    2.341618    0.101082
     41          1           0       -5.644497    2.361398    0.042672
     42          1           0       -6.083189   -0.306080   -1.188166
     43          1           0       -6.855130    0.306722    0.114908
 ---------------------------------------------------------------------
 Rotational constants (GHZ):           1.5165448           0.1478627           0.1374114
 Standard basis: 6-31G(2df,p) (6D, 7F)
 There are   605 symmetry adapted cartesian basis functions of A   symmetry.
 There are   560 symmetry adapted basis functions of A   symmetry.
   560 basis functions,   856 primitive gaussians,   605 cartesian basis functions
    61 alpha electrons       61 beta electrons
       nuclear repulsion energy      1038.3523190197 Hartrees.
 NAtoms=   43 NActive=   43 NUniq=   43 SFac= 1.00D+00 NAtFMM=   60 NAOKFM=F Big=F
 Integral buffers will be    131072 words long.
 Raffenetti 2 integral format.
 Two-electron integral symmetry is turned on.
 One-electron integrals computed using PRISM.
 PrsmSu:  requested number of processors reduced to:  12 ShMem   1 Linda.
 NBasis=   560 RedAO= T EigKep=  3.99D-04  NBF=   560
 NBsUse=   560 1.00D-06 EigRej= -1.00D+00 NBFU=   560
 ExpMin= 1.61D-01 ExpMax= 5.48D+03 ExpMxC= 8.25D+02 IAcc=3 IRadAn=         5 AccDes= 0.00D+00
 Harris functional with IExCor=  402 and IRadAn=       5 diagonalized for initial guess.
 HarFok:  IExCor=  402 AccDes= 0.00D+00 IRadAn=         5 IDoV= 1 UseB2=F ITyADJ=14
 ICtDFT=  3500011 ScaDFX=  1.000000  1.000000  1.000000  1.000000
 FoFCou: FMM=F IPFlag=           0 FMFlag=      100000 FMFlg1=           0
         NFxFlg=           0 DoJE=T BraDBF=F KetDBF=T FulRan=T
         wScrn=  0.000000 ICntrl=       500 IOpCl=  0 I1Cent=   200000004 NGrid=           0
         NMat0=    1 NMatS0=      1 NMatT0=    0 NMatD0=    1 NMtDS0=    0 NMtDT0=    0
 Petite list used in FoFCou.
 Requested convergence on RMS density matrix=1.00D-08 within 128 cycles.
 Requested convergence on MAX density matrix=1.00D-06.
 Requested convergence on             energy=1.00D-06.
 No special actions if energy rises.
 Integral accuracy reduced to 1.0D-05 until final iterations.
 Initial convergence to 1.0D-05 achieved.  Increase integral accuracy.
 SCF Done:  E(RB3LYP) =  -658.894375211     A.U. after   12 cycles
            NFock= 12  Conv=0.39D-08     -V/T= 2.0081

 **********************************************************************

            Population analysis using the SCF density.

 **********************************************************************

 Orbital symmetries:
       Occupied  (A) (A) (A) (A) (A) (A) (A) (A) (A) (A) (A) (A)
                 (A) (A) (A) (A) (A) (A) (A) (A) (A) (A) (A) (A)
                 (A) (A) (A) (A) (A) (A) (A) (A) (A) (A) (A) (A)
                 (A) (A) (A) (A) (A) (A) (A) (A) (A) (A) (A) (A)
                 (A) (A) (A) (A) (A) (A) (A) (A) (A) (A) (A) (A)
                 (A)
       Virtual   (A) (A) (A) (A) (A) (A) (A) (A) (A) (A) (A) (A)
                 (A) (A) (A) (A) (A) (A) (A) (A) (A) (A) (A) (A)
                 (A) (A) (A) (A) (A) (A) (A) (A) (A) (A) (A) (A)
                 (A) (A) (A) (A) (A) (A) (A) (A) (A) (A) (A) (A)
                 (A) (A) (A) (A) (A) (A) (A) (A) (A) (A) (A) (A)
                 (A) (A) (A) (A) (A) (A) (A) (A) (A) (A) (A) (A)
                 (A) (A) (A) (A) (A) (A) (A) (A) (A) (A) (A) (A)
                 (A) (A) (A) (A) (A) (A) (A) (A) (A) (A) (A) (A)
                 (A) (A) (A) (A) (A) (A) (A) (A) (A) (A) (A) (A)
                 (A) (A) (A) (A) (A) (A) (A) (A) (A) (A) (A) (A)
                 (A) (A) (A) (A) (A) (A) (A) (A) (A) (A) (A) (A)
                 (A) (A) (A) (A) (A) (A) (A) (A) (A) (A) (A) (A)
                 (A) (A) (A) (A) (A) (A) (A) (A) (A) (A) (A) (A)
                 (A) (A) (A) (A) (A) (A) (A) (A) (A) (A) (A) (A)
                 (A) (A) (A) (A) (A) (A) (A) (A) (A) (A) (A) (A)
                 (A) (A) (A) (A) (A) (A) (A) (A) (A) (A) (A) (A)
                 (A) (A) (A) (A) (A) (A) (A) (A) (A) (A) (A) (A)
                 (A) (A) (A) (A) (A) (A) (A) (A) (A) (A) (A) (A)
                 (A) (A) (A) (A) (A) (A) (A) (A) (A) (A) (A) (A)
                 (A) (A) (A) (A) (A) (A) (A) (A) (A) (A) (A) (A)
                 (A) (A) (A) (A) (A) (A) (A) (A) (A) (A) (A) (A)
                 (A) (A) (A) (A) (A) (A) (A) (A) (A) (A) (A) (A)
                 (A) (A) (A) (A) (A) (A) (A) (A) (A) (A) (A) (A)
                 (A) (A) (A) (A) (A) (A) (A) (A) (A) (A) (A) (A)
                 (A) (A) (A) (A) (A) (A) (A) (A) (A) (A) (A) (A)
                 (A) (A) (A) (A) (A) (A) (A) (A) (A) (A) (A) (A)
                 (A) (A) (A) (A) (A) (A) (A) (A) (A) (A) (A) (A)
                 (A) (A) (A) (A) (A) (A) (A) (A) (A) (A) (A) (A)
                 (A) (A) (A) (A) (A) (A) (A) (A) (A) (A) (A) (A)
                 (A) (A) (A) (A) (A) (A) (A) (A) (A) (A) (A) (A)
                 (A) (A) (A) (A) (A) (A) (A) (A) (A) (A) (A) (A)
                 (A) (A) (A) (A) (A) (A) (A) (A) (A) (A) (A) (A)
                 (A) (A) (A) (A) (A) (A) (A) (A) (A) (A) (A) (A)
                 (A) (A) (A) (A) (A) (A) (A) (A) (A) (A) (A) (A)
                 (A) (A) (A) (A) (A) (A) (A) (A) (A) (A) (A) (A)
                 (A) (A) (A) (A) (A) (A) (A) (A) (A) (A) (A) (A)
                 (A) (A) (A) (A) (A) (A) (A) (A) (A) (A) (A) (A)
                 (A) (A) (A) (A) (A) (A) (A) (A) (A) (A) (A) (A)
                 (A) (A) (A) (A) (A) (A) (A) (A) (A) (A) (A) (A)
                 (A) (A) (A) (A) (A) (A) (A) (A) (A) (A) (A) (A)
                 (A) (A) (A) (A) (A) (A) (A) (A) (A) (A) (A) (A)
                 (A) (A) (A) (A) (A) (A) (A)
 The electronic state is 1-A.
 Alpha  occ. eigenvalues --  -19.12110 -14.30291 -14.29876 -10.22633 -10.20389
 Alpha  occ. eigenvalues --  -10.20060 -10.19718 -10.17951 -10.17223 -10.17200
 Alpha  occ. eigenvalues --  -10.17113 -10.16977 -10.16834 -10.15848 -10.15820
 Alpha  occ. eigenvalues --   -1.00592  -0.88105  -0.87465  -0.81241  -0.78243
 Alpha  occ. eigenvalues --   -0.74804  -0.71985  -0.71032  -0.67412  -0.63989
 Alpha  occ. eigenvalues --   -0.61813  -0.58989  -0.57548  -0.56969  -0.55479
 Alpha  occ. eigenvalues --   -0.48961  -0.48321  -0.47869  -0.47502  -0.45642
 Alpha  occ. eigenvalues --   -0.44716  -0.44496  -0.42804  -0.42406  -0.41577
 Alpha  occ. eigenvalues --   -0.40789  -0.39954  -0.39140  -0.38557  -0.37738
 Alpha  occ. eigenvalues --   -0.36776  -0.36433  -0.36068  -0.35296  -0.34503
 Alpha  occ. eigenvalues --   -0.33667  -0.33137  -0.32949  -0.31989  -0.31741
 Alpha  occ. eigenvalues --   -0.31038  -0.30022  -0.28924  -0.25057  -0.22466
 Alpha  occ. eigenvalues --   -0.20908
 Alpha virt. eigenvalues --    0.07821   0.07903   0.09259   0.10225   0.10802
 Alpha virt. eigenvalues --    0.11524   0.11790   0.12437   0.13366   0.13975
 Alpha virt. eigenvalues --    0.14185   0.14856   0.15488   0.16509   0.16895
 Alpha virt. eigenvalues --    0.17486   0.17526   0.17805   0.18240   0.18774
 Alpha virt. eigenvalues --    0.19056   0.19479   0.19767   0.20277   0.20654
 Alpha virt. eigenvalues --    0.21036   0.21442   0.22196   0.22734   0.23362
 Alpha virt. eigenvalues --    0.23969   0.24689   0.24769   0.25373   0.25936
 Alpha virt. eigenvalues --    0.26420   0.27106   0.28024   0.28871   0.29837
 Alpha virt. eigenvalues --    0.33406   0.35741   0.42751   0.44991   0.45543
 Alpha virt. eigenvalues --    0.46961   0.48265   0.48823   0.49599   0.50071
 Alpha virt. eigenvalues --    0.50506   0.51668   0.52424   0.53238   0.53927
 Alpha virt. eigenvalues --    0.54823   0.54902   0.55292   0.56710   0.57705
 Alpha virt. eigenvalues --    0.58414   0.58923   0.59836   0.60177   0.60852
 Alpha virt. eigenvalues --    0.62187   0.63621   0.63681   0.64253   0.65197
 Alpha virt. eigenvalues --    0.65824   0.65973   0.67679   0.68715   0.70604
 Alpha virt. eigenvalues --    0.71052   0.71539   0.72317   0.72483   0.72907
 Alpha virt. eigenvalues --    0.74086   0.74329   0.74847   0.74924   0.75196
 Alpha virt. eigenvalues --    0.75616   0.75993   0.76360   0.76731   0.76915
 Alpha virt. eigenvalues --    0.77283   0.78178   0.78619   0.79337   0.79717
 Alpha virt. eigenvalues --    0.80047   0.80674   0.81039   0.81704   0.81967
 Alpha virt. eigenvalues --    0.83252   0.83476   0.84181   0.85263   0.85696
 Alpha virt. eigenvalues --    0.86282   0.87445   0.87889   0.88547   0.88905
 Alpha virt. eigenvalues --    0.89647   0.90509   0.91000   0.92907   0.93251
 Alpha virt. eigenvalues --    0.94222   0.96180   0.96534   1.01806   1.02481
 Alpha virt. eigenvalues --    1.05250   1.06163   1.07068   1.08053   1.09401
 Alpha virt. eigenvalues --    1.10960   1.11923   1.13086   1.15358   1.15953
 Alpha virt. eigenvalues --    1.19123   1.19658   1.20923   1.21491   1.23661
 Alpha virt. eigenvalues --    1.24703   1.26111   1.26302   1.26880   1.27751
 Alpha virt. eigenvalues --    1.29942   1.30523   1.32624   1.33187   1.34553
 Alpha virt. eigenvalues --    1.35226   1.36742   1.38673   1.39189   1.42224
 Alpha virt. eigenvalues --    1.42747   1.44032   1.44616   1.45286   1.47148
 Alpha virt. eigenvalues --    1.48373   1.49145   1.50700   1.52452   1.52955
 Alpha virt. eigenvalues --    1.53749   1.54435   1.54719   1.56190   1.57101
 Alpha virt. eigenvalues --    1.58772   1.59557   1.60675   1.62184   1.63622
 Alpha virt. eigenvalues --    1.65308   1.67081   1.67672   1.68734   1.69789
 Alpha virt. eigenvalues --    1.70877   1.72523   1.72837   1.73153   1.76899
 Alpha virt. eigenvalues --    1.77815   1.78228   1.80187   1.81475   1.83004
 Alpha virt. eigenvalues --    1.84114   1.84450   1.85541   1.86897   1.89088
 Alpha virt. eigenvalues --    1.90027   1.91179   1.91264   1.93647   1.94378
 Alpha virt. eigenvalues --    1.95427   1.96155   1.96811   1.97078   1.98029
 Alpha virt. eigenvalues --    1.98338   1.99616   2.02609   2.03252   2.05790
 Alpha virt. eigenvalues --    2.07458   2.10204   2.14840   2.15679   2.18934
 Alpha virt. eigenvalues --    2.20167   2.21698   2.22552   2.22924   2.24968
 Alpha virt. eigenvalues --    2.25587   2.26489   2.26753   2.29093   2.29732
 Alpha virt. eigenvalues --    2.30548   2.30985   2.34397   2.36253   2.38874
 Alpha virt. eigenvalues --    2.39629   2.39869   2.41389   2.43272   2.44416
 Alpha virt. eigenvalues --    2.44711   2.47355   2.47897   2.50884   2.52611
 Alpha virt. eigenvalues --    2.55929   2.58206   2.60773   2.62398   2.63564
 Alpha virt. eigenvalues --    2.64278   2.65936   2.69254   2.71689   2.72577
 Alpha virt. eigenvalues --    2.73673   2.74232   2.75172   2.75716   2.76670
 Alpha virt. eigenvalues --    2.77505   2.78333   2.78605   2.79360   2.80188
 Alpha virt. eigenvalues --    2.80769   2.82273   2.82547   2.82959   2.83652
 Alpha virt. eigenvalues --    2.84105   2.85022   2.85596   2.86318   2.86842
 Alpha virt. eigenvalues --    2.87516   2.88668   2.89045   2.89750   2.90622
 Alpha virt. eigenvalues --    2.91660   2.92097   2.93814   2.94130   2.94574
 Alpha virt. eigenvalues --    2.95182   2.95972   2.96100   2.97363   2.98535
 Alpha virt. eigenvalues --    2.98784   3.00110   3.00690   3.01226   3.02074
 Alpha virt. eigenvalues --    3.03415   3.04740   3.06523   3.07566   3.09124
 Alpha virt. eigenvalues --    3.10881   3.12105   3.14157   3.15128   3.17099
 Alpha virt. eigenvalues --    3.18372   3.19215   3.20416   3.21520   3.23867
 Alpha virt. eigenvalues --    3.24379   3.25846   3.26764   3.28051   3.29913
 Alpha virt. eigenvalues --    3.31307   3.33813   3.35169   3.36269   3.36697
 Alpha virt. eigenvalues --    3.38171   3.39371   3.41125   3.41917   3.43798
 Alpha virt. eigenvalues --    3.44892   3.45910   3.47349   3.49108   3.51793
 Alpha virt. eigenvalues --    3.53341   3.54532   3.56164   3.57496   3.58343
 Alpha virt. eigenvalues --    3.59337   3.60386   3.61311   3.63092   3.64342
 Alpha virt. eigenvalues --    3.64763   3.65288   3.66951   3.67698   3.70107
 Alpha virt. eigenvalues --    3.71421   3.73484   3.74261   3.75046   3.75852
 Alpha virt. eigenvalues --    3.76904   3.78182   3.78811   3.80473   3.81178
 Alpha virt. eigenvalues --    3.82870   3.83711   3.84836   3.86759   3.89129
 Alpha virt. eigenvalues --    3.91763   3.92669   3.94272   3.95997   3.97909
 Alpha virt. eigenvalues --    3.98616   4.01486   4.03675   4.06663   4.07912
 Alpha virt. eigenvalues --    4.08923   4.12158   4.17587   4.19798   4.20853
 Alpha virt. eigenvalues --    4.22162   4.25052   4.28003   4.29015   4.30765
 Alpha virt. eigenvalues --    4.33294   4.34503   4.35091   4.37052   4.37787
 Alpha virt. eigenvalues --    4.40047   4.40374   4.42037   4.42583   4.43226
 Alpha virt. eigenvalues --    4.43684   4.45219   4.46917   4.47138   4.47555
 Alpha virt. eigenvalues --    4.47965   4.50279   4.50965   4.51700   4.52295
 Alpha virt. eigenvalues --    4.52635   4.53676   4.54513   4.54917   4.55966
 Alpha virt. eigenvalues --    4.57319   4.57979   4.58894   4.59003   4.60734
 Alpha virt. eigenvalues --    4.61221   4.61995   4.63509   4.63713   4.64133
 Alpha virt. eigenvalues --    4.65185   4.65883   4.67139   4.67380   4.68666
 Alpha virt. eigenvalues --    4.68893   4.69890   4.70715   4.71997   4.72196
 Alpha virt. eigenvalues --    4.72639   4.73604   4.75580   4.75851   4.76519
 Alpha virt. eigenvalues --    4.77555   4.78390   4.78488   4.80168   4.80878
 Alpha virt. eigenvalues --    4.81751   4.82100   4.83379   4.83867   4.84297
 Alpha virt. eigenvalues --    4.85245   4.86054   4.87655   4.88124   4.90205
 Alpha virt. eigenvalues --    4.90439   4.91354   4.91843   4.94326   4.94496
 Alpha virt. eigenvalues --    4.94745   4.96165   4.96498   4.98324   4.99033
 Alpha virt. eigenvalues --    5.01600   5.02151   5.02804   5.04614   5.08205
 Alpha virt. eigenvalues --    5.12251   5.15211   5.17772   5.22847   5.27301
 Alpha virt. eigenvalues --    5.30523   5.33647   5.36015   5.37152   5.39955
 Alpha virt. eigenvalues --    5.40988   5.43630   5.45315   5.46968   5.49567
 Alpha virt. eigenvalues --    5.51570   5.52012   5.53591   5.57758   5.60143
 Alpha virt. eigenvalues --    5.62500   5.69533   5.75104   5.77911   5.82987
 Alpha virt. eigenvalues --    5.89610   6.00896   6.05276   6.18335   6.26116
 Alpha virt. eigenvalues --    6.41017   7.15701  10.50517  10.94656  11.27220
 Alpha virt. eigenvalues --   11.33467  11.41682  11.52126  11.65394  11.87020
 Alpha virt. eigenvalues --   11.93299  12.04714  12.23662  12.32953  12.44894
 Alpha virt. eigenvalues --   12.58263  13.18033  13.55819  13.87892
          Condensed to atoms (all electrons):
               1          2          3          4          5          6
     1  C    5.012236   0.391146  -0.027753   0.002357   0.000140   0.001194
     2  C    0.391146   4.704778   0.348924  -0.063478  -0.004703  -0.029102
     3  O   -0.027753   0.348924   7.754305   0.358668  -0.039442   0.003021
     4  C    0.002357  -0.063478   0.358668   4.629015   0.354432  -0.024574
     5  C    0.000140  -0.004703  -0.039442   0.354432   4.983549   0.363593
     6  N    0.001194  -0.029102   0.003021  -0.024574   0.363593   6.566590
     7  C   -0.000267   0.003729  -0.026243   0.413945  -0.032523   0.001956
     8  C    0.000001  -0.000258   0.001717  -0.037292  -0.001016   0.000159
     9  C   -0.000000  -0.000000  -0.000018   0.001227   0.000424  -0.000008
    10  C    0.000000  -0.000000   0.000000  -0.000124   0.000015  -0.000000
    11  C   -0.000000   0.000000  -0.000000   0.000000   0.000000  -0.000000
    12  C    0.000000   0.000000   0.000000   0.000000  -0.000000  -0.000000
    13  C    0.000000  -0.000000   0.000000  -0.000000  -0.000000  -0.000000
    14  C    0.000000  -0.000000  -0.000000  -0.000000   0.000000   0.000000
    15  N    0.000000   0.000000  -0.000000   0.000000  -0.000000   0.000000
    16  H    0.367021  -0.021635   0.002024  -0.000199   0.000012   0.000027
    17  H    0.373389  -0.024191   0.001584   0.000193  -0.000087   0.000027
    18  H    0.361181  -0.019298   0.001875   0.000169   0.000028  -0.000030
    19  H   -0.039771   0.370050  -0.029307  -0.003893   0.004965   0.017519
    20  H   -0.042140   0.353296  -0.035797  -0.004566  -0.003827   0.001609
    21  H    0.000151  -0.007141  -0.034325   0.340855  -0.074947  -0.002969
    22  H    0.000012  -0.000225   0.002582  -0.024284   0.366817  -0.045620
    23  H   -0.000099   0.001201  -0.000592  -0.013950   0.340376  -0.022833
    24  H   -0.000091   0.001411  -0.000156  -0.001412  -0.055898   0.343540
    25  H   -0.000032   0.000675  -0.000104   0.003931  -0.043658   0.339556
    26  H   -0.000006   0.000120   0.002204  -0.015232   0.004821  -0.000070
    27  H    0.000007   0.000100   0.001762  -0.023100  -0.010301   0.000061
    28  H    0.000000   0.000002   0.000015  -0.004707  -0.002365  -0.000346
    29  H    0.000000   0.000008   0.000034  -0.001900  -0.001016  -0.000033
    30  H   -0.000000   0.000000   0.000000   0.000128  -0.000008   0.000000
    31  H    0.000000   0.000000   0.000001   0.000213  -0.000004  -0.000000
    32  H   -0.000000   0.000000   0.000000   0.000020  -0.000017   0.000000
    33  H    0.000000   0.000000   0.000000   0.000008   0.000001   0.000000
    34  H   -0.000000   0.000000   0.000000   0.000000   0.000000   0.000000
    35  H    0.000000  -0.000000   0.000000  -0.000000   0.000000   0.000000
    36  H    0.000000  -0.000000   0.000000  -0.000000   0.000000  -0.000000
    37  H   -0.000000  -0.000000  -0.000000  -0.000000  -0.000000   0.000000
    38  H    0.000000   0.000000  -0.000000   0.000000  -0.000000   0.000000
    39  H   -0.000000   0.000000  -0.000000   0.000000  -0.000000   0.000000
    40  H    0.000000   0.000000  -0.000000   0.000000   0.000000  -0.000000
    41  H    0.000000  -0.000000   0.000000  -0.000000  -0.000000  -0.000000
    42  H    0.000000  -0.000000   0.000000   0.000000  -0.000000   0.000000
    43  H    0.000000  -0.000000   0.000000  -0.000000  -0.000000   0.000000
               7          8          9         10         11         12
     1  C   -0.000267   0.000001  -0.000000   0.000000  -0.000000   0.000000
     2  C    0.003729  -0.000258  -0.000000  -0.000000   0.000000   0.000000
     3  O   -0.026243   0.001717  -0.000018   0.000000  -0.000000   0.000000
     4  C    0.413945  -0.037292   0.001227  -0.000124   0.000000   0.000000
     5  C   -0.032523  -0.001016   0.000424   0.000015   0.000000  -0.000000
     6  N    0.001956   0.000159  -0.000008  -0.000000  -0.000000  -0.000000
     7  C    4.917652   0.379923  -0.037554   0.001399  -0.000133   0.000012
     8  C    0.379923   4.854145   0.423873  -0.038695   0.001640   0.000672
     9  C   -0.037554   0.423873   4.827826   0.428455  -0.030073  -0.004955
    10  C    0.001399  -0.038695   0.428455   4.865491   0.410923  -0.035708
    11  C   -0.000133   0.001640  -0.030073   0.410923   4.643668   0.398420
    12  C    0.000012   0.000672  -0.004955  -0.035708   0.398420   5.020580
    13  C    0.000000  -0.000133   0.001714  -0.034582   0.417447  -0.031255
    14  C    0.000000   0.000014   0.000506   0.002379  -0.041669   0.004348
    15  N   -0.000000   0.000000  -0.000054   0.001581  -0.025803  -0.010974
    16  H    0.000003  -0.000000   0.000000  -0.000000   0.000000   0.000000
    17  H    0.000014   0.000000   0.000000   0.000000   0.000000  -0.000000
    18  H   -0.000001   0.000000  -0.000000   0.000000   0.000000  -0.000000
    19  H    0.000071   0.000029   0.000000   0.000000   0.000000   0.000000
    20  H    0.000335   0.000039   0.000000   0.000000   0.000000  -0.000000
    21  H   -0.037099  -0.001251   0.000015   0.000015   0.000000   0.000000
    22  H   -0.004205  -0.004317   0.000280  -0.000004  -0.000000   0.000000
    23  H   -0.004665   0.000291  -0.000092   0.000001  -0.000000  -0.000000
    24  H    0.000004  -0.000035  -0.000001   0.000000  -0.000000  -0.000000
    25  H   -0.000167   0.000014  -0.000000   0.000000   0.000000  -0.000000
    26  H    0.350275  -0.028335  -0.003683   0.000132   0.000013  -0.000010
    27  H    0.355799  -0.031203  -0.003229   0.000202   0.000005   0.000000
    28  H   -0.031450   0.359974  -0.030708  -0.003800   0.000154  -0.000002
    29  H   -0.034363   0.362259  -0.032454  -0.002552   0.000226  -0.000012
    30  H   -0.002039  -0.029782   0.362424  -0.028777  -0.004869   0.000138
    31  H   -0.002820  -0.031305   0.360909  -0.031607  -0.001939  -0.000942
    32  H    0.000203  -0.003679  -0.032030   0.352823  -0.024908   0.005510
    33  H    0.000151  -0.002726  -0.035722   0.357026  -0.027272  -0.008145
    34  H    0.000004   0.000167  -0.004977  -0.040969   0.348168  -0.048430
    35  H    0.000001  -0.000059  -0.000409  -0.005414  -0.027087   0.370802
    36  H    0.000004   0.000029  -0.000885  -0.004767  -0.021492   0.368460
    37  H   -0.000000  -0.000009   0.000206   0.004149  -0.019494   0.367440
    38  H    0.000000   0.000001  -0.000002  -0.008362  -0.029273  -0.006133
    39  H   -0.000000   0.000000  -0.000061  -0.000844  -0.006324   0.000072
    40  H   -0.000000  -0.000002  -0.000069  -0.003390  -0.000778  -0.000118
    41  H   -0.000000  -0.000000  -0.000008   0.000116   0.003545  -0.000160
    42  H   -0.000000   0.000000  -0.000003  -0.000176  -0.004580   0.000220
    43  H    0.000000  -0.000000   0.000001  -0.000264   0.005390   0.000315
              13         14         15         16         17         18
     1  C    0.000000   0.000000   0.000000   0.367021   0.373389   0.361181
     2  C   -0.000000  -0.000000   0.000000  -0.021635  -0.024191  -0.019298
     3  O    0.000000  -0.000000  -0.000000   0.002024   0.001584   0.001875
     4  C   -0.000000  -0.000000   0.000000  -0.000199   0.000193   0.000169
     5  C   -0.000000   0.000000  -0.000000   0.000012  -0.000087   0.000028
     6  N   -0.000000   0.000000   0.000000   0.000027   0.000027  -0.000030
     7  C    0.000000   0.000000  -0.000000   0.000003   0.000014  -0.000001
     8  C   -0.000133   0.000014   0.000000  -0.000000   0.000000   0.000000
     9  C    0.001714   0.000506  -0.000054   0.000000   0.000000  -0.000000
    10  C   -0.034582   0.002379   0.001581  -0.000000   0.000000   0.000000
    11  C    0.417447  -0.041669  -0.025803   0.000000   0.000000   0.000000
    12  C   -0.031255   0.004348  -0.010974   0.000000  -0.000000  -0.000000
    13  C    4.686150   0.408569   0.394814  -0.000000   0.000000   0.000000
    14  C    0.408569   5.090690  -0.068949  -0.000000  -0.000000  -0.000000
    15  N    0.394814  -0.068949   6.546312   0.000000   0.000000   0.000000
    16  H   -0.000000  -0.000000   0.000000   0.602703  -0.029394  -0.029939
    17  H    0.000000  -0.000000   0.000000  -0.029394   0.596119  -0.034927
    18  H    0.000000  -0.000000   0.000000  -0.029939  -0.034927   0.612254
    19  H    0.000000   0.000000   0.000000  -0.000709  -0.007675   0.006292
    20  H    0.000000  -0.000000   0.000000   0.000154   0.006588  -0.006427
    21  H    0.000000  -0.000000   0.000000   0.000011   0.000047  -0.000051
    22  H    0.000000   0.000000  -0.000000  -0.000000   0.000000  -0.000000
    23  H    0.000000  -0.000000  -0.000000   0.000001   0.000022   0.000001
    24  H    0.000000   0.000000  -0.000000  -0.000001   0.000003   0.000002
    25  H    0.000000   0.000000   0.000000  -0.000000  -0.000000   0.000001
    26  H    0.000000  -0.000000   0.000000   0.000000  -0.000001   0.000009
    27  H    0.000000   0.000000   0.000000   0.000000   0.000003  -0.000001
    28  H    0.000007  -0.000017   0.000000   0.000000   0.000000  -0.000000
    29  H    0.000008  -0.000000   0.000000   0.000000  -0.000000  -0.000000
    30  H    0.000018  -0.000006   0.000001   0.000000   0.000000  -0.000000
    31  H    0.000213  -0.000021   0.000003  -0.000000  -0.000000   0.000000
    32  H   -0.005577  -0.000084   0.000071  -0.000000  -0.000000   0.000000
    33  H   -0.004295  -0.000832   0.000089  -0.000000  -0.000000   0.000000
    34  H   -0.036727  -0.008012  -0.004681   0.000000   0.000000   0.000000
    35  H   -0.004997   0.000085   0.000038  -0.000000   0.000000   0.000000
    36  H    0.003418  -0.000137   0.000371  -0.000000   0.000000   0.000000
    37  H   -0.003529   0.000387   0.012706   0.000000  -0.000000   0.000000
    38  H    0.348273  -0.057227  -0.025373   0.000000   0.000000  -0.000000
    39  H   -0.024157   0.365083  -0.001026   0.000000  -0.000000  -0.000000
    40  H   -0.019561   0.340544   0.006686   0.000000  -0.000000  -0.000000
    41  H   -0.022852   0.363635  -0.001290   0.000000  -0.000000   0.000000
    42  H   -0.060601  -0.003989   0.341286   0.000000   0.000000   0.000000
    43  H   -0.054059  -0.003546   0.343235   0.000000   0.000000   0.000000
              19         20         21         22         23         24
     1  C   -0.039771  -0.042140   0.000151   0.000012  -0.000099  -0.000091
     2  C    0.370050   0.353296  -0.007141  -0.000225   0.001201   0.001411
     3  O   -0.029307  -0.035797  -0.034325   0.002582  -0.000592  -0.000156
     4  C   -0.003893  -0.004566   0.340855  -0.024284  -0.013950  -0.001412
     5  C    0.004965  -0.003827  -0.074947   0.366817   0.340376  -0.055898
     6  N    0.017519   0.001609  -0.002969  -0.045620  -0.022833   0.343540
     7  C    0.000071   0.000335  -0.037099  -0.004205  -0.004665   0.000004
     8  C    0.000029   0.000039  -0.001251  -0.004317   0.000291  -0.000035
     9  C    0.000000   0.000000   0.000015   0.000280  -0.000092  -0.000001
    10  C    0.000000   0.000000   0.000015  -0.000004   0.000001   0.000000
    11  C    0.000000   0.000000   0.000000  -0.000000  -0.000000  -0.000000
    12  C    0.000000  -0.000000   0.000000   0.000000  -0.000000  -0.000000
    13  C    0.000000   0.000000   0.000000   0.000000   0.000000   0.000000
    14  C    0.000000  -0.000000  -0.000000   0.000000  -0.000000   0.000000
    15  N    0.000000   0.000000   0.000000  -0.000000  -0.000000  -0.000000
    16  H   -0.000709   0.000154   0.000011  -0.000000   0.000001  -0.000001
    17  H   -0.007675   0.006588   0.000047   0.000000   0.000022   0.000003
    18  H    0.006292  -0.006427  -0.000051  -0.000000   0.000001   0.000002
    19  H    0.611782  -0.054610  -0.001893   0.000076  -0.000962  -0.001858
    20  H   -0.054610   0.707317   0.015731   0.000058   0.000260   0.001195
    21  H   -0.001893   0.015731   0.723508   0.000619   0.006497   0.005624
    22  H    0.000076   0.000058   0.000619   0.658267  -0.043581  -0.003330
    23  H   -0.000962   0.000260   0.006497  -0.043581   0.619899   0.006444
    24  H   -0.001858   0.001195   0.005624  -0.003330   0.006444   0.511872
    25  H    0.000749  -0.000066  -0.000157  -0.004670  -0.002171  -0.029410
    26  H    0.000025  -0.000061  -0.006039  -0.000138  -0.000128   0.000001
    27  H   -0.000021   0.000041   0.006954   0.000420   0.004949   0.000020
    28  H   -0.000001   0.000002   0.000064   0.007856   0.000492  -0.000018
    29  H    0.000000  -0.000001   0.005823   0.001406   0.000110   0.000018
    30  H   -0.000000   0.000000  -0.000003   0.000002   0.000001   0.000000
    31  H    0.000000  -0.000000   0.000007   0.000040   0.000001   0.000000
    32  H   -0.000000  -0.000000   0.000001  -0.000019   0.000001   0.000000
    33  H    0.000000  -0.000000  -0.000003   0.000004  -0.000000   0.000000
    34  H   -0.000000   0.000000  -0.000000   0.000000  -0.000000   0.000000
    35  H   -0.000000   0.000000  -0.000000   0.000000   0.000000   0.000000
    36  H    0.000000  -0.000000   0.000000   0.000000   0.000000  -0.000000
    37  H    0.000000   0.000000   0.000000  -0.000000   0.000000   0.000000
    38  H   -0.000000   0.000000  -0.000000   0.000000  -0.000000   0.000000
    39  H   -0.000000  -0.000000  -0.000000   0.000000  -0.000000   0.000000
    40  H    0.000000   0.000000   0.000000   0.000000  -0.000000   0.000000
    41  H    0.000000  -0.000000   0.000000  -0.000000   0.000000  -0.000000
    42  H    0.000000   0.000000   0.000000  -0.000000   0.000000   0.000000
    43  H    0.000000   0.000000   0.000000  -0.000000   0.000000   0.000000
              25         26         27         28         29         30
     1  C   -0.000032  -0.000006   0.000007   0.000000   0.000000  -0.000000
     2  C    0.000675   0.000120   0.000100   0.000002   0.000008   0.000000
     3  O   -0.000104   0.002204   0.001762   0.000015   0.000034   0.000000
     4  C    0.003931  -0.015232  -0.023100  -0.004707  -0.001900   0.000128
     5  C   -0.043658   0.004821  -0.010301  -0.002365  -0.001016  -0.000008
     6  N    0.339556  -0.000070   0.000061  -0.000346  -0.000033   0.000000
     7  C   -0.000167   0.350275   0.355799  -0.031450  -0.034363  -0.002039
     8  C    0.000014  -0.028335  -0.031203   0.359974   0.362259  -0.029782
     9  C   -0.000000  -0.003683  -0.003229  -0.030708  -0.032454   0.362424
    10  C    0.000000   0.000132   0.000202  -0.003800  -0.002552  -0.028777
    11  C    0.000000   0.000013   0.000005   0.000154   0.000226  -0.004869
    12  C   -0.000000  -0.000010   0.000000  -0.000002  -0.000012   0.000138
    13  C    0.000000   0.000000   0.000000   0.000007   0.000008   0.000018
    14  C    0.000000  -0.000000   0.000000  -0.000017  -0.000000  -0.000006
    15  N    0.000000   0.000000   0.000000   0.000000   0.000000   0.000001
    16  H   -0.000000   0.000000   0.000000   0.000000   0.000000   0.000000
    17  H   -0.000000  -0.000001   0.000003   0.000000  -0.000000   0.000000
    18  H    0.000001   0.000009  -0.000001  -0.000000  -0.000000  -0.000000
    19  H    0.000749   0.000025  -0.000021  -0.000001   0.000000  -0.000000
    20  H   -0.000066  -0.000061   0.000041   0.000002  -0.000001   0.000000
    21  H   -0.000157  -0.006039   0.006954   0.000064   0.005823  -0.000003
    22  H   -0.004670  -0.000138   0.000420   0.007856   0.001406   0.000002
    23  H   -0.002171  -0.000128   0.004949   0.000492   0.000110   0.000001
    24  H   -0.029410   0.000001   0.000020  -0.000018   0.000018   0.000000
    25  H    0.510976   0.000003  -0.000001  -0.000021  -0.000000   0.000000
    26  H    0.000003   0.630754  -0.041974   0.005864  -0.005495   0.005296
    27  H   -0.000001  -0.041974   0.632881  -0.005015   0.006243  -0.000619
    28  H   -0.000021   0.005864  -0.005015   0.646154  -0.044933   0.006524
    29  H   -0.000000  -0.005495   0.006243  -0.044933   0.652702  -0.006054
    30  H    0.000000   0.005296  -0.000619   0.006524  -0.006054   0.635870
    31  H    0.000000  -0.000424   0.004987  -0.006424   0.006370  -0.043225
    32  H    0.000000   0.000009   0.000003   0.006894  -0.000460   0.006215
    33  H    0.000000   0.000005   0.000008  -0.000651   0.005342  -0.004865
    34  H    0.000000   0.000000  -0.000002  -0.000006   0.000011  -0.000105
    35  H    0.000000   0.000000  -0.000000   0.000001   0.000005   0.001064
    36  H   -0.000000  -0.000006   0.000002  -0.000001   0.000027   0.003042
    37  H   -0.000000   0.000000   0.000000   0.000000  -0.000000  -0.000163
    38  H    0.000000   0.000000  -0.000000   0.000001  -0.000002  -0.000000
    39  H   -0.000000   0.000000  -0.000000   0.000000  -0.000000   0.000001
    40  H   -0.000000  -0.000000   0.000000  -0.000003   0.000002   0.000001
    41  H   -0.000000  -0.000000   0.000000   0.000000   0.000000   0.000000
    42  H    0.000000   0.000000  -0.000000   0.000000  -0.000000   0.000000
    43  H    0.000000   0.000000   0.000000   0.000000   0.000000   0.000000
              31         32         33         34         35         36
     1  C    0.000000  -0.000000   0.000000  -0.000000   0.000000   0.000000
     2  C    0.000000   0.000000   0.000000   0.000000  -0.000000  -0.000000
     3  O    0.000001   0.000000   0.000000   0.000000   0.000000   0.000000
     4  C    0.000213   0.000020   0.000008   0.000000  -0.000000  -0.000000
     5  C   -0.000004  -0.000017   0.000001   0.000000   0.000000   0.000000
     6  N   -0.000000   0.000000   0.000000   0.000000   0.000000  -0.000000
     7  C   -0.002820   0.000203   0.000151   0.000004   0.000001   0.000004
     8  C   -0.031305  -0.003679  -0.002726   0.000167  -0.000059   0.000029
     9  C    0.360909  -0.032030  -0.035722  -0.004977  -0.000409  -0.000885
    10  C   -0.031607   0.352823   0.357026  -0.040969  -0.005414  -0.004767
    11  C   -0.001939  -0.024908  -0.027272   0.348168  -0.027087  -0.021492
    12  C   -0.000942   0.005510  -0.008145  -0.048430   0.370802   0.368460
    13  C    0.000213  -0.005577  -0.004295  -0.036727  -0.004997   0.003418
    14  C   -0.000021  -0.000084  -0.000832  -0.008012   0.000085  -0.000137
    15  N    0.000003   0.000071   0.000089  -0.004681   0.000038   0.000371
    16  H   -0.000000  -0.000000  -0.000000   0.000000  -0.000000  -0.000000
    17  H   -0.000000  -0.000000  -0.000000   0.000000   0.000000   0.000000
    18  H    0.000000   0.000000   0.000000   0.000000   0.000000   0.000000
    19  H    0.000000  -0.000000   0.000000  -0.000000  -0.000000   0.000000
    20  H   -0.000000  -0.000000  -0.000000   0.000000   0.000000  -0.000000
    21  H    0.000007   0.000001  -0.000003  -0.000000  -0.000000   0.000000
    22  H    0.000040  -0.000019   0.000004   0.000000   0.000000   0.000000
    23  H    0.000001   0.000001  -0.000000  -0.000000   0.000000   0.000000
[...]
 0.00000014,0.00000043,0.00000028,0.00000119,-0.00000182,0.00000020,0.0
 0000240,-0.00000035,-0.00000089,-0.00000076,0.00000016,-0.00000069,0.0
 0000181,-0.00000062,0.00000116,0.00000057,-0.00000131,-0.00000482,-0.0
 0000366,0.00000950,-0.00000284,-0.00001206,-0.00000868,0.00000087,0.00
 000436,0.00000504,0.00000567,-0.00013208,0.00005439,-0.00005237,0.0000
 8862,0.00001282,-0.00008620,-0.00056662,-0.00063902,0.00008044,0.00008
 056,-0.00016514,0.00011184,-0.00005079,-0.00007082,-0.00001316,-0.0000
 1046,0.00003534,0.00000359,-0.00300681,0.00134710,-0.00432979,-0.02015
 817,-0.07620971,0.07249016,0.00000112,-0.00000533,-0.00000259,-0.00002
 273,0.00004329,0.00002229,0.00007107,-0.00004549,-0.00003723,-0.000038
 10,0.00003379,0.00004087,-0.00001443,0.00000748,0.00002856,0.00001849,
 -0.00001181,-0.00003527,-0.00002368,-0.00002209,-0.00002283,0.00000019
 ,0.00004553,0.00002187,-0.00016220,0.00004889,0.00015114,-0.00174113,0
 .00009379,-0.00025764,0.00047759,-0.00058390,0.00030143,0.00002560,0.0
 0030035,0.00003178,0.00334959,-0.01219130,-0.00854516,-0.05317986,0.02
 837816,0.03215356,-0.00016753,0.00022990,-0.00411698,0.00000504,-0.000
 00331,-0.00000105,0.00000019,0.00000197,0.00000072,-0.00000119,0.00000
 182,0.00000069,0.00000194,-0.00000434,-0.00000660,0.00000053,-0.000005
 49,-0.00000095,0.00000120,-0.00000041,-0.00000181,0.00001501,-0.000010
 06,0.00000595,0.00000422,-0.00000084,-0.00000238,-0.00000319,0.0000028
 9,0.00000527,-0.00000675,0.00000077,-0.00000218,0.00000692,0.00000043,
 -0.00000001,0.00000616,0.00000279,-0.00000173,-0.00001350,-0.00000871,
 0.00002299,-0.00000684,0.00000136,0.00000366,0.00010767,-0.00000832,-0
 .00001279,0.00008483,0.00003773,-0.00002196,-0.00262348,-0.00005122,0.
 00013120,-0.00002614,0.00016408,0.00004339,-0.00001052,0.00018360,-0.0
 0003034,-0.00001329,0.00000795,-0.00005009,0.00002647,-0.00002323,0.00
 003707,0.00009085,-0.00003267,0.00008346,0.00059016,0.00010185,0.00062
 637,0.00063749,-0.00610629,-0.00755916,0.05705451,0.00000014,-0.000003
 36,-0.00000208,-0.00001658,0.00002985,0.00001182,0.00005321,-0.0000314
 0,-0.00001178,-0.00003112,0.00002458,0.00000682,-0.00002876,0.00000876
 ,0.00001770,0.00002602,-0.00001433,-0.00001579,-0.00001322,-0.00002615
 ,0.00000374,-0.00004297,0.00006197,-0.00000541,0.00007753,-0.00025362,
 0.00051368,0.00104157,0.00082564,-0.00113125,-0.00007952,-0.00019129,-
 0.00064022,-0.00023142,0.00006907,0.00013950,-0.00290574,0.00561885,0.
 00672588,0.02701014,-0.15337886,-0.12577003,0.00073812,0.00155542,0.00
 208372,0.00000347,-0.00000202,-0.00000069,0.00000014,0.00000122,0.0000
 0033,0.00000003,0.00000097,0.00000177,-0.00000060,-0.00000199,-0.00000
 310,0.00000036,-0.00000445,-0.00000087,0.00000109,0.00000010,-0.000000
 09,0.00001618,-0.00000899,0.00000065,0.00000422,0.00000025,-0.00000079
 ,-0.00000824,0.00000671,0.00000149,-0.00000988,0.00000092,0.00000149,0
 .00000945,0.00000049,0.00000088,0.00000132,0.00000376,-0.00000238,-0.0
 0001202,-0.00001391,0.00003471,0.00000174,-0.00001053,-0.00000049,0.00
 022906,0.00000389,-0.00000555,0.00000093,0.00002757,-0.00001409,0.0003
 4449,-0.00027255,0.00081435,-0.00000491,-0.00016925,0.00001460,0.00003
 062,0.00015797,-0.00003221,0.00000800,0.00000777,-0.00003009,-0.000057
 64,0.00000566,-0.00005796,0.00004951,-0.00000987,0.00007800,-0.0005781
 8,0.00060534,-0.00055478,0.00579668,-0.01774885,-0.02249282,-0.0317234
 8,0.16321249,0.00000025,-0.00000359,-0.00000300,-0.00002110,0.00002842
 ,0.00001650,0.00006202,-0.00002894,-0.00002337,-0.00004012,0.00001693,
 0.00002518,-0.00001030,0.00000188,0.00001664,0.00001768,-0.00000641,-0
 .00002108,-0.00001924,-0.00001209,-0.00001783,-0.00004331,0.00000434,0
 .00006102,-0.00003912,0.00003096,0.00059361,0.00081033,0.00006231,-0.0
 0060701,0.00039036,-0.00006605,-0.00025986,-0.00014522,0.00004975,0.00
 008876,0.00825489,-0.01872355,-0.01471919,0.03073516,-0.12510926,-0.19
 735888,-0.00357812,0.00085041,-0.00858880,0.00000382,-0.00000239,-0.00
 000049,0.00000100,0.00000214,0.00000029,-0.00000061,0.00000081,0.00000
 149,0.00000123,-0.00000311,-0.00000440,0.00000178,-0.00000231,-0.00000
 207,0.00000163,0.00000488,-0.00000043,0.00001040,-0.00000851,0.0000037
 5,0.00000467,0.00000166,-0.00000176,-0.00000465,0.00000139,0.00000426,
 -0.00000719,0.00000046,-0.00000199,0.00000203,0.00000037,-0.00000158,0
 .00000789,0.00000527,-0.00000128,-0.00001128,-0.00000046,0.00001138,-0
 .00000930,0.00001261,0.00000192,0.00025431,-0.00002728,0.00000692,0.00
 011508,0.00005441,-0.00002581,0.00054366,-0.00043964,0.00110308,-0.000
 19034,0.00034410,-0.00009690,0.00004229,0.00008797,0.00005319,-0.00001
 452,0.00006530,-0.00001361,-0.00007519,0.00003726,-0.00000427,0.000308
 33,-0.00010801,0.00020338,0.00053077,0.00059418,0.00085022,-0.00193313
 ,0.00656844,0.00784928,-0.03652532,0.13871319,0.21450254,-0.00000170,0
 .00000694,0.00000235,0.00003235,-0.00005877,-0.00003180,-0.00009818,0.
 00006252,0.00005279,0.00005048,-0.00004617,-0.00005487,0.00001446,-0.0
 0000797,-0.00003823,-0.00002525,0.00001554,0.00004692,0.00002906,0.000
 03407,0.00005319,-0.00005265,-0.00004647,-0.00005421,0.00010825,0.0000
 9977,-0.00004100,0.00035184,-0.00044584,-0.00014050,0.00065452,0.00207
 043,-0.00309697,-0.00098874,-0.00032094,0.00062539,-0.01794208,0.00002
 672,0.00440062,-0.29634671,0.00101761,0.04977308,0.00271957,-0.0003173
 9,0.00175456,-0.00000688,0.00000513,0.00000186,-0.00000024,-0.00000304
 ,-0.00000112,0.00000194,-0.00000284,-0.00000046,-0.00000265,0.00000594
 ,0.00000957,-0.00000116,0.00000708,0.00000135,-0.00000217,0.00000134,0
 .00000276,-0.00001970,0.00001230,-0.00000583,-0.00000423,0.00000075,0.
 00000270,0.00000488,-0.00000364,-0.00000665,0.00001057,-0.00000140,0.0
 0000336,-0.00000027,-0.00000282,-0.00000022,-0.00000317,-0.00000201,-0
 .00000073,0.00001022,-0.00000095,0.00000100,0.00000059,0.00001323,0.00
 000498,-0.00006162,-0.00000570,-0.00001128,-0.00000673,-0.00001144,0.0
 0000543,-0.00005528,0.00005932,-0.00027104,-0.00004387,0.00010717,-0.0
 0001683,0.00023242,-0.00010748,0.00006386,-0.00001754,0.00007749,-0.00
 004654,-0.00019025,0.00016194,-0.00039419,-0.00002005,-0.00001891,-0.0
 0013155,0.00066274,0.00040623,-0.00018539,-0.00805437,0.00043341,0.001
 53353,-0.00457336,-0.00010535,0.00086803,0.32337654,0.00000037,-0.0000
 0200,-0.00000074,-0.00000716,0.00001503,0.00000788,0.00002515,-0.00001
 565,-0.00001651,-0.00001176,0.00001356,0.00001923,0.00000039,-0.000001
 24,0.00000768,0.00000417,-0.00000053,-0.00001210,-0.00001032,-0.000014
 68,-0.00002117,0.00001956,0.00001536,0.00003122,-0.00004451,-0.0000528
 4,0.00013909,0.00030173,0.00032301,0.00006531,-0.00003485,-0.00021541,
 0.00115957,0.00046993,0.00048483,-0.00005748,0.01025500,-0.00097064,-0
 .00229340,0.00142164,-0.04653210,0.00018531,-0.00060232,-0.00040343,-0
 .00074789,0.00000183,-0.00000116,-0.00000044,0.00000013,0.00000066,0.0
 0000027,-0.00000055,0.00000072,0.00000006,0.00000098,-0.00000183,-0.00
 000249,0.00000013,-0.00000173,-0.00000026,0.00000017,0.00000069,-0.000
 00080,0.00000227,-0.00000405,0.00000213,0.00000301,0.00000001,-0.00000
 116,-0.00000066,0.00000055,0.00000231,-0.00000182,-0.00000041,-0.00000
 192,-0.00000112,0.00000322,-0.00000063,0.00000519,0.00000233,0.0000009
 3,-0.00000727,-0.00000544,-0.00000812,-0.00000550,0.00000425,-0.000002
 68,0.00006860,0.00001694,0.00000716,0.00005154,0.00002320,0.00000537,0
 .00001086,-0.00030982,0.00014729,-0.00013966,0.00010054,-0.00008697,0.
 00048490,0.00028077,0.00013678,-0.00005848,0.00000319,-0.00007753,0.00
 010581,-0.00008732,0.00016493,-0.00000206,-0.00001787,0.00003010,-0.00
 001245,0.00015837,-0.00059116,-0.02985230,0.00059948,0.00589851,0.0207
 8390,-0.00030555,-0.00354536,-0.00267017,0.04646442,0.00000040,-0.0000
 0247,-0.00000179,-0.00001299,0.00002257,0.00001091,0.00003983,-0.00002
 359,-0.00001301,-0.00002679,0.00001505,0.00001059,-0.00001586,0.000007
 97,0.00001643,0.00001478,-0.00001030,-0.00001725,-0.00001001,-0.000008
 21,0.00000578,-0.00005324,0.00002421,0.00000123,0.00002944,-0.00010720
 ,0.00042553,0.00057648,0.00017671,-0.00112665,-0.00090350,0.00162646,-
 0.00516506,-0.00171843,-0.00032657,0.00052728,-0.02905201,-0.00076463,
 0.00248986,0.05114102,-0.00050453,-0.05463281,-0.00047306,0.00069002,0
 .00340128,0.00000264,-0.00000175,-0.00000050,0.00000010,0.00000105,0.0
 0000045,-0.00000020,0.00000085,0.00000099,0.00000034,-0.00000188,-0.00
 000290,0.00000029,-0.00000313,-0.00000076,0.00000090,0.00000043,-0.000
 00036,0.00001117,-0.00000633,0.00000216,0.00000215,-0.00000026,-0.0000
 0097,-0.00000392,0.00000326,0.00000267,-0.00000518,0.00000091,0.000000
 61,0.00000796,-0.00000104,-0.00000056,0.00000266,0.00000193,-0.0000018
 2,-0.00001213,-0.00000882,0.00003349,-0.00000342,0.00000219,0.00000155
 ,0.00020088,-0.00001473,-0.00002374,0.00003642,0.00002391,-0.00002283,
 0.00019369,-0.00037103,0.00077974,-0.00004523,0.00004613,0.00004815,0.
 00000980,-0.00012313,-0.00000596,0.00001402,0.00006823,-0.00002964,-0.
 00033941,0.00028134,-0.00049139,-0.00002247,-0.00000495,0.00006581,0.0
 0089850,-0.00024641,0.00100301,0.00851389,-0.00084589,-0.00267017,0.02
 375970,0.00106238,-0.00467722,-0.05314527,-0.00048735,0.06110483,0.000
 00091,-0.00000150,0.00000066,-0.00000750,0.00001815,0.00001056,0.00001
 890,-0.00001862,-0.00002005,-0.00001015,0.00001392,0.00002180,0.000006
 21,0.00000169,0.00001200,0.00000140,-0.00000277,-0.00001690,-0.0000064
 0,0.00000253,-0.00001535,0.00000578,-0.00000894,0.00002019,-0.00002395
 ,-0.00002049,-0.00001185,-0.00032998,-0.00033316,0.00036495,0.00193152
 ,0.00275101,-0.00054914,-0.00068804,-0.00023347,-0.00015863,0.00169613
 ,0.00993780,-0.00571026,-0.00018119,-0.00035611,0.00038538,-0.05158267
 ,-0.03076047,0.02649587,0.00000185,-0.00000199,-0.00000098,-0.00000048
 ,0.00000054,0.00000093,-0.00000100,0.00000148,-0.00000123,0.00000126,-
 0.00000206,-0.00000361,-0.00000035,-0.00000272,0.00000028,0.00000032,-
 0.00000409,-0.00000283,0.00000252,-0.00000141,0.00000193,-0.00000103,-
 0.00000142,-0.00000030,0.00000057,-0.00000115,0.00000190,-0.00000082,0
 .00000078,-0.00000203,-0.00000400,0.00000335,-0.00000094,-0.00000180,-
 0.00000466,0.00000407,0.00000108,0.00000673,-0.00001633,0.00000575,-0.
 00001252,-0.00001126,-0.00003110,0.00000229,-0.00000216,-0.00006225,-0
 .00003649,0.00002546,0.00004072,0.00002872,-0.00011269,0.00000157,-0.0
 0030565,-0.00017150,-0.00053400,-0.00104237,0.00059249,0.00014599,-0.0
 0029109,-0.00001418,-0.00013710,0.00005277,0.00002223,0.00014695,0.000
 35712,-0.00010764,-0.00011047,0.00220491,0.00212429,0.00032160,-0.0002
 8620,-0.00010703,-0.00004297,0.00034388,0.00021976,-0.00025504,-0.0003
 0704,-0.00009986,0.05780409,-0.00000039,0.00000121,0.00000035,0.000005
 08,-0.00001096,-0.00000471,-0.00001668,0.00001194,0.00000757,0.0000084
 9,-0.00000979,-0.00000749,0.00000434,-0.00000192,-0.00000646,-0.000004
 23,0.00000399,0.00000707,0.00000633,0.00000303,0.00000974,-0.00001089,
 -0.00000551,-0.00000598,0.00006168,0.00007004,-0.00001828,0.00008804,0
 .00041097,-0.00015773,-0.00064587,0.00040340,0.00060271,0.00028236,-0.
 00006001,0.00003221,-0.00181287,-0.02513792,0.00752987,-0.00035123,0.0
 0233336,0.00106814,-0.06452801,-0.38687047,0.05751501,-0.00000113,0.00
 000097,0.00000053,0.00000015,-0.00000039,-0.00000017,0.00000013,-0.000
 00061,-0.00000042,-0.00000018,0.00000100,0.00000125,0.00000001,0.00000
 156,0.00000030,-0.00000043,0.00000069,0.00000053,-0.00000412,0.0000021
 7,-0.00000066,-0.00000066,0.00000027,0.00000022,0.00000057,-0.00000194
 ,-0.00000074,0.00000196,0.00000015,0.,-0.00000149,-0.00000017,-0.00000
 087,-0.00000116,0.00000004,-0.00000040,0.00000071,0.00000163,-0.000002
 74,-0.00000082,0.00000040,0.00000135,-0.00001454,-0.00000145,-0.000008
 27,0.00002572,-0.00000435,-0.00001646,0.00003254,-0.00000411,-0.000031
 53,-0.00015411,0.00016984,0.00023278,0.00110139,0.00048780,-0.00026543
 ,-0.00013451,0.00017515,-0.00003058,0.00003474,-0.00000235,-0.00003148
 ,0.00009569,-0.00023267,0.00004121,0.00208282,-0.00095595,-0.00464684,
 -0.00050229,0.00036673,-0.00104616,0.00028636,0.00032546,0.00061307,-0
 .00022046,-0.00000258,-0.00020891,0.06040494,0.41441000,-0.00000022,0.
 00000319,0.00000260,0.00001688,-0.00002273,-0.00001075,-0.00005109,0.0
 0002483,0.00001186,0.00002813,-0.00001585,-0.00000981,0.00001892,-0.00
 000553,-0.00001403,-0.00001927,0.00001052,0.00001321,0.00001231,0.0000
 1324,0.00001771,-0.00003512,-0.00001657,-0.00000354,0.00004876,0.00010
 749,-0.00000261,-0.00013773,-0.00007072,-0.00015240,-0.00106055,-0.000
 09417,0.00104053,-0.00042865,-0.00004990,0.00008622,-0.00509348,-0.035
 48016,0.00021132,-0.00065742,-0.00170481,0.00207330,0.03972812,0.09621
 110,-0.04793643,-0.00000288,0.00000167,0.00000029,-0.00000072,-0.00000
 188,0.00000018,0.00000016,-0.00000037,-0.00000215,-0.00000011,0.000001
 82,0.00000255,-0.00000151,0.00000223,0.00000156,-0.00000170,-0.0000028
 8,-0.00000099,-0.00001257,0.00000661,-0.00000092,-0.00000270,-0.000001
 21,0.00000102,0.00000545,-0.00000446,-0.00000189,0.00000783,-0.0000006
 0,-0.00000100,-0.00000486,0.00000360,-0.00000242,-0.00000245,-0.000005
 19,0.00000296,0.00000347,0.00000335,-0.00001577,-0.00000100,-0.0000026
 4,-0.00000124,-0.00004751,0.00001535,-0.00000306,0.00001749,-0.0000167
 4,0.00000586,0.00006671,0.00000241,-0.00014123,0.00002339,0.00013809,0
 .00003017,0.00030871,0.00058174,0.00019349,0.00005877,-0.00008267,-0.0
 0023156,-0.00010997,0.00006389,0.00009311,0.00011576,0.00044145,-0.000
 12438,0.00164949,-0.00320442,-0.00368623,0.00034337,0.00071117,-0.0004
 5324,0.00023782,0.00067229,0.00025769,-0.00016068,0.00006588,-0.000192
 54,-0.03157012,-0.06482570,0.05251831,-0.00000111,0.00000531,0.0000025
 6,0.00002123,-0.00004167,-0.00002017,-0.00007167,0.00004666,0.00003905
 ,0.00002435,-0.00003769,-0.00004620,0.00000583,-0.00000170,-0.00002338
 ,-0.00001578,0.00000832,0.00002998,0.00002773,0.00004113,0.00008681,-0
 .00017372,-0.00007017,-0.00006832,0.00011609,0.00020977,0.00044787,-0.
 00083416,-0.00035221,-0.00075285,0.00042371,0.00297104,0.00248754,0.00
 017362,-0.00011782,0.00038819,-0.01212669,-0.00130272,-0.00540498,0.00
 165008,-0.00118865,-0.00110422,-0.40665138,-0.05544833,0.07732638,-0.0
 0000489,0.00000337,0.00000111,-0.00000028,-0.00000211,-0.00000074,0.00
 000115,-0.00000187,-0.00000087,-0.00000208,0.00000461,0.00000613,-0.00
 000076,0.00000483,0.00000114,-0.00000120,0.00000120,0.00000153,-0.0000
 1099,0.00000761,-0.00000386,-0.00000337,0.00000003,0.00000198,0.000003
 04,-0.00000209,-0.00000416,0.00000678,-0.00000044,0.00000296,0.0000010
 9,-0.00000042,-0.00000252,-0.00000331,-0.00000361,-0.00000070,0.000005
 96,-0.00000536,0.00001352,0.00000392,0.00000934,-0.00000150,0.00003021
 ,-0.00000150,-0.00001573,0.00000159,-0.00001842,-0.00000961,0.00002869
 ,-0.00002445,0.00014611,-0.00002795,0.00011345,0.00005164,0.00048968,0
 .00003498,-0.00017210,-0.00012780,0.00015783,0.00007438,-0.00003574,0.
 00005327,-0.00000109,0.00014822,-0.00015238,0.00029301,0.00049023,0.00
 042063,-0.00022681,-0.00004405,0.00003422,0.00003312,0.00009403,0.0000
 6169,-0.00051935,0.00051344,-0.00024729,0.00048592,-0.00812285,0.00388
 203,-0.00328926,0.42399912,0.00000100,-0.00000499,-0.00000309,-0.00001
 704,0.00004045,0.00001654,0.00006652,-0.00004579,-0.00003325,-0.000016
 15,0.00003903,0.00003776,-0.00000831,0.00000216,0.00002089,0.00001531,
 -0.00000897,-0.00002518,-0.00001995,-0.00005025,-0.00009663,0.00021098
 ,0.00006307,0.00005881,-0.00005206,-0.00030620,-0.00052138,0.00167498,
 0.00073375,0.00014044,0.00026044,-0.00301381,-0.00372940,0.00001570,0.
 00013710,-0.00039891,0.02321944,0.00270686,-0.00168847,-0.00005385,-0.
 00029754,0.00004003,-0.03393066,-0.05918875,-0.00698378,0.00000459,-0.
 00000275,-0.00000099,-0.00000014,0.00000127,0.00000077,-0.00000062,0.0
 0000175,0.00000142,0.00000135,-0.00000410,-0.00000505,-0.00000033,-0.0
 0000583,-0.00000065,0.00000086,-0.00000234,-0.00000100,0.00001116,-0.0
 0000690,0.00000300,0.00000254,-0.00000047,-0.00000177,-0.00000340,0.00
 000325,0.00000288,-0.00000604,0.00000033,-0.00000187,0.00000029,-0.000
 00061,0.00000336,0.00000097,0.00000339,0.00000010,-0.00000741,0.000004
 92,-0.00000352,-0.00000368,-0.00001507,-0.00000046,0.00000926,-0.00000
 879,0.00002065,-0.00001017,0.00002167,0.00000006,-0.00003796,0.0000143
 8,-0.00001711,-0.00005548,-0.00002917,0.00009999,0.00011842,0.00050553
 ,-0.00007541,0.00008698,-0.00012517,-0.00004062,0.00007044,-0.00007152
 ,0.00004369,-0.00020164,0.00007257,-0.00010380,0.00016206,0.00010089,0
 .00063374,-0.00021623,0.00001278,0.00012371,0.00007964,-0.00010773,-0.
 00006555,-0.00022517,0.00043514,0.00001753,-0.04209622,-0.00587868,0.0
 0652727,0.05094957,0.06427516,-0.00000049,0.00000153,0.00000095,0.0000
 1663,-0.00002181,-0.00001049,-0.00003828,0.00001987,0.00000552,0.00003
 919,-0.00000532,0.00000331,0.00001749,-0.00000911,-0.00001335,-0.00001
 855,0.00001266,0.00001184,0.00000585,-0.00001581,-0.00004675,0.0001567
 4,0.00000961,0.00005368,-0.00009327,-0.00021032,-0.00038408,0.00143086
 ,0.00006434,0.00058088,-0.00022686,-0.00312889,-0.00462395,-0.00066655
 ,0.00027210,-0.00008190,0.03303840,0.00239412,-0.01100528,0.00212234,0
 .00090364,0.00126544,0.02894680,-0.01009469,-0.02580939,-0.00000248,0.
 00000225,0.00000120,-0.00000006,-0.00000130,-0.00000049,0.00000024,-0.
 00000116,-0.00000166,0.00000060,0.00000107,0.00000239,-0.00000062,0.00
 000305,0.00000096,-0.00000181,-0.00000144,0.00000032,-0.00001245,0.000
 00619,0.,-0.00000101,-0.00000033,0.00000023,0.00000612,-0.00000503,-0.
 00000142,0.00000729,-0.00000115,-0.00000241,-0.00000480,-0.00000052,-0
 .00000129,-0.00000099,0.00000132,0.00000059,-0.00000314,0.00001223,-0.
 00000621,-0.00000144,-0.00000080,0.00000733,0.00000536,-0.00002130,0.0
 0001396,-0.00000526,0.00002201,0.00000050,-0.00002647,0.00010283,-0.00
 006929,-0.00001281,-0.00004011,0.00001130,-0.00030805,0.00003818,-0.00
 008712,-0.00013129,0.00021923,0.00019042,-0.00010814,0.00012293,0.0001
 0205,0.00039913,-0.00033328,0.00069451,-0.00069506,0.00030935,0.001141
 91,-0.00013513,-0.00003819,-0.00006424,-0.00047571,-0.00012651,0.00077
 974,-0.00137195,-0.00012080,-0.00085446,0.00840212,0.00365411,-0.00357
 574,-0.07025251,0.00600524,0.04177049\\0.00000378,-0.00000427,-0.00000
 029,-0.00000786,0.00001113,0.00000943,0.00001632,-0.00000384,-0.000010
 82,-0.00000862,0.00000298,0.00000130,0.00000681,-0.00000816,0.00000755
 ,0.00000332,0.00000274,0.00000498,-0.00000727,-0.00000391,0.00000014,0
 .00000239,0.00000177,0.00000031,0.00000082,-0.00000118,-0.00000273,-0.
 00000196,0.00000302,0.00000369,0.00000127,-0.00000293,-0.00000130,0.00
 000053,0.00000357,-0.00000125,0.00000107,0.00000105,0.00000456,0.00000
 133,-0.00000241,-0.00000127,-0.00000125,-0.00000023,-0.00000157,-0.000
 00078,0.00000147,-0.00000069,-0.00000078,0.00000048,0.00000061,-0.0000
 0025,-0.00000031,0.00000033,0.00000148,-0.00000053,-0.00000231,-0.0000
 0121,-0.00000072,-0.00000028,-0.00000163,0.,-0.00000220,-0.00000330,0.
 00000337,-0.00000083,-0.00000213,0.00000211,-0.00000154,-0.00000184,-0
 .00000117,-0.00000098,-0.00000094,0.00000131,-0.00000390,0.00000015,-0
 .00000125,-0.00000040,0.00000227,0.00000007,-0.00000020,-0.00000060,-0
 .00000118,0.00000003,0.00000152,-0.00000018,-0.00000041,-0.00000004,0.
 00000041,-0.00000160,-0.00000066,-0.00000029,-0.00000029,0.00000211,-0
 .00000025,-0.00000035,0.00000028,0.00000016,-0.00000118,0.00000059,0.0
 0000077,0.00000099,-0.00000118,-0.00000167,0.00000119,-0.00000223,-0.0
 0000075,-0.00000039,0.00000005,-0.00000215,0.00000088,-0.00000056,-0.0
 0000046,-0.00000032,0.00000064,0.00000049,0.00000066,-0.00000179,0.000
 00133,-0.00000110,0.00000098,0.00000006,0.00000047,-0.00000110,-0.0000
 0002,0.00000005,0.00000028,-0.00000043,0.00000102\\\@


 HE WHO LAUGHS LAST PROBABLY DIDN'T GET THE JOKE.
 Job cpu time:       0 days 11 hours 57 minutes 18.4 seconds.
 Elapsed time:       0 days  2 hours 59 minutes 21.5 seconds.
 File lengths (MBytes):  RWF=    934 Int=      0 D2E=      0 Chk=     27 Scr=      1
 Normal termination of Gaussian 16 at Wed May 24 15:54:13 2023.
### All Done ###
