### Starting Gaussian ###
 Entering Gaussian System, Link 0=g16
 Initial command:
 /cluster/software/gaussian/gaussian-16-A.03/avx2/g16/l1.exe "/local/scratch/yxie/Gau-8410.inp" -scrdir="/local/scratch/yxie/"
 Entering Link 1 = /cluster/software/gaussian/gaussian-16-A.03/avx2/g16/l1.exe PID=      8411.
  
 Copyright (c) 1988,1990,1992,1993,1995,1998,2003,2009,2016,
            Gaussian, Inc.  All Rights Reserved.
  
 This is part of the Gaussian(R) 16 program.  It is based on
 the Gaussian(R) 09 system (copyright 2009, Gaussian, Inc.),
 the Gaussian(R) 03 system (copyright 2003, Gaussian, Inc.),
 the Gaussian(R) 98 system (copyright 1998, Gaussian, Inc.),
 the Gaussian(R) 94 system (copyright 1995, Gaussian, Inc.),
 the Gaussian 92(TM) system (copyright 1992, Gaussian, Inc.),
 the Gaussian 90(TM) system (copyright 1990, Gaussian, Inc.),
 the Gaussian 88(TM) system (copyright 1988, Gaussian, Inc.),
 the Gaussian 86(TM) system (copyright 1986, Carnegie Mellon
 University), and the Gaussian 82(TM) system (copyright 1983,
 Carnegie Mellon University). Gaussian is a federally registered
 trademark of Gaussian, Inc.
  
 This software contains proprietary and confidential information,
 including trade secrets, belonging to Gaussian, Inc.
  
 This software is provided under written license and may be
 used, copied, transmitted, or stored only in accord with that
 written license.
  
 The following legend is applicable only to US Government
 contracts under FAR:
  
                    RESTRICTED RIGHTS LEGEND
  
 Use, reproduction and disclosure by the US Government is
 subject to restrictions as set forth in subparagraphs (a)
 and (c) of the Commercial Computer Software - Restricted
 Rights clause in FAR 52.227-19.
  
 Gaussian, Inc.
 340 Quinnipiac St., Bldg. 40, Wallingford CT 06492
  
  
 ---------------------------------------------------------------
 Warning -- This program may not be used in any manner that
 competes with the business of Gaussian, Inc. or will provide
 assistance to any competitor of Gaussian, Inc.  The licensee
 of this program is prohibited from giving any competitor of
 Gaussian, Inc. access to this program.  By using this program,
 the user acknowledges that Gaussian, Inc. is engaged in the
 business of creating and licensing software in the field of
 computational chemistry and represents and warrants to the
 licensee that it is not a competitor of Gaussian, Inc. and that
 it will not use this program in any manner prohibited above.
 ---------------------------------------------------------------
  

 Cite this work as:
 Gaussian 16, Revision A.03,
 M. J. Frisch, G. W. Trucks, H. B. Schlegel, G. E. Scuseria, 
 M. A. Robb, J. R. Cheeseman, G. Scalmani, V. Barone, 
 G. A. Petersson, H. Nakatsuji, X. Li, M. Caricato, A. V. Marenich, 
 J. Bloino, B. G. Janesko, R. Gomperts, B. Mennucci, H. P. Hratchian, 
 J. V. Ortiz, A. F. Izmaylov, J. L. Sonnenberg, D. Williams-Young, 
 F. Ding, F. Lipparini, F. Egidi, J. Goings, B. Peng, A. Petrone, 
 T. Henderson, D. Ranasinghe, V. G. Zakrzewski, J. Gao, N. Rega, 
 G. Zheng, W. Liang, M. Hada, M. Ehara, K. Toyota, R. Fukuda, 
 J. Hasegawa, M. Ishida, T. Nakajima, Y. Honda, O. Kitao, H. Nakai, 
 T. Vreven, K. Throssell, J. A. Montgomery, Jr., J. E. Peralta, 
 F. Ogliaro, M. J. Bearpark, J. J. Heyd, E. N. Brothers, K. N. Kudin, 
 V. N. Staroverov, T. A. Keith, R. Kobayashi, J. Normand, 
 K. Raghavachari, A. P. Rendell, J. C. Burant, S. S. Iyengar, 
 J. Tomasi, M. Cossi, J. M. Millam, M. Klene, C. Adamo, R. Cammi, 
 J. W. Ochterski, R. L. Martin, K. Morokuma, O. Farkas, 
 J. B. Foresman, and D. J. Fox, Gaussian, Inc., Wallingford CT, 2016.
 
 ******************************************
 Gaussian 16:  ES64L-G16RevA.03 25-Dec-2016
                22-May-2023 
 ******************************************
 %chk=CCOCqOrCqOCrCqCrCCdO.chk
 %NProcShared=20
 Will use up to   20 processors via shared memory.
 -----------------------------
 # opt freq b3lyp/6-31g(2df,p)
 -----------------------------
 1/18=20,19=15,26=3,38=1/1,3;
 2/9=110,12=2,17=6,18=5,40=1/2;
 3/5=1,6=6,7=104,11=2,25=1,30=1,71=1,74=-5/1,2,3;
 4//1;
 5/5=2,38=5/2;
 6/7=2,8=2,9=2,10=2,28=1/1;
 7//1,2,3,16;
 1/18=20,19=15,26=3/3(2);
 2/9=110/2;
 99//99;
 2/9=110/2;
 3/5=1,6=6,7=104,11=2,25=1,30=1,71=1,74=-5/1,2,3;
 4/5=5,16=3,69=1/1;
 5/5=2,38=5/2;
 7//1,2,3,16;
 1/18=20,19=15,26=3/3(-5);
 2/9=110/2;
 6/7=2,8=2,9=2,10=2,19=2,28=1/1;
 99/9=1/99;
 -------------------
 Title Card Required
 -------------------
 Symbolic Z-matrix:
 Charge =  0 Multiplicity = 1
 C                     1.01161   0.01014  -0.08685 
 C                     2.51724   0.08322  -0.07201 
 O                     3.00572  -1.20943   0.26366 
 C                     4.42054  -1.25384   0.17937 
 O                     4.85715  -0.39699   1.21454 
 C                     4.94693  -2.71654   0.33095 
 O                     4.49436  -3.56626  -0.75151 
 C                     3.07537  -3.72239  -0.80637 
 C                     6.51183  -2.76416   0.35191 
 C                     7.10564  -1.89716   1.47369 
 C                     7.01853  -4.21137   0.51082 
 C                     8.5272   -4.29381   0.48494 
 O                     9.14675  -5.33903   0.68884 
 H                     0.58932   1.00367  -0.24757 
 H                     0.6407   -0.39545   0.86002 
 H                     0.66941  -0.66189  -0.88027 
 H                     2.84078   0.8028    0.68637 
 H                     2.89755   0.39074  -1.05243 
 H                     4.75234  -0.87211  -0.79546 
 H                     4.57038  -0.83582   2.03265 
 H                     4.57607  -3.14612   1.27113 
 H                     2.8212   -4.47916  -1.55178 
 H                     2.59466  -2.80768  -1.15665 
 H                     2.67579  -4.0277    0.16629 
 H                     6.87879  -2.38964  -0.61461 
 H                     6.69247  -2.19458   2.44306 
 H                     6.9275   -0.83503   1.31139 
 H                     8.19269  -1.95627   1.53387 
 H                     6.65045  -4.84468  -0.30281 
 H                     6.67125  -4.62476   1.46435 
 H                     9.07792  -3.36497   0.26719 
 

 GradGradGradGradGradGradGradGradGradGradGradGradGradGradGradGradGradGrad
 Berny optimization.
 Initialization pass.
                           ----------------------------
                           !    Initial Parameters    !
                           ! (Angstroms and Degrees)  !
 --------------------------                            --------------------------
 ! Name  Definition              Value          Derivative Info.                !
 --------------------------------------------------------------------------------
 ! R1    R(1,2)                  1.5075         estimate D2E/DX2                !
 ! R2    R(1,14)                 1.0914         estimate D2E/DX2                !
 ! R3    R(1,15)                 1.0948         estimate D2E/DX2                !
 ! R4    R(1,16)                 1.0946         estimate D2E/DX2                !
 ! R5    R(2,3)                  1.4221         estimate D2E/DX2                !
 ! R6    R(2,17)                 1.0944         estimate D2E/DX2                !
 ! R7    R(2,18)                 1.0956         estimate D2E/DX2                !
 ! R8    R(3,4)                  1.418          estimate D2E/DX2                !
 ! R9    R(4,5)                  1.4129         estimate D2E/DX2                !
 ! R10   R(4,6)                  1.5619         estimate D2E/DX2                !
 ! R11   R(4,19)                 1.0982         estimate D2E/DX2                !
 ! R12   R(5,20)                 0.9717         estimate D2E/DX2                !
 ! R13   R(6,7)                  1.4486         estimate D2E/DX2                !
 ! R14   R(6,9)                  1.5658         estimate D2E/DX2                !
 ! R15   R(6,21)                 1.0982         estimate D2E/DX2                !
 ! R16   R(7,8)                  1.4286         estimate D2E/DX2                !
 ! R17   R(8,22)                 1.0922         estimate D2E/DX2                !
 ! R18   R(8,23)                 1.0911         estimate D2E/DX2                !
 ! R19   R(8,24)                 1.095          estimate D2E/DX2                !
 ! R20   R(9,10)                 1.5371         estimate D2E/DX2                !
 ! R21   R(9,11)                 1.5416         estimate D2E/DX2                !
 ! R22   R(9,25)                 1.0996         estimate D2E/DX2                !
 ! R23   R(10,26)                1.0949         estimate D2E/DX2                !
 ! R24   R(10,27)                1.0891         estimate D2E/DX2                !
 ! R25   R(10,28)                1.0903         estimate D2E/DX2                !
 ! R26   R(11,12)                1.5111         estimate D2E/DX2                !
 ! R27   R(11,29)                1.0948         estimate D2E/DX2                !
 ! R28   R(11,30)                1.0958         estimate D2E/DX2                !
 ! R29   R(12,13)                1.232          estimate D2E/DX2                !
 ! R30   R(12,31)                1.1016         estimate D2E/DX2                !
 ! A1    A(2,1,14)             110.1058         estimate D2E/DX2                !
 ! A2    A(2,1,15)             110.3538         estimate D2E/DX2                !
 ! A3    A(2,1,16)             110.434          estimate D2E/DX2                !
 ! A4    A(14,1,15)            109.4814         estimate D2E/DX2                !
 ! A5    A(14,1,16)            109.3394         estimate D2E/DX2                !
 ! A6    A(15,1,16)            107.0691         estimate D2E/DX2                !
 ! A7    A(1,2,3)              107.5381         estimate D2E/DX2                !
 ! A8    A(1,2,17)             109.5106         estimate D2E/DX2                !
 ! A9    A(1,2,18)             110.5782         estimate D2E/DX2                !
 ! A10   A(3,2,17)             109.4249         estimate D2E/DX2                !
 ! A11   A(3,2,18)             110.3115         estimate D2E/DX2                !
 ! A12   A(17,2,18)            109.4472         estimate D2E/DX2                !
 ! A13   A(2,3,4)              110.9262         estimate D2E/DX2                !
 ! A14   A(3,4,5)              104.2273         estimate D2E/DX2                !
 ! A15   A(3,4,6)              111.0889         estimate D2E/DX2                !
 ! A16   A(3,4,19)             110.0791         estimate D2E/DX2                !
 ! A17   A(5,4,6)              113.1208         estimate D2E/DX2                !
 ! A18   A(5,4,19)             110.2533         estimate D2E/DX2                !
 ! A19   A(6,4,19)             108.0492         estimate D2E/DX2                !
 ! A20   A(4,5,20)             104.5828         estimate D2E/DX2                !
 ! A21   A(4,6,7)              111.8083         estimate D2E/DX2                !
 ! A22   A(4,6,9)              111.5068         estimate D2E/DX2                !
 ! A23   A(4,6,21)             109.609          estimate D2E/DX2                !
 ! A24   A(7,6,9)              107.7221         estimate D2E/DX2                !
 ! A25   A(7,6,21)             107.744          estimate D2E/DX2                !
 ! A26   A(9,6,21)             108.31           estimate D2E/DX2                !
 ! A27   A(6,7,8)              113.7725         estimate D2E/DX2                !
 ! A28   A(7,8,22)             109.4555         estimate D2E/DX2                !
 ! A29   A(7,8,23)             110.997          estimate D2E/DX2                !
 ! A30   A(7,8,24)             111.0283         estimate D2E/DX2                !
 ! A31   A(22,8,23)            105.0251         estimate D2E/DX2                !
 ! A32   A(22,8,24)            109.1551         estimate D2E/DX2                !
 ! A33   A(23,8,24)            110.9871         estimate D2E/DX2                !
 ! A34   A(6,9,10)             112.2543         estimate D2E/DX2                !
 ! A35   A(6,9,11)             111.0046         estimate D2E/DX2                !
 ! A36   A(6,9,25)             108.1446         estimate D2E/DX2                !
 ! A37   A(10,9,11)            109.1059         estimate D2E/DX2                !
 ! A38   A(10,9,25)            108.6899         estimate D2E/DX2                !
 ! A39   A(11,9,25)            107.4979         estimate D2E/DX2                !
 ! A40   A(9,10,26)            110.3116         estimate D2E/DX2                !
 ! A41   A(9,10,27)            112.2176         estimate D2E/DX2                !
 ! A42   A(9,10,28)            113.2573         estimate D2E/DX2                !
 ! A43   A(26,10,27)           109.5795         estimate D2E/DX2                !
 ! A44   A(26,10,28)           108.2177         estimate D2E/DX2                !
 ! A45   A(27,10,28)           102.9539         estimate D2E/DX2                !
 ! A46   A(9,11,12)            112.1854         estimate D2E/DX2                !
 ! A47   A(9,11,29)            110.8518         estimate D2E/DX2                !
 ! A48   A(9,11,30)            109.8586         estimate D2E/DX2                !
 ! A49   A(12,11,29)           106.9403         estimate D2E/DX2                !
 ! A50   A(12,11,30)           108.1033         estimate D2E/DX2                !
 ! A51   A(29,11,30)           108.7792         estimate D2E/DX2                !
 ! A52   A(11,12,13)           123.0584         estimate D2E/DX2                !
 ! A53   A(11,12,31)           117.1621         estimate D2E/DX2                !
 ! A54   A(13,12,31)           119.7789         estimate D2E/DX2                !
 ! D1    D(14,1,2,3)           174.6636         estimate D2E/DX2                !
 ! D2    D(14,1,2,17)           55.847          estimate D2E/DX2                !
 ! D3    D(14,1,2,18)          -64.8384         estimate D2E/DX2                !
 ! D4    D(15,1,2,3)            53.6932         estimate D2E/DX2                !
 ! D5    D(15,1,2,17)          -65.1234         estimate D2E/DX2                !
 ! D6    D(15,1,2,18)          174.1912         estimate D2E/DX2                !
 ! D7    D(16,1,2,3)           -64.4912         estimate D2E/DX2                !
 ! D8    D(16,1,2,17)          176.6921         estimate D2E/DX2                !
 ! D9    D(16,1,2,18)           56.0068         estimate D2E/DX2                !
 ! D10   D(1,2,3,4)            174.6798         estimate D2E/DX2                !
 ! D11   D(17,2,3,4)           -66.4485         estimate D2E/DX2                !
 ! D12   D(18,2,3,4)            54.0136         estimate D2E/DX2                !
 ! D13   D(2,3,4,5)             66.5744         estimate D2E/DX2                !
 ! D14   D(2,3,4,6)           -171.2881         estimate D2E/DX2                !
 ! D15   D(2,3,4,19)           -51.6493         estimate D2E/DX2                !
 ! D16   D(3,4,5,20)            65.2831         estimate D2E/DX2                !
 ! D17   D(6,4,5,20)           -55.5057         estimate D2E/DX2                !
 ! D18   D(19,4,5,20)         -176.6127         estimate D2E/DX2                !
 ! D19   D(3,4,6,7)             63.79           estimate D2E/DX2                !
 ! D20   D(3,4,6,9)           -175.5412         estimate D2E/DX2                !
 ! D21   D(3,4,6,21)           -55.6178         estimate D2E/DX2                !
 ! D22   D(5,4,6,7)           -179.3975         estimate D2E/DX2                !
 ! D23   D(5,4,6,9)            -58.7286         estimate D2E/DX2                !
 ! D24   D(5,4,6,21)            61.1948         estimate D2E/DX2                !
 ! D25   D(19,4,6,7)           -57.0523         estimate D2E/DX2                !
 ! D26   D(19,4,6,9)            63.6166         estimate D2E/DX2                !
 ! D27   D(19,4,6,21)         -176.46           estimate D2E/DX2                !
 ! D28   D(4,6,7,8)            -62.9889         estimate D2E/DX2                !
 ! D29   D(9,6,7,8)            174.1629         estimate D2E/DX2                !
 ! D30   D(21,6,7,8)            57.5128         estimate D2E/DX2                !
 ! D31   D(4,6,9,10)            57.2322         estimate D2E/DX2                !
 ! D32   D(4,6,9,11)           179.6403         estimate D2E/DX2                !
 ! D33   D(4,6,9,25)           -62.6655         estimate D2E/DX2                !
 ! D34   D(7,6,9,10)          -179.7348         estimate D2E/DX2                !
 ! D35   D(7,6,9,11)           -57.3267         estimate D2E/DX2                !
 ! D36   D(7,6,9,25)            60.3675         estimate D2E/DX2                !
 ! D37   D(21,6,9,10)          -63.4547         estimate D2E/DX2                !
 ! D38   D(21,6,9,11)           58.9533         estimate D2E/DX2                !
 ! D39   D(21,6,9,25)          176.6475         estimate D2E/DX2                !
 ! D40   D(6,7,8,22)          -172.15           estimate D2E/DX2                !
 ! D41   D(6,7,8,23)            72.3778         estimate D2E/DX2                !
 ! D42   D(6,7,8,24)           -51.5777         estimate D2E/DX2                !
 ! D43   D(6,9,10,26)           55.75           estimate D2E/DX2                !
 ! D44   D(6,9,10,27)          -66.7417         estimate D2E/DX2                !
 ! D45   D(6,9,10,28)          177.2113         estimate D2E/DX2                !
 ! D46   D(11,9,10,26)         -67.7278         estimate D2E/DX2                !
 ! D47   D(11,9,10,27)         169.7805         estimate D2E/DX2                !
 ! D48   D(11,9,10,28)          53.7335         estimate D2E/DX2                !
 ! D49   D(25,9,10,26)         175.3299         estimate D2E/DX2                !
 ! D50   D(25,9,10,27)          52.8383         estimate D2E/DX2                !
 ! D51   D(25,9,10,28)         -63.2088         estimate D2E/DX2                !
 ! D52   D(6,9,11,12)          177.9651         estimate D2E/DX2                !
 ! D53   D(6,9,11,29)           58.4894         estimate D2E/DX2                !
 ! D54   D(6,9,11,30)          -61.7648         estimate D2E/DX2                !
 ! D55   D(10,9,11,12)         -57.8182         estimate D2E/DX2                !
 ! D56   D(10,9,11,29)        -177.2938         estimate D2E/DX2                !
 ! D57   D(10,9,11,30)          62.452          estimate D2E/DX2                !
 ! D58   D(25,9,11,12)          59.8781         estimate D2E/DX2                !
 ! D59   D(25,9,11,29)         -59.5976         estimate D2E/DX2                !
 ! D60   D(25,9,11,30)        -179.8518         estimate D2E/DX2                !
 ! D61   D(9,11,12,13)         174.7527         estimate D2E/DX2                !
 ! D62   D(9,11,12,31)          -5.5272         estimate D2E/DX2                !
 ! D63   D(29,11,12,13)        -63.5078         estimate D2E/DX2                !
 ! D64   D(29,11,12,31)        116.2123         estimate D2E/DX2                !
 ! D65   D(30,11,12,13)         53.4688         estimate D2E/DX2                !
 ! D66   D(30,11,12,31)       -126.8112         estimate D2E/DX2                !
 --------------------------------------------------------------------------------
 Trust Radius=3.00D-01 FncErr=1.00D-07 GrdErr=1.00D-06 EigMax=2.50D+02 EigMin=1.00D-04
 Number of steps in this run=    160 maximum allowed number of steps=    186.
 GradGradGradGradGradGradGradGradGradGradGradGradGradGradGradGradGradGrad

                          Input orientation:                          
 ---------------------------------------------------------------------
 Center     Atomic      Atomic             Coordinates (Angstroms)
 Number     Number       Type             X           Y           Z
 ---------------------------------------------------------------------
      1          6           0        1.011610    0.010140   -0.086850
      2          6           0        2.517240    0.083220   -0.072010
      3          8           0        3.005720   -1.209430    0.263660
      4          6           0        4.420540   -1.253840    0.179370
      5          8           0        4.857150   -0.396990    1.214540
      6          6           0        4.946930   -2.716540    0.330950
      7          8           0        4.494360   -3.566260   -0.751510
      8          6           0        3.075370   -3.722390   -0.806370
      9          6           0        6.511830   -2.764160    0.351910
     10          6           0        7.105640   -1.897160    1.473690
     11          6           0        7.018530   -4.211370    0.510820
     12          6           0        8.527200   -4.293810    0.484940
     13          8           0        9.146750   -5.339030    0.688840
     14          1           0        0.589320    1.003670   -0.247570
     15          1           0        0.640700   -0.395450    0.860020
     16          1           0        0.669410   -0.661890   -0.880270
     17          1           0        2.840780    0.802800    0.686370
     18          1           0        2.897550    0.390740   -1.052430
     19          1           0        4.752340   -0.872110   -0.795460
     20          1           0        4.570380   -0.835820    2.032650
     21          1           0        4.576070   -3.146120    1.271130
     22          1           0        2.821200   -4.479160   -1.551780
     23          1           0        2.594660   -2.807680   -1.156650
     24          1           0        2.675790   -4.027700    0.166290
     25          1           0        6.878790   -2.389640   -0.614610
     26          1           0        6.692470   -2.194580    2.443060
     27          1           0        6.927500   -0.835030    1.311390
     28          1           0        8.192690   -1.956270    1.533870
     29          1           0        6.650450   -4.844680   -0.302810
     30          1           0        6.671250   -4.624760    1.464350
     31          1           0        9.077920   -3.364970    0.267190
 ---------------------------------------------------------------------
                    Distance matrix (angstroms):
                    1          2          3          4          5
     1  C    0.000000
     2  C    1.507476   0.000000
     3  O    2.363616   1.422052   0.000000
     4  C    3.645452   2.339545   1.418024   0.000000
     5  O    4.080141   2.713115   2.234284   1.412939   0.000000
     6  C    4.805839   3.728864   2.458496   1.561907   2.483768
     7  O    5.036066   4.205880   2.966693   2.493847   3.747164
     8  C    4.325343   3.915796   2.732176   2.979078   4.279848
     9  C    6.175894   4.923823   3.836376   2.585407   3.014231
    10  C    6.573453   5.231110   4.329722   3.049408   2.715396
    11  C    7.366237   6.248584   5.017507   3.950493   4.440302
    12  C    8.679575   7.455750   6.328436   5.118540   5.402480
    13  O    9.767078   8.598261   7.412599   6.267806   6.565119
    14  H    1.091449   2.143578   3.316347   4.467312   4.723768
    15  H    1.094824   2.149234   2.571289   3.935392   4.231328
    16  H    1.094642   2.150104   2.658330   3.942616   4.689943
    17  H    2.138233   1.094355   2.062755   2.642434   2.405038
    18  H    2.152666   1.095640   2.074690   2.557630   3.098339
    19  H    3.908139   2.536081   2.070314   1.098227   2.068048
    20  H    4.227620   3.080521   2.391040   1.905739   0.971655
    21  H    4.950905   4.058503   2.689194   2.190172   2.764041
    22  H    5.057119   4.805978   3.744463   3.994679   5.334954
    23  H    3.404501   3.088647   2.177304   2.744669   4.068517
    24  H    4.374669   4.120872   2.839187   3.276984   4.363395
    25  H    6.360918   5.043071   4.143057   2.821957   3.376903
    26  H    6.597985   5.380195   4.394591   3.342297   2.847629
    27  H    6.137356   4.712470   4.076551   2.782395   2.118398
    28  H    7.619804   6.240922   5.392204   4.069053   3.695829
    29  H    7.443953   6.435906   5.178802   4.254307   5.029933
    30  H    7.477971   6.463844   5.151917   4.252055   4.607321
    31  H    8.751118   7.419407   6.443445   5.114271   5.246073
                    6          7          8          9         10
     6  C    0.000000
     7  O    1.448642   0.000000
     8  C    2.409973   1.428607   0.000000
     9  C    1.565765   2.435382   3.750877   0.000000
    10  C    2.576289   3.815258   4.977270   1.537104   0.000000
    11  C    2.560937   2.895009   4.186001   1.541562   2.508042
    12  C    3.915332   4.280413   5.631736   2.533622   2.956753
    13  O    4.964275   5.182862   6.458392   3.699497   4.077817
    14  H    5.758768   6.032210   5.369203   7.045001   7.337573
    15  H    4.920467   5.244212   4.446685   6.351309   6.665371
    16  H    4.897532   4.804392   3.893683   6.330219   6.963625
    17  H    4.116788   4.887792   4.770812   5.129491   5.108687
    18  H    3.971006   4.277640   4.124319   4.998858   5.415145
    19  H    2.169928   2.706830   3.307029   2.827033   3.426046
    20  H    2.564114   3.900337   4.315944   3.211325   2.804714
    21  H    1.098187   2.067430   2.626822   2.176701   2.828366
    22  H    3.342189   2.067192   1.092218   4.492884   5.846077
    23  H    2.784679   2.085292   1.091088   4.197841   5.300630
    24  H    2.627609   2.088655   1.094964   4.043042   5.086459
    25  H    2.175553   2.662458   4.034724   1.099584   2.157544
    26  H    2.789330   4.113207   5.096706   2.174847   1.094918
    27  H    2.902413   4.199446   5.259340   2.194294   1.089126
    28  H    3.544007   4.636019   5.897700   2.207942   1.090318
    29  H    2.798680   2.546451   3.780781   2.185506   3.471459
    30  H    2.810548   3.281662   4.347504   2.173654   2.761989
    31  H    4.182058   4.699712   6.108264   2.636848   2.738612
                   11         12         13         14         15
    11  C    0.000000
    12  C    1.511142   0.000000
    13  O    2.415084   1.232032   0.000000
    14  H    8.313034   9.571301  10.692816   0.000000
    15  H    7.440423   8.805383   9.839775   1.785198   0.000000
    16  H    7.405759   8.763533   9.808315   1.783484   1.760802
    17  H    6.528883   7.638807   8.802689   2.445744   2.511237
    18  H    6.372256   7.483413   8.655333   2.520200   3.060871
    19  H    4.241773   5.253287   6.439516   4.598855   4.457959
    20  H    4.438890   5.478095   6.559565   4.942870   4.124484
    21  H    2.771000   4.188880   5.102845   5.951587   4.818956
    22  H    4.684401   6.061437   6.765526   6.061656   5.219966
    23  H    4.931676   6.332332   7.262469   4.401614   3.701860
    24  H    4.360255   5.866119   6.623139   5.462538   4.220911
    25  H    2.145884   2.748114   3.942274   7.155886   6.713054
    26  H    2.811994   3.406939   4.357562   7.397076   6.508979
    27  H    3.471148   3.899387   5.059511   6.781128   6.318292
    28  H    2.740576   2.583843   3.614882   8.351408   7.740981
    29  H    1.094787   2.108601   2.731166   8.422799   7.567359
    30  H    1.095771   2.124458   2.690669   8.461665   7.390522
    31  H    2.239829   1.101568   2.019762   9.560665   8.964161
                   16         17         18         19         20
    16  H    0.000000
    17  H    3.051971   0.000000
    18  H    2.470279   1.787860   0.000000
    19  H    4.089218   2.941973   2.258555   0.000000
    20  H    4.871645   2.736615   3.717597   2.834190   0.000000
    21  H    5.105087   4.352832   4.552553   3.077822   2.432577
    22  H    4.433134   5.736619   4.896030   4.160785   5.402008
    23  H    2.896099   4.061141   3.214420   2.921040   4.238318
    24  H    4.055801   4.861217   4.588798   3.898047   4.154620
    25  H    6.450744   5.309402   4.875702   2.618663   3.840716
    26  H    7.047759   5.187076   5.770940   4.000130   2.553024
    27  H    6.633027   4.446844   4.830182   3.028451   2.465001
    28  H    8.006449   6.080597   6.343178   4.293855   3.824306
    29  H    7.321341   6.883756   6.485045   4.430219   5.084488
    30  H    7.564633   6.688510   6.762413   4.782399   4.369518
    31  H    8.906534   7.513184   7.351444   5.104333   5.461810
                   21         22         23         24         25
    21  H    0.000000
    22  H    3.581255   0.000000
    23  H    3.151927   1.732424   0.000000
    24  H    2.368316   1.782337   1.801444   0.000000
    25  H    3.070960   4.659229   4.338471   4.578019   0.000000
    26  H    2.599615   6.013716   5.488702   4.967668   3.069545
    27  H    3.297269   6.191860   5.362469   5.438882   2.475613
    28  H    3.816375   6.688730   6.269110   6.049569   2.555408
    29  H    3.108930   4.044340   4.618208   4.084781   2.485273
    30  H    2.571671   4.892967   5.175906   4.243247   3.059560
    31  H    4.617623   6.610342   6.661122   6.437131   2.562228
                   26         27         28         29         30
    26  H    0.000000
    27  H    1.784459   0.000000
    28  H    1.770333   1.705105   0.000000
    29  H    3.816359   4.331246   3.754306   0.000000
    30  H    2.619942   3.801462   3.072532   1.780913   0.000000
    31  H    3.434326   3.480698   2.091063   2.899492   2.968556
                   31
    31  H    0.000000
 Stoichiometry    C9H18O4
 Framework group  C1[X(C9H18O4)]
 Deg. of freedom    87
 Full point group                 C1      NOp   1
 Largest Abelian subgroup         C1      NOp   1
 Largest concise Abelian subgroup C1      NOp   1
                         Standard orientation:                         
 ---------------------------------------------------------------------
 Center     Atomic      Atomic             Coordinates (Angstroms)
 Number     Number       Type             X           Y           Z
 ---------------------------------------------------------------------
      1          6           0        4.674389    0.114716    0.123051
      2          6           0        3.445011   -0.599990   -0.377256
      3          8           0        2.314609    0.022032    0.220666
      4          6           0        1.108405   -0.516322   -0.295126
      5          8           0        1.100012   -1.852431    0.164373
      6          6           0       -0.127140    0.306863    0.190004
      7          8           0       -0.097090    1.666768   -0.308311
      8          6           0        1.018940    2.426646    0.158573
      9          6           0       -1.471197   -0.343747   -0.280991
     10          6           0       -1.614579   -1.796633    0.199896
     11          6           0       -2.682618    0.472604    0.211397
     12          6           0       -3.993502   -0.104796   -0.269999
     13          8           0       -5.090164    0.332901    0.081650
     14          1           0        5.573515   -0.389095   -0.236126
     15          1           0        4.681896    0.138797    1.217585
     16          1           0        4.679045    1.153796   -0.221232
     17          1           0        3.484646   -1.650922   -0.074626
     18          1           0        3.380549   -0.537003   -1.469183
     19          1           0        1.123730   -0.491943   -1.392975
     20          1           0        1.031098   -1.778364    1.130746
     21          1           0       -0.131815    0.352499    1.287232
     22          1           0        0.899928    3.469968   -0.141852
     23          1           0        1.943041    2.098251   -0.319617
     24          1           0        1.101520    2.373972    1.249147
     25          1           0       -1.490073   -0.332980   -1.380361
     26          1           0       -1.516056   -1.847926    1.289166
     27          1           0       -0.884232   -2.458011   -0.264181
     28          1           0       -2.566350   -2.250168   -0.078007
     29          1           0       -2.633686    1.502722   -0.156054
     30          1           0       -2.699770    0.489296    1.306906
     31          1           0       -3.942176   -0.953082   -0.970877
 ---------------------------------------------------------------------
 Rotational constants (GHZ):           1.6957964           0.3457923           0.2959999
 Standard basis: 6-31G(2df,p) (6D, 7F)
 There are   493 symmetry adapted cartesian basis functions of A   symmetry.
 There are   454 symmetry adapted basis functions of A   symmetry.
   454 basis functions,   698 primitive gaussians,   493 cartesian basis functions
    52 alpha electrons       52 beta electrons
       nuclear repulsion energy       876.6704005067 Hartrees.
 NAtoms=   31 NActive=   31 NUniq=   31 SFac= 1.00D+00 NAtFMM=   60 NAOKFM=F Big=F
 Integral buffers will be    131072 words long.
 Raffenetti 2 integral format.
 Two-electron integral symmetry is turned on.
 One-electron integrals computed using PRISM.
 PrsmSu:  requested number of processors reduced to:  12 ShMem   1 Linda.
 NBasis=   454 RedAO= T EigKep=  5.67D-04  NBF=   454
 NBsUse=   454 1.00D-06 EigRej= -1.00D+00 NBFU=   454
 ExpMin= 1.61D-01 ExpMax= 5.48D+03 ExpMxC= 8.25D+02 IAcc=3 IRadAn=         5 AccDes= 0.00D+00
 Harris functional with IExCor=  402 and IRadAn=       5 diagonalized for initial guess.
 HarFok:  IExCor=  402 AccDes= 0.00D+00 IRadAn=         5 IDoV= 1 UseB2=F ITyADJ=14
 ICtDFT=  3500011 ScaDFX=  1.000000  1.000000  1.000000  1.000000
 FoFCou: FMM=F IPFlag=           0 FMFlag=      100000 FMFlg1=           0
         NFxFlg=           0 DoJE=T BraDBF=F KetDBF=T FulRan=T
         wScrn=  0.000000 ICntrl=       500 IOpCl=  0 I1Cent=   200000004 NGrid=           0
         NMat0=    1 NMatS0=      1 NMatT0=    0 NMatD0=    1 NMtDS0=    0 NMtDT0=    0
 Petite list used in FoFCou.
 Requested convergence on RMS density matrix=1.00D-08 within 128 cycles.
 Requested convergence on MAX density matrix=1.00D-06.
 Requested convergence on             energy=1.00D-06.
 No special actions if energy rises.
 Integral accuracy reduced to 1.0D-05 until final iterations.
 Initial convergence to 1.0D-05 achieved.  Increase integral accuracy.
 SCF Done:  E(RB3LYP) =  -654.686386309     A.U. after   13 cycles
            NFock= 13  Conv=0.56D-08     -V/T= 2.0073

 **********************************************************************

            Population analysis using the SCF density.

 **********************************************************************

 Orbital symmetries:
       Occupied  (A) (A) (A) (A) (A) (A) (A) (A) (A) (A) (A) (A)
                 (A) (A) (A) (A) (A) (A) (A) (A) (A) (A) (A) (A)
                 (A) (A) (A) (A) (A) (A) (A) (A) (A) (A) (A) (A)
                 (A) (A) (A) (A) (A) (A) (A) (A) (A) (A) (A) (A)
                 (A) (A) (A) (A)
       Virtual   (A) (A) (A) (A) (A) (A) (A) (A) (A) (A) (A) (A)
                 (A) (A) (A) (A) (A) (A) (A) (A) (A) (A) (A) (A)
                 (A) (A) (A) (A) (A) (A) (A) (A) (A) (A) (A) (A)
                 (A) (A) (A) (A) (A) (A) (A) (A) (A) (A) (A) (A)
                 (A) (A) (A) (A) (A) (A) (A) (A) (A) (A) (A) (A)
                 (A) (A) (A) (A) (A) (A) (A) (A) (A) (A) (A) (A)
                 (A) (A) (A) (A) (A) (A) (A) (A) (A) (A) (A) (A)
                 (A) (A) (A) (A) (A) (A) (A) (A) (A) (A) (A) (A)
                 (A) (A) (A) (A) (A) (A) (A) (A) (A) (A) (A) (A)
                 (A) (A) (A) (A) (A) (A) (A) (A) (A) (A) (A) (A)
                 (A) (A) (A) (A) (A) (A) (A) (A) (A) (A) (A) (A)
                 (A) (A) (A) (A) (A) (A) (A) (A) (A) (A) (A) (A)
                 (A) (A) (A) (A) (A) (A) (A) (A) (A) (A) (A) (A)
                 (A) (A) (A) (A) (A) (A) (A) (A) (A) (A) (A) (A)
                 (A) (A) (A) (A) (A) (A) (A) (A) (A) (A) (A) (A)
                 (A) (A) (A) (A) (A) (A) (A) (A) (A) (A) (A) (A)
                 (A) (A) (A) (A) (A) (A) (A) (A) (A) (A) (A) (A)
                 (A) (A) (A) (A) (A) (A) (A) (A) (A) (A) (A) (A)
                 (A) (A) (A) (A) (A) (A) (A) (A) (A) (A) (A) (A)
                 (A) (A) (A) (A) (A) (A) (A) (A) (A) (A) (A) (A)
                 (A) (A) (A) (A) (A) (A) (A) (A) (A) (A) (A) (A)
                 (A) (A) (A) (A) (A) (A) (A) (A) (A) (A) (A) (A)
                 (A) (A) (A) (A) (A) (A) (A) (A) (A) (A) (A) (A)
                 (A) (A) (A) (A) (A) (A) (A) (A) (A) (A) (A) (A)
                 (A) (A) (A) (A) (A) (A) (A) (A) (A) (A) (A) (A)
                 (A) (A) (A) (A) (A) (A) (A) (A) (A) (A) (A) (A)
                 (A) (A) (A) (A) (A) (A) (A) (A) (A) (A) (A) (A)
                 (A) (A) (A) (A) (A) (A) (A) (A) (A) (A) (A) (A)
                 (A) (A) (A) (A) (A) (A) (A) (A) (A) (A) (A) (A)
                 (A) (A) (A) (A) (A) (A) (A) (A) (A) (A) (A) (A)
                 (A) (A) (A) (A) (A) (A) (A) (A) (A) (A) (A) (A)
                 (A) (A) (A) (A) (A) (A) (A) (A) (A) (A) (A) (A)
                 (A) (A) (A) (A) (A) (A) (A) (A) (A) (A) (A) (A)
                 (A) (A) (A) (A) (A) (A)
 The electronic state is 1-A.
 Alpha  occ. eigenvalues --  -19.15475 -19.14960 -19.14696 -19.13127 -10.28828
 Alpha  occ. eigenvalues --  -10.26759 -10.24846 -10.23020 -10.21603 -10.20491
 Alpha  occ. eigenvalues --  -10.19003 -10.18039 -10.17552  -1.08064  -1.02448
 Alpha  occ. eigenvalues --   -1.02368  -1.00393  -0.82059  -0.77056  -0.73361
 Alpha  occ. eigenvalues --   -0.70520  -0.67300  -0.63233  -0.61970  -0.58898
 Alpha  occ. eigenvalues --   -0.57248  -0.52479  -0.51767  -0.49360  -0.48153
 Alpha  occ. eigenvalues --   -0.46116  -0.45913  -0.44629  -0.44397  -0.42919
 Alpha  occ. eigenvalues --   -0.41924  -0.41306  -0.40919  -0.39755  -0.38787
 Alpha  occ. eigenvalues --   -0.37194  -0.36556  -0.36042  -0.35258  -0.34559
 Alpha  occ. eigenvalues --   -0.33798  -0.33334  -0.31073  -0.29730  -0.26964
 Alpha  occ. eigenvalues --   -0.25401  -0.24372
 Alpha virt. eigenvalues --   -0.02516   0.05821   0.08445   0.08577   0.10351
 Alpha virt. eigenvalues --    0.11119   0.12015   0.12972   0.13355   0.14279
 Alpha virt. eigenvalues --    0.15037   0.15916   0.16407   0.16663   0.17427
 Alpha virt. eigenvalues --    0.17908   0.18187   0.18816   0.19220   0.19754
 Alpha virt. eigenvalues --    0.20863   0.21013   0.21458   0.23049   0.23826
 Alpha virt. eigenvalues --    0.24586   0.25311   0.27572   0.29111   0.32248
 Alpha virt. eigenvalues --    0.32570   0.41610   0.42331   0.44917   0.45672
 Alpha virt. eigenvalues --    0.47207   0.47639   0.48499   0.50184   0.50309
 Alpha virt. eigenvalues --    0.51212   0.52211   0.52826   0.53609   0.54664
 Alpha virt. eigenvalues --    0.55575   0.58234   0.59066   0.59974   0.60292
 Alpha virt. eigenvalues --    0.60468   0.63241   0.63785   0.64249   0.66762
 Alpha virt. eigenvalues --    0.67673   0.67956   0.69233   0.69760   0.71271
 Alpha virt. eigenvalues --    0.71701   0.72564   0.73178   0.73476   0.74154
 Alpha virt. eigenvalues --    0.74506   0.74808   0.75308   0.75808   0.76302
 Alpha virt. eigenvalues --    0.77876   0.78638   0.79301   0.79648   0.80746
 Alpha virt. eigenvalues --    0.82188   0.82375   0.84049   0.84424   0.84775
 Alpha virt. eigenvalues --    0.86353   0.86933   0.89321   0.89503   0.91269
 Alpha virt. eigenvalues --    0.93055   0.93435   0.95186   0.96380   0.97482
 Alpha virt. eigenvalues --    0.97748   0.99008   1.00461   1.01323   1.02339
 Alpha virt. eigenvalues --    1.03784   1.06716   1.07424   1.08667   1.10066
 Alpha virt. eigenvalues --    1.11815   1.14437   1.15506   1.17164   1.18887
 Alpha virt. eigenvalues --    1.20383   1.23552   1.24434   1.25751   1.26099
 Alpha virt. eigenvalues --    1.28084   1.29548   1.30652   1.32803   1.33374
 Alpha virt. eigenvalues --    1.34811   1.36802   1.38010   1.39370   1.40362
 Alpha virt. eigenvalues --    1.41435   1.41732   1.43907   1.46070   1.47815
 Alpha virt. eigenvalues --    1.48873   1.50372   1.51695   1.52415   1.53177
 Alpha virt. eigenvalues --    1.54918   1.55536   1.56041   1.59898   1.60268
 Alpha virt. eigenvalues --    1.61503   1.62367   1.62930   1.64693   1.65654
 Alpha virt. eigenvalues --    1.68897   1.69014   1.70585   1.71639   1.73758
 Alpha virt. eigenvalues --    1.76414   1.78074   1.80816   1.82448   1.82777
 Alpha virt. eigenvalues --    1.84369   1.85215   1.87464   1.88707   1.90011
 Alpha virt. eigenvalues --    1.91370   1.93722   1.94623   1.95715   1.96142
 Alpha virt. eigenvalues --    2.00397   2.01523   2.05378   2.09042   2.10695
 Alpha virt. eigenvalues --    2.14179   2.15083   2.18020   2.20406   2.20538
 Alpha virt. eigenvalues --    2.22033   2.26230   2.26998   2.31717   2.33578
 Alpha virt. eigenvalues --    2.33957   2.36059   2.37512   2.37888   2.39532
 Alpha virt. eigenvalues --    2.42569   2.45828   2.46314   2.47561   2.49668
 Alpha virt. eigenvalues --    2.51633   2.54916   2.58181   2.61658   2.63219
 Alpha virt. eigenvalues --    2.64654   2.66126   2.67690   2.70993   2.73720
 Alpha virt. eigenvalues --    2.75267   2.75729   2.77162   2.78063   2.79834
 Alpha virt. eigenvalues --    2.80558   2.81639   2.82648   2.83373   2.83889
 Alpha virt. eigenvalues --    2.85526   2.86713   2.87625   2.89368   2.90193
 Alpha virt. eigenvalues --    2.91361   2.92728   2.93371   2.93909   2.94519
 Alpha virt. eigenvalues --    2.95745   2.97644   2.98264   2.99914   3.01931
 Alpha virt. eigenvalues --    3.03436   3.05036   3.06873   3.08806   3.11488
 Alpha virt. eigenvalues --    3.13344   3.14674   3.16904   3.18822   3.20285
 Alpha virt. eigenvalues --    3.21850   3.23298   3.25222   3.28387   3.29026
 Alpha virt. eigenvalues --    3.31326   3.33334   3.34348   3.36155   3.37745
 Alpha virt. eigenvalues --    3.39469   3.41641   3.42540   3.44247   3.46340
 Alpha virt. eigenvalues --    3.47415   3.48667   3.49102   3.51025   3.52895
 Alpha virt. eigenvalues --    3.55044   3.56567   3.57837   3.59635   3.60305
 Alpha virt. eigenvalues --    3.61680   3.63878   3.66774   3.67029   3.67801
 Alpha virt. eigenvalues --    3.68552   3.71297   3.74866   3.75312   3.78659
 Alpha virt. eigenvalues --    3.80898   3.84721   3.87121   3.89672   3.92158
 Alpha virt. eigenvalues --    3.93422   3.97919   3.99552   4.04090   4.04622
 Alpha virt. eigenvalues --    4.05154   4.09326   4.12353   4.16243   4.17502
 Alpha virt. eigenvalues --    4.21646   4.23354   4.25205   4.25769   4.27613
 Alpha virt. eigenvalues --    4.29590   4.32965   4.34512   4.36778   4.37795
 Alpha virt. eigenvalues --    4.39108   4.39430   4.40140   4.41402   4.42077
 Alpha virt. eigenvalues --    4.44159   4.44921   4.46053   4.47497   4.48255
 Alpha virt. eigenvalues --    4.49369   4.50167   4.51869   4.52843   4.53929
 Alpha virt. eigenvalues --    4.54582   4.56914   4.57606   4.57962   4.59012
 Alpha virt. eigenvalues --    4.59739   4.60585   4.63228   4.64272   4.64867
 Alpha virt. eigenvalues --    4.65766   4.67275   4.68087   4.68825   4.70148
 Alpha virt. eigenvalues --    4.71111   4.72790   4.74306   4.75061   4.76731
 Alpha virt. eigenvalues --    4.77366   4.77946   4.80531   4.81848   4.82685
 Alpha virt. eigenvalues --    4.84042   4.85713   4.87600   4.89171   4.89357
 Alpha virt. eigenvalues --    4.91656   4.91707   4.93939   4.95459   4.97095
 Alpha virt. eigenvalues --    4.97652   5.00022   5.05167   5.07677   5.08812
 Alpha virt. eigenvalues --    5.10134   5.19498   5.22026   5.25442   5.25801
 Alpha virt. eigenvalues --    5.31263   5.34301   5.35197   5.37865   5.40619
 Alpha virt. eigenvalues --    5.43362   5.43971   5.45851   5.46812   5.49011
 Alpha virt. eigenvalues --    5.49793   5.53860   5.55346   5.58271   5.59903
 Alpha virt. eigenvalues --    5.60684   5.66988   5.71243   5.84906   5.87085
 Alpha virt. eigenvalues --    5.89776   5.93990   5.97461   5.99795   6.01697
 Alpha virt. eigenvalues --    6.04838   6.08268   6.11468   6.12030   6.18590
 Alpha virt. eigenvalues --    6.21408   6.26832   6.33316   6.40882   6.52479
 Alpha virt. eigenvalues --    6.77953   7.06139   7.12035   7.25101  10.81099
 Alpha virt. eigenvalues --   11.25741  11.29049  11.44654  11.70251  11.94043
 Alpha virt. eigenvalues --   12.16120  12.38849  12.66752  12.95821  13.34454
 Alpha virt. eigenvalues --   13.45930  13.79945
          Condensed to atoms (all electrons):
               1          2          3          4          5          6
     1  C    4.957466   0.418244  -0.033650   0.002653   0.000489  -0.000188
     2  C    0.418244   4.716454   0.333390  -0.069490  -0.005033   0.005156
     3  O   -0.033650   0.333390   7.780753   0.343972  -0.073507  -0.024200
     4  C    0.002653  -0.069490   0.343972   4.740488   0.295378   0.372280
     5  O    0.000489  -0.005033  -0.073507   0.295378   7.897251  -0.011193
     6  C   -0.000188   0.005156  -0.024200   0.372280  -0.011193   4.824311
     7  O    0.000001  -0.000149   0.000376  -0.024826   0.001138   0.320655
     8  C   -0.000167   0.000434  -0.015922  -0.005853  -0.000026  -0.077285
     9  C    0.000001  -0.000112   0.000523  -0.018997  -0.009444   0.381979
    10  C    0.000000   0.000003   0.000016  -0.003821  -0.019126  -0.025240
    11  C   -0.000000   0.000000  -0.000017   0.001506   0.000024  -0.019621
    12  C    0.000000   0.000000   0.000000   0.000037   0.000000   0.000445
    13  O   -0.000000   0.000000  -0.000000   0.000000  -0.000000  -0.000058
    14  H    0.368438  -0.024141   0.002294  -0.000172   0.000015   0.000003
    15  H    0.374529  -0.025938   0.001896   0.000427  -0.000025   0.000013
    16  H    0.375934  -0.025277   0.000956  -0.000020  -0.000008  -0.000009
    17  H   -0.039253   0.366752  -0.029341  -0.003193   0.016991   0.000191
    18  H   -0.036750   0.357968  -0.033916  -0.001851  -0.002014   0.000377
    19  H    0.000150  -0.009861  -0.033341   0.334113  -0.027644  -0.040488
    20  H   -0.000150   0.001041   0.005738  -0.061922   0.301267  -0.004578
    21  H    0.000009  -0.000344   0.000120  -0.049839  -0.000526   0.313467
    22  H    0.000004  -0.000060   0.000878   0.000013   0.000002   0.003175
    23  H   -0.000364   0.001346   0.014142   0.001738   0.000034  -0.000990
    24  H    0.000045  -0.000124   0.000902  -0.001616   0.000032  -0.007186
    25  H    0.000000  -0.000004  -0.000017  -0.006998  -0.000167  -0.029023
    26  H   -0.000000  -0.000000   0.000001  -0.001065   0.000683  -0.005814
    27  H    0.000000  -0.000001   0.000164  -0.001065   0.017996  -0.001961
    28  H   -0.000000  -0.000000   0.000002  -0.000078   0.001258   0.003110
    29  H   -0.000000   0.000000   0.000000   0.000237  -0.000003  -0.003238
    30  H    0.000000   0.000000   0.000000   0.000095  -0.000011  -0.004397
    31  H   -0.000000   0.000000   0.000000   0.000030  -0.000000   0.000023
               7          8          9         10         11         12
     1  C    0.000001  -0.000167   0.000001   0.000000  -0.000000   0.000000
     2  C   -0.000149   0.000434  -0.000112   0.000003   0.000000   0.000000
     3  O    0.000376  -0.015922   0.000523   0.000016  -0.000017   0.000000
     4  C   -0.024826  -0.005853  -0.018997  -0.003821   0.001506   0.000037
     5  O    0.001138  -0.000026  -0.009444  -0.019126   0.000024   0.000000
     6  C    0.320655  -0.077285   0.381979  -0.025240  -0.019621   0.000445
     7  O    7.742428   0.360407  -0.026450   0.001692  -0.001884   0.000328
     8  C    0.360407   4.847079   0.003874  -0.000148   0.000404  -0.000003
     9  C   -0.026450   0.003874   4.791128   0.376630   0.300827   0.001444
    10  C    0.001692  -0.000148   0.376630   5.077661  -0.041852  -0.007329
    11  C   -0.001884   0.000404   0.300827  -0.041852   5.317409   0.283986
    12  C    0.000328  -0.000003   0.001444  -0.007329   0.283986   4.486677
    13  O   -0.000000  -0.000000   0.001727   0.000009  -0.055568   0.740928
    14  H   -0.000000   0.000001  -0.000000   0.000000   0.000000   0.000000
    15  H   -0.000000   0.000043   0.000000  -0.000000   0.000000   0.000000
    16  H   -0.000003  -0.000204  -0.000000   0.000000   0.000000   0.000000
    17  H   -0.000006  -0.000056   0.000001   0.000012   0.000000  -0.000000
    18  H   -0.000037   0.000265   0.000034  -0.000005   0.000000   0.000000
    19  H    0.002527   0.000767  -0.001903  -0.000075  -0.000026   0.000001
    20  H    0.000002  -0.000019   0.000060   0.003111   0.000002   0.000001
    21  H   -0.028592  -0.004648  -0.034935  -0.002092  -0.007481   0.000006
    22  H   -0.019135   0.366820  -0.000156   0.000001   0.000003  -0.000000
    23  H   -0.029522   0.372714  -0.000290   0.000003   0.000034   0.000000
    24  H   -0.030233   0.371211   0.000474   0.000022  -0.000145  -0.000001
    25  H    0.000654  -0.000011   0.349885  -0.044559  -0.043044  -0.002955
    26  H    0.000020   0.000001  -0.029200   0.369479  -0.004466   0.000080
    27  H   -0.000039   0.000000  -0.015067   0.367917   0.003719   0.000097
    28  H   -0.000022   0.000002  -0.024522   0.361194  -0.009110   0.001602
    29  H    0.010865  -0.000311  -0.022834   0.005114   0.343854  -0.015044
    30  H   -0.000310  -0.000045  -0.028505  -0.006573   0.341933  -0.014416
    31  H   -0.000009   0.000000   0.014425  -0.003573  -0.130913   0.361940
              13         14         15         16         17         18
     1  C   -0.000000   0.368438   0.374529   0.375934  -0.039253  -0.036750
     2  C    0.000000  -0.024141  -0.025938  -0.025277   0.366752   0.357968
     3  O   -0.000000   0.002294   0.001896   0.000956  -0.029341  -0.033916
     4  C    0.000000  -0.000172   0.000427  -0.000020  -0.003193  -0.001851
     5  O   -0.000000   0.000015  -0.000025  -0.000008   0.016991  -0.002014
     6  C   -0.000058   0.000003   0.000013  -0.000009   0.000191   0.000377
     7  O   -0.000000  -0.000000  -0.000000  -0.000003  -0.000006  -0.000037
     8  C   -0.000000   0.000001   0.000043  -0.000204  -0.000056   0.000265
     9  C    0.001727  -0.000000   0.000000  -0.000000   0.000001   0.000034
    10  C    0.000009   0.000000  -0.000000   0.000000   0.000012  -0.000005
    11  C   -0.055568   0.000000   0.000000   0.000000   0.000000   0.000000
    12  C    0.740928   0.000000   0.000000   0.000000  -0.000000   0.000000
    13  O    7.650368   0.000000   0.000000  -0.000000  -0.000000   0.000000
    14  H    0.000000   0.591942  -0.027471  -0.028648   0.000144   0.000803
    15  H    0.000000  -0.027471   0.584379  -0.034082  -0.005226   0.006087
    16  H   -0.000000  -0.028648  -0.034082   0.588866   0.005518  -0.007081
    17  H   -0.000000   0.000144  -0.005226   0.005518   0.634598  -0.052597
    18  H    0.000000   0.000803   0.006087  -0.007081  -0.052597   0.662767
    19  H   -0.000000   0.000011   0.000060  -0.000033  -0.001951   0.014785
    20  H    0.000000   0.000001   0.000032   0.000001  -0.001375   0.000306
    21  H   -0.000001   0.000000   0.000002   0.000000  -0.000027   0.000023
    22  H    0.000000   0.000000   0.000000   0.000006   0.000001  -0.000001
    23  H   -0.000000   0.000010  -0.000091   0.001933   0.000214  -0.000495
    24  H    0.000000  -0.000000   0.000015  -0.000020  -0.000002  -0.000000
    25  H    0.000037   0.000000  -0.000000  -0.000000  -0.000001  -0.000000
    26  H   -0.000001   0.000000  -0.000000   0.000000  -0.000001  -0.000000
    27  H   -0.000000  -0.000000   0.000000  -0.000000  -0.000013   0.000003
    28  H   -0.000150  -0.000000  -0.000000   0.000000  -0.000000  -0.000000
    29  H   -0.001663   0.000000  -0.000000   0.000000   0.000000  -0.000000
    30  H   -0.001698   0.000000  -0.000000  -0.000000   0.000000  -0.000000
    31  H   -0.051436   0.000000   0.000000  -0.000000  -0.000000   0.000000
              19         20         21         22         23         24
     1  C    0.000150  -0.000150   0.000009   0.000004  -0.000364   0.000045
     2  C   -0.009861   0.001041  -0.000344  -0.000060   0.001346  -0.000124
     3  O   -0.033341   0.005738   0.000120   0.000878   0.014142   0.000902
     4  C    0.334113  -0.061922  -0.049839   0.000013   0.001738  -0.001616
     5  O   -0.027644   0.301267  -0.000526   0.000002   0.000034   0.000032
     6  C   -0.040488  -0.004578   0.313467   0.003175  -0.000990  -0.007186
     7  O    0.002527   0.000002  -0.028592  -0.019135  -0.029522  -0.030233
     8  C    0.000767  -0.000019  -0.004648   0.366820   0.372714   0.371211
     9  C   -0.001903   0.000060  -0.034935  -0.000156  -0.000290   0.000474
    10  C   -0.000075   0.003111  -0.002092   0.000001   0.000003   0.000022
    11  C   -0.000026   0.000002  -0.007481   0.000003   0.000034  -0.000145
    12  C    0.000001   0.000001   0.000006  -0.000000   0.000000  -0.000001
    13  O   -0.000000   0.000000  -0.000001   0.000000  -0.000000   0.000000
    14  H    0.000011   0.000001   0.000000   0.000000   0.000010  -0.000000
    15  H    0.000060   0.000032   0.000002   0.000000  -0.000091   0.000015
    16  H   -0.000033   0.000001   0.000000   0.000006   0.001933  -0.000020
    17  H   -0.001951  -0.001375  -0.000027   0.000001   0.000214  -0.000002
    18  H    0.014785   0.000306   0.000023  -0.000001  -0.000495  -0.000000
    19  H    0.644382   0.007937   0.007166   0.000016  -0.001294   0.000271
    20  H    0.007937   0.459162   0.006404  -0.000001  -0.000035   0.000055
    21  H    0.007166   0.006404   0.701805   0.000084  -0.001470   0.013847
    22  H    0.000016  -0.000001   0.000084   0.610148  -0.039917  -0.034816
    23  H   -0.001294  -0.000035  -0.001470  -0.039917   0.596275  -0.043707
    24  H    0.000271   0.000055   0.013847  -0.034816  -0.043707   0.627227
    25  H    0.005095   0.000157   0.007104   0.000006  -0.000017   0.000037
    26  H    0.000071   0.001772   0.005471   0.000000  -0.000000   0.000001
    27  H   -0.000223  -0.002061  -0.000117  -0.000000  -0.000001   0.000000
    28  H   -0.000010  -0.000140  -0.000115  -0.000000  -0.000000   0.000000
    29  H   -0.000013  -0.000001   0.000174  -0.000041   0.000032   0.000035
    30  H    0.000009  -0.000002   0.005492   0.000001   0.000000   0.000021
    31  H   -0.000001  -0.000000   0.000018   0.000000  -0.000000   0.000000
              25         26         27         28         29         30
     1  C    0.000000  -0.000000   0.000000  -0.000000  -0.000000   0.000000
     2  C   -0.000004  -0.000000  -0.000001  -0.000000   0.000000   0.000000
     3  O   -0.000017   0.000001   0.000164   0.000002   0.000000   0.000000
     4  C   -0.006998  -0.001065  -0.001065  -0.000078   0.000237   0.000095
     5  O   -0.000167   0.000683   0.017996   0.001258  -0.000003  -0.000011
     6  C   -0.029023  -0.005814  -0.001961   0.003110  -0.003238  -0.004397
     7  O    0.000654   0.000020  -0.000039  -0.000022   0.010865  -0.000310
     8  C   -0.000011   0.000001   0.000000   0.000002  -0.000311  -0.000045
     9  C    0.349885  -0.029200  -0.015067  -0.024522  -0.022834  -0.028505
    10  C   -0.044559   0.369479   0.367917   0.361194   0.005114  -0.006573
    11  C   -0.043044  -0.004466   0.003719  -0.009110   0.343854   0.341933
    12  C   -0.002955   0.000080   0.000097   0.001602  -0.015044  -0.014416
    13  O    0.000037  -0.000001  -0.000000  -0.000150  -0.001663  -0.001698
    14  H    0.000000   0.000000  -0.000000  -0.000000   0.000000   0.000000
    15  H   -0.000000  -0.000000   0.000000  -0.000000  -0.000000  -0.000000
    16  H   -0.000000   0.000000  -0.000000   0.000000   0.000000  -0.000000
    17  H   -0.000001  -0.000001  -0.000013  -0.000000   0.000000   0.000000
    18  H   -0.000000  -0.000000   0.000003  -0.000000  -0.000000  -0.000000
    19  H    0.005095   0.000071  -0.000223  -0.000010  -0.000013   0.000009
    20  H    0.000157   0.001772  -0.002061  -0.000140  -0.000001  -0.000002
    21  H    0.007104   0.005471  -0.000117  -0.000115   0.000174   0.005492
    22  H    0.000006   0.000000  -0.000000  -0.000000  -0.000041   0.000001
    23  H   -0.000017  -0.000000  -0.000001  -0.000000   0.000032   0.000000
    24  H    0.000037   0.000001   0.000000   0.000000   0.000035   0.000021
    25  H    0.667490   0.006134  -0.003224  -0.002386  -0.002366   0.006251
    26  H    0.006134   0.612188  -0.029657  -0.031791  -0.000042   0.005075
    27  H   -0.003224  -0.029657   0.538922  -0.030511  -0.000163  -0.000014
    28  H   -0.002386  -0.031791  -0.030511   0.616310   0.000133  -0.000075
    29  H   -0.002366  -0.000042  -0.000163   0.000133   0.552726  -0.023784
    30  H    0.006251   0.005075  -0.000014  -0.000075  -0.023784   0.590111
    31  H    0.004304   0.000158  -0.000043   0.004925   0.004304   0.005354
              31
     1  C   -0.000000
     2  C    0.000000
     3  O    0.000000
     4  C    0.000030
     5  O   -0.000000
     6  C    0.000023
     7  O   -0.000009
     8  C    0.000000
     9  C    0.014425
    10  C   -0.003573
    11  C   -0.130913
    12  C    0.361940
    13  O   -0.051436
    14  H    0.000000
    15  H    0.000000
    16  H   -0.000000
    17  H   -0.000000
    18  H    0.000000
    19  H   -0.000001
    20  H   -0.000000
    21  H    0.000018
    22  H    0.000000
    23  H   -0.000000
    24  H    0.000000
    25  H    0.004304
    26  H    0.000158
    27  H   -0.000043
    28  H    0.004925
    29  H    0.004304
    30  H    0.005354
    31  H    0.700785
 Mulliken charges:
               1
     1  C   -0.387441
     2  C   -0.040255
     3  O   -0.242212
     4  C    0.157838
     5  O   -0.383833
     6  C    0.030284
     7  O   -0.279876
     8  C   -0.219323
     9  C   -0.010598
    10  C   -0.408470
    11  C   -0.279575
    12  C    0.162175
    13  O   -0.282492
    14  H    0.116771
    15  H    0.125350
    16  H    0.122170
    17  H    0.108619
    18  H    0.091331
    19  H    0.099504
    20  H    0.283234
    21  H    0.068997
    22  H    0.112967
    23  H    0.129718
    24  H    0.103654
    25  H    0.087618
    26  H    0.100904
    27  H    0.155343
    28  H    0.110375
    29  H    0.152028
    30  H    0.125487
    31  H    0.089709
 Sum of Mulliken charges =  -0.00000
 Mulliken charges with hydrogens summed into heavy atoms:
               1
     1  C   -0.023151
     2  C    0.159694
     3  O   -0.242212
     4  C    0.257342
     5  O   -0.100598
     6  C    0.099281
     7  O   -0.279876
     8  C    0.127016
     9  C    0.077020
    10  C   -0.041848
    11  C   -0.002060
    12  C    0.251884
    13  O   -0.282492
 Electronic spatial extent (au):  <R**2>=           3663.7207
 Charge=             -0.0000 electrons
 Dipole moment (field-independent basis, Debye):
    X=              4.1011    Y=             -0.9350    Z=              0.2248  Tot=              4.2123
 Quadrupole moment (field-independent basis, Debye-Ang):
   XX=            -98.4673   YY=            -80.7747   ZZ=            -75.6300
   XY=              4.4892   XZ=              1.2069   YZ=             -0.7961
 Traceless Quadrupole moment (field-independent basis, Debye-Ang):
   XX=            -13.5099   YY=              4.1827   ZZ=              9.3273
   XY=              4.4892   XZ=              1.2069   YZ=             -0.7961
 Octapole moment (field-independent basis, Debye-Ang**2):
  XXX=            167.1807  YYY=             13.1736  ZZZ=              4.3232  XYY=              1.0953
  XXY=            -21.3136  XXZ=            -16.0651  XZZ=             -0.4821  YZZ=             -4.6418
  YYZ=              4.5020  XYZ=             -2.2380
 Hexadecapole moment (field-independent basis, Debye-Ang**3):
 XXXX=          -4500.1711 YYYY=           -784.9211 ZZZZ=           -159.8105 XXXY=             47.1871
 XXXZ=             30.7473 YYYX=              4.1866 YYYZ=            -11.5618 ZZZX=              4.1386
 ZZZY=             -7.1090 XXYY=           -743.1705 XXZZ=           -630.2474 YYZZ=           -155.6455
 XXYZ=             -6.1209 YYXZ=              8.3189 ZZXY=             -9.1412
 N-N= 8.766704005067D+02 E-N=-3.282402371235D+03  KE= 6.499325150735D+02
 PrsmSu:  requested number of processors reduced to:  13 ShMem   1 Linda.
 Calling FoFJK, ICntrl=      2127 FMM=F ISym2X=0 I1Cent= 0 IOpClX= 0 NMat=1 NMatS=1 NMatT=0.
 ***** Axes restored to original set *****
 -------------------------------------------------------------------
 Center     Atomic                   Forces (Hartrees/Bohr)
 Number     Number              X              Y              Z
 -------------------------------------------------------------------
      1        6          -0.005584214   -0.004516488   -0.002018443
      2        6          -0.007345570   -0.000494617    0.007040268
      3        8           0.008153892   -0.005642967   -0.011407756
      4        6          -0.013401852   -0.004723022    0.015032688
      5        8           0.007213849   -0.002082156   -0.001394219
      6        6           0.001481555   -0.002696935   -0.014500502
      7        8           0.002681487    0.011991503    0.009843795
      8        6           0.001639074   -0.001124630   -0.010166146
      9        6          -0.004416763   -0.001518141    0.000323173
     10        6           0.005092636    0.008849451   -0.001836818
     11        6          -0.001136462    0.007777445   -0.003687971
     12        6           0.019702293   -0.043296191    0.008479409
     13        8          -0.018965626    0.033838612   -0.006414793
     14        1          -0.002211817    0.000526391   -0.000171968
     15        1          -0.000046204    0.002423700    0.000410101
     16        1          -0.001545855    0.001562484   -0.000690152
     17        1           0.003375873    0.002150153   -0.002407918
     18        1           0.002747354    0.001721107   -0.001498097
     19        1           0.003326117    0.005594741    0.003591575
     20        1           0.002120854    0.005728867   -0.004307534
     21        1          -0.002663810    0.002294627    0.004738872
     22        1           0.008249997   -0.006930559    0.001210734
     23        1          -0.001709976   -0.001017139    0.006043139
     24        1          -0.002626074    0.001703334    0.000891677
     25        1          -0.002710394    0.000561138   -0.000114145
     26        1           0.001137434    0.001727546    0.001730898
     27        1          -0.004146653   -0.003274646    0.002846315
     28        1           0.002508823   -0.009575261    0.000546282
     29        1          -0.002629912   -0.001341218    0.002417891
     30        1          -0.000471243   -0.003448005   -0.000929351
     31        1           0.002181186    0.003230877   -0.003601005
 -------------------------------------------------------------------
 Cartesian Forces:  Max     0.043296191 RMS     0.008102263

 GradGradGradGradGradGradGradGradGradGradGradGradGradGradGradGradGradGrad
 Berny optimization.
 FormGI is forming the generalized inverse of G from B-inverse, IUseBI=4.
 Internal  Forces:  Max     0.039306475 RMS     0.007132120
 Search for a local minimum.
 Step number   1 out of a maximum of  160
 All quantities printed in internal units (Hartrees-Bohrs-Radians)
 Mixed Optimization -- RFO/linear search
 Second derivative matrix not updated -- first step.
 ITU=  0
     Eigenvalues ---    0.00230   0.00230   0.00230   0.00275   0.00619
     Eigenvalues ---    0.00619   0.00667   0.01048   0.01313   0.01400
     Eigenvalues ---    0.01453   0.01521   0.03494   0.04147   0.04244
     Eigenvalues ---    0.04547   0.04692   0.04894   0.05257   0.05271
     Eigenvalues ---    0.05317   0.05365   0.05569   0.05810   0.05890
     Eigenvalues ---    0.05905   0.06056   0.07198   0.09352   0.09839
     Eigenvalues ---    0.09942   0.10359   0.11113   0.12742   0.13591
     Eigenvalues ---    0.16000   0.16000   0.16000   0.16000   0.16000
     Eigenvalues ---    0.16000   0.16000   0.16000   0.16000   0.16000
     Eigenvalues ---    0.16000   0.16399   0.16585   0.16937   0.19362
     Eigenvalues ---    0.19861   0.20025   0.22000   0.22010   0.22030
     Eigenvalues ---    0.25000   0.25000   0.26353   0.26663   0.28381
     Eigenvalues ---    0.28777   0.31236   0.31606   0.33509   0.33728
     Eigenvalues ---    0.33879   0.33883   0.34154   0.34169   0.34245
     Eigenvalues ---    0.34250   0.34261   0.34265   0.34282   0.34314
     Eigenvalues ---    0.34558   0.34646   0.34687   0.34776   0.34914
     Eigenvalues ---    0.38423   0.41190   0.42153   0.42759   0.43542
     Eigenvalues ---    0.53040   0.90245
 RFO step:  Lambda=-3.45682164D-02 EMin= 2.30000000D-03
 Linear search not attempted -- first point.
 Maximum step size (   0.300) exceeded in Quadratic search.
    -- Step size scaled by   0.948
 Iteration  1 RMS(Cart)=  0.22126775 RMS(Int)=  0.01215732
 Iteration  2 RMS(Cart)=  0.03822100 RMS(Int)=  0.00073563
 Iteration  3 RMS(Cart)=  0.00057019 RMS(Int)=  0.00069824
 Iteration  4 RMS(Cart)=  0.00000049 RMS(Int)=  0.00069824
 Variable       Old X    -DE/DX   Delta X   Delta X   Delta X     New X
                                 (Linear)    (Quad)   (Total)
    R1        2.84872   0.00940   0.00000   0.02541   0.02541   2.87413
    R2        2.06254   0.00136   0.00000   0.00338   0.00338   2.06592
    R3        2.06892  -0.00053   0.00000  -0.00133  -0.00133   2.06759
    R4        2.06857   0.00002   0.00000   0.00006   0.00006   2.06863
    R5        2.68729   0.00655   0.00000   0.01362   0.01362   2.70091
    R6        2.06803   0.00074   0.00000   0.00186   0.00186   2.06990
    R7        2.07046   0.00278   0.00000   0.00700   0.00700   2.07746
    R8        2.67968   0.00174   0.00000   0.00357   0.00357   2.68325
    R9        2.67007   0.00092   0.00000   0.00185   0.00185   2.67192
   R10        2.95158   0.00297   0.00000   0.00935   0.00935   2.96093
   R11        2.07535  -0.00024   0.00000  -0.00060  -0.00060   2.07474
   R12        1.83616  -0.00684   0.00000  -0.01148  -0.01148   1.82469
   R13        2.73754  -0.01113   0.00000  -0.02519  -0.02519   2.71235
   R14        2.95887  -0.00366   0.00000  -0.01163  -0.01163   2.94723
   R15        2.07527   0.00406   0.00000   0.01030   0.01030   2.08558
   R16        2.69968  -0.00463   0.00000  -0.00983  -0.00983   2.68984
   R17        2.06399   0.00206   0.00000   0.00513   0.00513   2.06912
   R18        2.06186  -0.00204   0.00000  -0.00507  -0.00507   2.05679
   R19        2.06918   0.00128   0.00000   0.00321   0.00321   2.07239
   R20        2.90471   0.00289   0.00000   0.00850   0.00850   2.91321
   R21        2.91313   0.00222   0.00000   0.00661   0.00661   2.91974
   R22        2.07791  -0.00061   0.00000  -0.00156  -0.00156   2.07635
   R23        2.06910   0.00063   0.00000   0.00159   0.00159   2.07069
   R24        2.05815  -0.00294   0.00000  -0.00726  -0.00726   2.05089
   R25        2.06040   0.00305   0.00000   0.00756   0.00756   2.06796
   R26        2.85565   0.00328   0.00000   0.00896   0.00896   2.86460
   R27        2.06885  -0.00014   0.00000  -0.00034  -0.00034   2.06850
   R28        2.07071   0.00064   0.00000   0.00162   0.00162   2.07232
   R29        2.32820  -0.03931   0.00000  -0.03976  -0.03976   2.28844
   R30        2.08166   0.00453   0.00000   0.01161   0.01161   2.09327
    A1        1.92171   0.00174   0.00000   0.00599   0.00597   1.92768
    A2        1.92604  -0.00045   0.00000  -0.00178  -0.00180   1.92424
    A3        1.92744   0.00221   0.00000   0.01278   0.01274   1.94017
    A4        1.91081  -0.00162   0.00000  -0.01181  -0.01181   1.89900
    A5        1.90833  -0.00227   0.00000  -0.01191  -0.01194   1.89640
    A6        1.86871   0.00029   0.00000   0.00636   0.00631   1.87502
    A7        1.87689   0.00303   0.00000   0.01467   0.01452   1.89142
    A8        1.91132   0.00217   0.00000   0.01720   0.01705   1.92837
    A9        1.92995   0.00035   0.00000   0.00138   0.00145   1.93140
   A10        1.90982  -0.00070   0.00000   0.00352   0.00318   1.91300
   A11        1.92530  -0.00226   0.00000  -0.01406  -0.01407   1.91123
   A12        1.91021  -0.00247   0.00000  -0.02177  -0.02178   1.88844
   A13        1.93603   0.01762   0.00000   0.05869   0.05869   1.99472
   A14        1.81911   0.01182   0.00000   0.07130   0.07137   1.89048
   A15        1.93887  -0.01143   0.00000  -0.03099  -0.03221   1.90666
   A16        1.92124   0.00083   0.00000  -0.00595  -0.00567   1.91557
   A17        1.97433   0.00461   0.00000   0.02833   0.02811   2.00244
   A18        1.92428  -0.00896   0.00000  -0.06108  -0.06068   1.86360
   A19        1.88581   0.00299   0.00000  -0.00185  -0.00200   1.88381
   A20        1.82531   0.00511   0.00000   0.02492   0.02492   1.85023
   A21        1.95142   0.00648   0.00000   0.03016   0.03351   1.98494
   A22        1.94616   0.02281   0.00000   0.09096   0.09099   2.03715
   A23        1.91304  -0.00811   0.00000  -0.00576  -0.00710   1.90594
   A24        1.88011  -0.02678   0.00000  -0.13213  -0.13265   1.74746
   A25        1.88049   0.00587   0.00000   0.01266   0.01050   1.89099
   A26        1.89037  -0.00113   0.00000  -0.00042  -0.00282   1.88755
   A27        1.98570   0.03380   0.00000   0.11258   0.11258   2.09828
   A28        1.91036  -0.01329   0.00000  -0.06499  -0.06499   1.84537
   A29        1.93726   0.00644   0.00000   0.03533   0.03545   1.97271
   A30        1.93781   0.00215   0.00000   0.00668   0.00640   1.94421
   A31        1.83303   0.00837   0.00000   0.04875   0.04918   1.88221
   A32        1.90512   0.00096   0.00000  -0.00321  -0.00367   1.90145
   A33        1.93709  -0.00468   0.00000  -0.02242  -0.02255   1.91454
   A34        1.95921   0.01596   0.00000   0.08445   0.08446   2.04367
   A35        1.93740  -0.01360   0.00000  -0.06995  -0.07061   1.86679
   A36        1.88748  -0.00287   0.00000  -0.02538  -0.02773   1.85975
   A37        1.90426  -0.00122   0.00000  -0.00080   0.00109   1.90535
   A38        1.89700  -0.00257   0.00000   0.01158   0.01149   1.90848
   A39        1.87619   0.00403   0.00000  -0.00199  -0.00371   1.87248
   A40        1.92530   0.00363   0.00000   0.01032   0.01011   1.93541
   A41        1.95857   0.00136   0.00000   0.01362   0.01374   1.97230
   A42        1.97671  -0.00843   0.00000  -0.04074  -0.04076   1.93595
   A43        1.91252  -0.00292   0.00000  -0.01473  -0.01479   1.89774
   A44        1.88876  -0.00027   0.00000  -0.01389  -0.01422   1.87453
   A45        1.79688   0.00663   0.00000   0.04598   0.04626   1.84315
   A46        1.95800   0.00963   0.00000   0.04164   0.04140   1.99940
   A47        1.93473  -0.00207   0.00000  -0.00893  -0.00887   1.92586
   A48        1.91739  -0.00129   0.00000   0.00200   0.00158   1.91897
   A49        1.86646  -0.00345   0.00000  -0.01390  -0.01387   1.85259
   A50        1.88676  -0.00220   0.00000   0.00068   0.00020   1.88696
   A51        1.89856  -0.00090   0.00000  -0.02341  -0.02352   1.87504
   A52        2.14777   0.00143   0.00000   0.00528   0.00509   2.15287
   A53        2.04486  -0.00072   0.00000  -0.00274  -0.00293   2.04194
   A54        2.09054  -0.00071   0.00000  -0.00270  -0.00289   2.08765
    D1        3.04846   0.00079   0.00000   0.01048   0.01055   3.05901
    D2        0.97471  -0.00133   0.00000  -0.01177  -0.01188   0.96284
    D3       -1.13164   0.00012   0.00000   0.00328   0.00328  -1.12836
    D4        0.93712   0.00197   0.00000   0.02248   0.02258   0.95970
    D5       -1.13662  -0.00015   0.00000   0.00023   0.00015  -1.13647
    D6        3.04021   0.00130   0.00000   0.01528   0.01531   3.05552
    D7       -1.12558   0.00052   0.00000   0.00781   0.00788  -1.11770
    D8        3.08386  -0.00159   0.00000  -0.01444  -0.01454   3.06932
    D9        0.97750  -0.00015   0.00000   0.00060   0.00061   0.97812
   D10        3.04874  -0.00049   0.00000   0.00035   0.00029   3.04903
   D11       -1.15975   0.00346   0.00000   0.03135   0.03132  -1.12843
   D12        0.94272  -0.00146   0.00000  -0.00215  -0.00206   0.94065
   D13        1.16194  -0.00249   0.00000  -0.01456  -0.01437   1.14757
   D14       -2.98954   0.00412   0.00000   0.04651   0.04632  -2.94322
   D15       -0.90145   0.00108   0.00000   0.02048   0.02047  -0.88097
   D16        1.13941  -0.00299   0.00000  -0.00595  -0.00427   1.13513
   D17       -0.96876   0.00075   0.00000  -0.02998  -0.03107  -0.99983
   D18       -3.08247   0.00019   0.00000  -0.00304  -0.00363  -3.08610
   D19        1.11334   0.00135   0.00000  -0.01403  -0.01441   1.09894
   D20       -3.06377  -0.01253   0.00000  -0.09888  -0.09831   3.12110
   D21       -0.97071  -0.00475   0.00000  -0.04518  -0.04468  -1.01539
   D22       -3.13108   0.01160   0.00000   0.07371   0.07301  -3.05807
   D23       -1.02501  -0.00228   0.00000  -0.01114  -0.01090  -1.03590
   D24        1.06805   0.00550   0.00000   0.04255   0.04274   1.11079
   D25       -0.99575   0.00536   0.00000   0.01341   0.01266  -0.98309
   D26        1.11032  -0.00851   0.00000  -0.07144  -0.07124   1.03907
   D27       -3.07981  -0.00074   0.00000  -0.01775  -0.01761  -3.09742
   D28       -1.09936  -0.00038   0.00000  -0.11718  -0.11745  -1.21681
   D29        3.03972  -0.01481   0.00000  -0.16016  -0.15967   2.88004
   D30        1.00379  -0.00264   0.00000  -0.09773  -0.09794   0.90585
   D31        0.99889   0.00331   0.00000   0.08217   0.08398   1.08287
   D32        3.13531   0.00322   0.00000   0.09052   0.09069  -3.05718
   D33       -1.09372  -0.00139   0.00000   0.03275   0.03498  -1.05874
   D34       -3.13696   0.00780   0.00000   0.08828   0.08682  -3.05014
   D35       -1.00054   0.00772   0.00000   0.09664   0.09353  -0.90701
   D36        1.05361   0.00310   0.00000   0.03886   0.03782   1.09143
   D37       -1.10749   0.00001   0.00000   0.03332   0.03419  -1.07330
   D38        1.02893  -0.00008   0.00000   0.04167   0.04091   1.06984
   D39        3.08308  -0.00470   0.00000  -0.01610  -0.01481   3.06827
   D40       -3.00458   0.00592   0.00000   0.06516   0.06442  -2.94016
   D41        1.26323  -0.00006   0.00000   0.02420   0.02465   1.28788
   D42       -0.90020  -0.00021   0.00000   0.02283   0.02310  -0.87710
   D43        0.97302  -0.00337   0.00000  -0.02052  -0.02076   0.95226
   D44       -1.16486  -0.00317   0.00000  -0.01851  -0.01876  -1.18362
   D45        3.09292  -0.00693   0.00000  -0.05932  -0.05932   3.03360
   D46       -1.18207   0.00398   0.00000   0.01166   0.01116  -1.17091
   D47        2.96323   0.00418   0.00000   0.01366   0.01315   2.97638
   D48        0.93783   0.00041   0.00000  -0.02714  -0.02741   0.91042
   D49        3.06008   0.00127   0.00000   0.00799   0.00850   3.06859
   D50        0.92220   0.00147   0.00000   0.01000   0.01050   0.93270
   D51       -1.10320  -0.00229   0.00000  -0.03081  -0.03006  -1.13326
   D52        3.10608  -0.00846   0.00000  -0.09081  -0.09087   3.01520
   D53        1.02083  -0.00909   0.00000  -0.09487  -0.09483   0.92600
   D54       -1.07800  -0.00581   0.00000  -0.06126  -0.06116  -1.13916
   D55       -1.00912   0.00168   0.00000  -0.03179  -0.03187  -1.04098
   D56       -3.09436   0.00105   0.00000  -0.03585  -0.03582  -3.13019
   D57        1.08999   0.00433   0.00000  -0.00224  -0.00215   1.08784
   D58        1.04507   0.00022   0.00000  -0.01958  -0.01970   1.02536
   D59       -1.04017  -0.00041   0.00000  -0.02364  -0.02366  -1.06384
   D60       -3.13901   0.00288   0.00000   0.00997   0.01001  -3.12900
   D61        3.05001   0.00052   0.00000   0.00480   0.00491   3.05492
   D62       -0.09647  -0.00105   0.00000  -0.03169  -0.03158  -0.12805
   D63       -1.10842   0.00152   0.00000   0.00985   0.00979  -1.09863
   D64        2.02829  -0.00005   0.00000  -0.02664  -0.02670   2.00159
   D65        0.93321  -0.00245   0.00000  -0.02441  -0.02446   0.90874
   D66       -2.21327  -0.00402   0.00000  -0.06091  -0.06096  -2.27423
         Item               Value     Threshold  Converged?
 Maximum Force            0.039306     0.000450     NO 
 RMS     Force            0.007132     0.000300     NO 
 Maximum Displacement     0.981156     0.001800     NO 
 RMS     Displacement     0.249146     0.001200     NO 
 Predicted change in Energy=-2.142998D-02
 GradGradGradGradGradGradGradGradGradGradGradGradGradGradGradGradGradGrad

                          Input orientation:                          
 ---------------------------------------------------------------------
 Center     Atomic      Atomic             Coordinates (Angstroms)
 Number     Number       Type             X           Y           Z
 ---------------------------------------------------------------------
      1          6           0        0.878952   -0.111520   -0.181053
      2          6           0        2.379129    0.126952   -0.104864
      3          8           0        3.009697   -1.093286    0.290338
      4          6           0        4.428793   -1.045263    0.286657
      5          8           0        4.845100   -0.132864    1.283344
      6          6           0        4.995054   -2.497136    0.449298
      7          8           0        4.648273   -3.376681   -0.630641
      8          6           0        3.302816   -3.810110   -0.797857
      9          6           0        6.547152   -2.649680    0.439430
     10          6           0        7.329624   -1.939277    1.561751
     11          6           0        6.851527   -4.163664    0.488693
     12          6           0        8.314843   -4.518135    0.312750
     13          8           0        8.742933   -5.646679    0.410882
     14          1           0        0.354369    0.822433   -0.399497
     15          1           0        0.510000   -0.509371    0.769049
     16          1           0        0.633785   -0.841157   -0.959408
     17          1           0        2.606046    0.911227    0.625339
     18          1           0        2.771704    0.443371   -1.081757
     19          1           0        4.784194   -0.649386   -0.673745
     20          1           0        4.571957   -0.516400    2.126339
     21          1           0        4.612783   -2.932756    1.388511
     22          1           0        3.340406   -4.616277   -1.537825
     23          1           0        2.649679   -3.030966   -1.186409
     24          1           0        2.890480   -4.205144    0.138408
     25          1           0        6.891995   -2.278909   -0.535700
     26          1           0        6.954551   -2.235849    2.547682
     27          1           0        7.292167   -0.857317    1.485598
     28          1           0        8.391623   -2.200478    1.523433
     29          1           0        6.313763   -4.686080   -0.308834
     30          1           0        6.511571   -4.582779    1.443346
     31          1           0        9.003176   -3.693089    0.043460
 ---------------------------------------------------------------------
                    Distance matrix (angstroms):
                    1          2          3          4          5
     1  C    0.000000
     2  C    1.520923   0.000000
     3  O    2.392937   1.429259   0.000000
     4  C    3.700271   2.393428   1.419913   0.000000
     5  O    4.227913   2.841767   2.297210   1.413919   0.000000
     6  C    4.799042   3.746464   2.436740   1.566856   2.511553
     7  O    5.007113   4.207244   2.957537   2.514978   3.771528
     8  C    4.464878   4.102914   2.941296   3.176220   4.498019
     9  C    6.241454   5.037694   3.867581   2.661755   3.153337
    10  C    6.927427   5.617323   4.581917   3.292408   3.084396
    11  C    7.248454   6.226077   4.922014   3.954097   4.572151
    12  C    8.657631   7.548771   6.314639   5.211805   5.675541
    13  O    9.634862   8.608067   7.322425   6.308745   6.808557
    14  H    1.093240   2.161054   3.346135   4.534316   4.889909
    15  H    1.094122   2.159230   2.611246   3.984573   4.381706
    16  H    1.094674   2.171108   2.696366   3.999553   4.823566
    17  H    2.163130   1.095342   2.072011   2.695360   2.556651
    18  H    2.168336   1.099343   2.073789   2.614294   3.197611
    19  H    3.972778   2.590495   2.067690   1.097907   2.025019
    20  H    4.373360   3.193848   2.478781   1.919537   0.965582
    21  H    4.936031   4.072001   2.675728   2.193300   2.811481
    22  H    5.309654   5.047342   3.982840   4.155173   5.506732
[...]
 ,0.01421509,-0.02392985,-0.00287001,-0.00155414,0.00356770,0.00156286,
 -0.00010062,-0.00008833,-0.00029535,-0.00005082,0.00014523,-0.00000038
 ,-0.00000113,-0.00000171,-0.00000570,0.00000016,0.00000503,-0.00000578
 ,-0.00000159,-0.00000318,0.00000036,-0.00000499,-0.00000573,0.00001094
 ,0.00000918,0.00000881,0.00023673,-0.00050232,0.00031399,-0.00026251,0
 .00018838,-0.00007622,-0.00023866,-0.00004021,0.00059758,0.00005089,0.
 00002429,-0.00000775,0.00002999,-0.00000056,-0.00001873,-0.00006570,-0
 .00005793,-0.00004535,-0.07966007,-0.10579551,0.19903970,0.,-0.0000057
 8,0.00000390,-0.00003267,0.00004395,-0.00002111,0.00005679,-0.00006463
 ,0.00006429,-0.00013425,0.00015304,-0.00021281,0.00007742,-0.00013912,
 0.00022429,0.00140097,0.00079117,-0.00126340,0.00009173,0.00009076,0.0
 0024117,-0.00006802,-0.00009436,0.00011310,0.00487415,0.00627034,-0.01
 032577,-0.09623062,-0.05419999,0.08649436,-0.00001512,0.00020355,0.000
 40331,-0.00027394,-0.00045549,-0.00006254,0.00011798,0.00020468,-0.000
 09452,0.00000519,-0.00000317,0.00000155,-0.00000120,0.00000283,-0.0000
 0140,0.00000022,0.00000247,-0.00000119,-0.00000193,-0.00000569,0.00000
 073,0.00000568,-0.00000902,0.00000727,-0.00004466,-0.00003460,0.000073
 51,-0.00011340,0.00015325,-0.00003369,0.00003581,-0.00018957,0.0002883
 6,0.00002195,0.00002148,0.00001317,-0.00000003,0.00000461,-0.00001375,
 -0.00000794,-0.00000823,-0.00001587,-0.00032295,-0.00071521,-0.0025822
 7,0.10258349,-0.00000380,0.00000223,0.00000984,-0.00000149,-0.00001024
 ,0.00000491,0.00009604,0.00006658,-0.00002717,-0.00015841,-0.00013411,
 -0.00013531,0.00052205,0.00013891,-0.00010337,0.00001870,0.00022230,0.
 00041207,0.00021101,0.00003051,-0.00018793,0.00002440,-0.00001530,0.00
 007953,0.00527225,0.00402117,-0.00823545,-0.05455803,-0.10692012,0.093
 08543,0.00044724,0.00146270,-0.00076946,0.00022165,0.00017933,0.000052
 25,-0.00007284,-0.00007153,0.00002696,0.00000002,0.00000117,-0.0000021
 8,0.00000664,-0.00000043,-0.00000432,0.00000216,-0.00000014,-0.0000013
 7,-0.00000678,0.00000406,0.00000242,0.00000206,0.00000117,-0.00001042,
 -0.00006123,0.00001157,-0.00005400,0.00040809,-0.00028728,0.00019938,0
 .00032353,0.00011382,0.00008111,0.00000963,0.00000555,-0.00000848,0.00
 001257,-0.00000201,0.00000796,-0.00002281,0.00000153,0.00000154,-0.000
 69113,0.00005309,-0.00206946,0.06109216,0.11129676,0.00000247,0.000011
 48,-0.00000731,0.00000017,-0.00002719,-0.00000899,-0.00020325,0.000107
 99,0.00007767,0.00002591,-0.00013120,-0.00015765,-0.00012474,0.0000103
 9,0.00015298,0.00251311,0.00074899,0.00024246,-0.00012612,-0.00033399,
 0.00069738,-0.00001528,0.00009178,-0.00006020,0.01250898,0.01444285,-0
 .02473804,0.08598155,0.09182881,-0.19245502,0.00001281,0.00163358,0.00
 065341,0.00000077,0.00010018,-0.00025282,0.00013197,-0.00011073,0.0002
 4830,-0.00000577,-0.00000169,0.00000126,-0.00000577,0.00000072,0.00000
 508,-0.00000081,-0.00000057,-0.00000130,-0.00000105,0.00000502,-0.0000
 0116,0.00000259,0.00000027,0.00000950,0.00005631,-0.00017286,0.0001613
 4,-0.00016564,0.00023906,-0.00001994,-0.00129647,-0.00020501,0.0005612
 7,0.00000279,-0.00001312,0.00001236,-0.00002879,-0.00000402,0.00001635
 ,-0.00002157,-0.00006643,0.00000782,-0.00272418,-0.00274735,-0.0045323
 1,-0.09339229,-0.10155896,0.21450093,-0.00000977,-0.00002147,0.0000363
 1,-0.00023250,0.00032003,-0.00026337,0.00103600,0.00031049,0.00056767,
 -0.00166661,-0.00215822,-0.00281131,-0.00149724,0.00255894,0.00111757,
 0.00071632,-0.00063912,0.00058473,-0.00002194,0.00056987,0.00008873,-0
 .00008530,-0.00008627,0.00007474,0.00121009,-0.01264606,0.00011684,-0.
 05150991,0.03706284,0.00583123,-0.00007301,-0.00066531,-0.00215107,-0.
 00091460,0.00003678,-0.00074951,0.00052821,-0.00018708,0.00053855,0.00
 003481,-0.00001650,0.00000471,-0.00000455,0.00000745,-0.00000737,0.000
 02060,0.00001432,-0.00000036,-0.00006696,0.00004253,-0.00001479,0.0000
 1413,-0.00003166,0.00005734,0.00001851,0.00012632,0.00023190,-0.001688
 09,0.00062727,0.00017632,-0.00003133,0.00002084,0.00003268,0.00002672,
 0.00002954,0.00000776,-0.00003175,-0.00003144,-0.00001340,0.00001750,0
 .00004204,-0.00003282,0.00038660,0.00058416,0.00029247,0.00150992,-0.0
 1598049,-0.00226933,0.05496985,-0.00000673,0.00001391,-0.00000211,0.00
 000512,-0.00001876,-0.00000460,0.00010643,0.00013815,0.00005454,-0.000
 69789,-0.00028386,-0.00033515,0.00503167,-0.00305845,0.00204604,0.0003
 7299,-0.00007279,-0.00019316,-0.00017121,0.00009296,-0.00002897,0.0000
 5765,0.00002017,0.00001595,0.00106473,-0.00840672,-0.00035386,0.033924
 39,-0.31575980,-0.03013483,-0.00090664,0.00049392,-0.00192484,-0.00074
 107,0.00006734,0.00012754,0.00025288,-0.00006504,0.00006162,-0.0000008
 7,-0.00000097,0.00000119,-0.00000241,-0.00000115,0.00000127,0.00001123
 ,0.00000159,0.00000275,-0.00002298,0.00003409,-0.00000338,0.00000027,0
 .00000003,0.00000676,-0.00000318,0.00002814,0.00004581,-0.00049513,0.0
 0029438,0.00002597,-0.00011820,0.00001241,0.00001562,0.00000232,-0.000
 00004,-0.00000148,-0.00003142,-0.00000511,-0.00000202,0.00000808,0.000
 00383,-0.00000875,0.00010633,0.00073075,-0.00003245,0.00251979,-0.0128
 0019,-0.00182562,-0.04114451,0.34224673,-0.00001040,-0.00000155,0.0000
 1495,-0.00012985,0.00014757,-0.00010518,0.00055656,0.00032823,0.000244
 31,-0.00148280,-0.00111150,-0.00140002,0.00034725,0.00054400,0.0001181
 9,0.00054306,-0.00022758,0.00061577,-0.00005136,0.00041191,0.00003722,
 0.00002327,0.00001801,0.00003715,0.00533349,-0.02906176,-0.00257192,0.
 00508399,-0.02635661,-0.05049614,-0.00252845,-0.00107435,-0.00557582,-
 0.00153997,0.00019602,-0.00003172,0.00048283,-0.00011491,0.00032261,0.
 00001384,-0.00000703,0.00000277,0.00000202,0.00000464,-0.00000521,0.00
 001639,0.00000793,0.00000047,-0.00003658,0.00003191,-0.00000226,0.0000
 0487,-0.00001771,0.00001590,-0.00002660,0.00001493,-0.00003849,0.00062
 476,0.00005524,0.00055351,-0.00013682,0.00011523,-0.00000769,0.0000259
 3,0.00000789,0.00000840,-0.00004376,-0.00002408,0.00000004,0.00001778,
 0.00001002,-0.00002409,0.00077529,0.00039115,0.00119307,-0.00455967,0.
 02457491,0.00318464,-0.00406218,0.03254427,0.05505213,-0.00000371,0.00
 002721,-0.00001653,0.00009372,-0.00019007,0.00011191,-0.00035281,0.000
 20413,-0.00015035,0.00040478,-0.00021948,0.00039063,-0.00044238,0.0004
 6964,-0.00025705,0.00145761,-0.00060863,-0.00155990,-0.00088200,-0.000
 40053,-0.00046954,0.00029162,0.00028552,-0.00023555,-0.01151273,0.0018
 5769,-0.00019590,-0.29779758,0.05152345,-0.01068034,0.00084739,0.00058
 379,0.00077571,-0.00060846,-0.00030072,-0.00101835,0.00045613,0.000278
 20,0.00094814,-0.00002203,0.00001168,-0.00000393,0.00000323,-0.0000075
 1,0.00000320,0.,-0.00000803,0.00000439,0.00000808,0.00001543,0.0000003
 8,-0.00000672,0.00001888,-0.00002628,-0.00003528,0.00003685,-0.0000628
 7,0.00022703,-0.00018990,-0.00008104,0.00040573,-0.00004853,-0.0001096
 7,-0.00008258,-0.00005854,-0.00001822,-0.00005475,-0.00002184,0.000021
 09,-0.00002887,-0.00001668,0.00007128,0.00044505,0.00014226,-0.0003012
 3,-0.01378029,0.00331549,-0.00044885,-0.00311140,0.00030598,0.00030174
 ,0.32406180,-0.00000858,0.00000828,0.00001086,-0.00007439,0.00007072,-
 0.00007842,0.00041443,0.00026394,0.00022590,-0.00084294,-0.00112283,-0
 .00115611,0.00216282,-0.00073702,0.00162069,-0.00009311,-0.00047061,-0
 .00182548,-0.00097920,-0.00020639,-0.00069918,0.00005956,0.00017916,-0
 .00016991,-0.01173082,0.00078254,-0.00052358,0.05349773,-0.05763340,0.
 00192818,-0.00075561,0.00051351,0.00026650,-0.00044538,0.00028370,-0.0
 0163387,0.00045788,-0.00044190,0.00063007,0.00000712,-0.00000454,0.000
 00115,-0.00000098,0.00000091,-0.00000214,0.00001359,0.00000452,0.00000
 129,-0.00003315,0.00003461,-0.00000541,0.00000421,-0.00000711,0.000018
 77,0.00000012,0.00007651,0.00006961,-0.00061058,0.00013634,0.00011398,
 0.00028934,-0.00005238,-0.00012475,-0.00005361,-0.00002545,-0.00000506
 ,-0.00006157,-0.00005100,0.00000748,-0.00000310,-0.00000352,0.00004374
 ,0.00048353,0.00013244,0.00028890,-0.01610372,0.00264073,-0.00071276,0
 .03148804,-0.00364958,0.00071156,-0.05696323,0.05934671,-0.00000766,0.
 00002724,-0.00001893,0.00000459,-0.00009502,0.00004183,-0.00014266,0.0
 0032680,0.00003031,-0.00004244,-0.00084593,-0.00012091,0.00021833,0.00
 028947,0.00050162,0.00195688,-0.00162840,-0.00448061,-0.00247199,-0.00
 102391,-0.00054901,0.00017728,0.00045251,-0.00057482,-0.03115219,0.005
 29777,-0.00231294,-0.00934965,0.00185530,-0.04640291,0.00008477,0.0009
 5386,0.00139318,-0.00045636,-0.00119295,-0.00030886,0.00048865,-0.0000
 8248,-0.00018604,-0.00001477,0.00000535,0.00000083,-0.00000225,-0.0000
 0336,0.00000339,0.00000841,-0.00000158,0.00000621,-0.00001145,0.000032
 75,-0.00000276,-0.00000302,0.00000715,-0.00000603,-0.00002512,0.000046
 67,0.00003785,-0.00032835,0.00016973,-0.00008168,-0.00022993,-0.000229
 46,0.00030107,-0.00015371,-0.00011399,0.00000193,-0.00013054,-0.000058
 80,0.00003066,-0.00000443,-0.00005747,0.00009516,0.00056270,0.00065163
 ,0.00094972,0.02451776,-0.00598028,0.00080324,0.00314611,0.00005059,-0
 .00084764,0.01308979,0.00065932,0.05193972,0.00001417,-0.00001768,0.00
 002842,-0.00008133,0.00020468,-0.00005810,0.00001869,-0.00031780,0.000
 02754,0.00032804,0.00048870,-0.00025915,-0.00019332,-0.00050836,-0.000
 32569,0.00031251,0.00011038,0.00118023,-0.00367988,0.00210423,-0.00056
 936,-0.00162180,-0.00073146,-0.00006551,0.00533598,0.00147775,0.006688
 40,-0.00072373,0.00247308,0.00033673,-0.09984787,-0.04851276,-0.102776
 57,-0.01745990,-0.00924633,-0.03125278,-0.00280354,0.00226051,0.004497
 75,0.00001814,-0.00001930,0.00000014,-0.00000192,0.00000817,-0.0000038
 5,-0.00001992,0.00000349,-0.00001574,0.00000426,-0.00004619,-0.0000051
 7,0.00000976,-0.00001279,0.00001971,0.00000133,-0.00000570,0.00001908,
 0.00006720,0.00001799,0.00006720,-0.00006278,-0.00011124,-0.00027665,0
 .00000259,0.00007322,-0.00001838,0.00039307,0.00012818,-0.00002418,0.0
 0007922,0.00014823,-0.00001914,0.00029245,-0.00025267,-0.00026963,0.00
 001510,-0.00014263,-0.00027098,0.00047347,0.00044582,0.00051336,-0.000
 04770,0.00002371,-0.00001543,0.11281993,-0.00000791,0.00002372,-0.0000
 1789,0.00006708,-0.00016653,0.00005346,-0.00008148,0.00038212,0.000062
 36,-0.00040931,-0.00073806,-0.00032802,0.00033146,0.00036085,0.0004992
 3,-0.00134795,0.00038377,-0.00176629,-0.00016767,0.00005699,0.00087973
 ,0.00094614,0.00146381,0.00027542,-0.01392273,-0.01321071,-0.02665959,
 0.00231479,-0.00641661,0.00026910,-0.04396913,-0.06592664,-0.06484546,
 0.00353222,-0.00024860,0.00315683,0.00077896,-0.00079055,-0.00150589,-
 0.00001596,0.00001125,-0.00000128,-0.00000151,-0.00000641,0.00000536,0
 .00001624,-0.00000279,0.00000919,-0.00001250,0.00004888,0.00000396,-0.
 00000461,0.00000610,-0.00000695,-0.00000071,-0.00004172,0.00001933,-0.
 00015618,0.00001870,-0.00004932,0.00006919,0.00008651,0.00029503,-0.00
 003227,-0.00004153,-0.00010321,-0.00045830,-0.00026450,0.00006632,-0.0
 0016993,-0.00020604,0.00020249,-0.00038985,0.00089370,0.00039036,0.000
 18337,0.00005109,-0.00013190,-0.00053663,-0.00048486,-0.00202709,0.000
 19874,0.00014852,0.00048516,0.04435243,0.07865153,-0.00000135,-0.00001
 042,0.00000098,-0.00000818,0.00003784,-0.00000033,0.00014466,0.0000327
 9,0.00007453,-0.00017372,-0.00012258,-0.00032199,0.00017796,-0.0000158
 3,0.00013917,-0.00128896,-0.00102134,-0.00109481,-0.00266480,0.0031191
 1,0.00020204,0.00035849,-0.00021322,0.00024243,-0.00118004,-0.00277646
 ,-0.00510271,0.00038778,-0.00216914,0.00101352,-0.09313294,-0.06655208
 ,-0.22003732,-0.00110722,0.00425066,0.00458161,0.00079316,-0.00252429,
 0.00052527,0.00000679,-0.00000109,0.00000112,-0.00000012,0.00000088,-0
 .00000143,0.00000446,0.00000246,0.00000311,-0.00000612,0.00000946,-0.0
 0000183,0.00000215,-0.00000697,0.00000246,0.00000327,0.00001779,0.0000
 0174,-0.00007419,0.00003425,0.00000317,0.00007721,-0.00006539,-0.00004
 429,0.00000160,0.00000029,-0.00002105,0.00003963,0.00004667,-0.0000583
 9,0.00015443,0.00003760,-0.00015672,0.00022403,-0.00020648,0.00056325,
 -0.00003421,0.00024752,0.00042167,-0.00046040,-0.00010352,-0.00036928,
 -0.00009701,0.00019032,0.00000464,0.11052534,0.07653281,0.23815393,0.0
 0000169,0.00000291,-0.00000068,0.00000839,-0.00001597,0.00000952,-0.00
 009725,-0.00002898,0.00002643,0.00015161,0.00014975,0.00008887,-0.0001
 1414,0.00000511,-0.00003446,0.00118069,0.00001052,-0.00074455,-0.00043
 798,-0.00041694,0.00035073,-0.00001873,0.00029947,-0.00020309,0.002112
 00,0.00519398,-0.00756254,-0.00005637,-0.00048311,-0.00020697,-0.06477
 864,-0.03631791,0.05105254,-0.01095118,-0.02190902,0.03101489,0.005525
 15,0.00073524,-0.00373211,-0.00000230,-0.00000066,-0.00000010,-0.00000
 057,0.00000092,0.00000092,-0.00000268,-0.00000124,-0.00000221,0.000001
 76,-0.00000434,0.00000037,0.00000275,0.00000008,-0.00000004,-0.0000511
 5,-0.00005595,0.00006185,0.00002355,0.00000720,0.00000044,-0.00008007,
 -0.00013364,0.00025518,-0.00000302,-0.00002994,0.00002526,-0.00007105,
 -0.00005018,0.00003407,-0.00011676,-0.00005162,0.00004390,-0.00007200,
 0.00183400,0.00060340,0.00010446,-0.00022865,0.00008199,-0.00009897,0.
 00003465,-0.00013187,-0.00008613,-0.00011690,0.00013130,0.00493082,0.0
 0921252,-0.01144852,0.06929624,-0.00000232,-0.00001434,0.00000635,-0.0
 0002457,0.00006079,-0.00001640,0.00023975,-0.00010518,-0.00007374,-0.0
 0008407,0.00003848,-0.00011820,0.00001064,0.00001488,-0.00012656,-0.00
 152481,0.00056439,0.00030404,0.00022586,0.00025364,0.00014584,-0.00004
 546,-0.00021095,0.00019775,-0.00906255,-0.01816777,0.02352397,-0.00009
 155,0.00191967,0.00188993,-0.03927656,-0.13037590,0.11377678,0.0003573
 8,0.00072628,-0.00197466,-0.00014602,-0.00007048,-0.00125180,0.0000083
 4,0.00000017,0.00000109,0.00000242,0.00000115,-0.00000326,0.00000281,0
 .00000255,0.00000141,0.00000077,-0.00000537,0.00000241,-0.00000250,-0.
 00000793,0.,-0.00003793,0.00020137,-0.00015235,0.00006847,-0.00003954,
 0.00002526,0.00075919,0.00011659,-0.00036389,0.00002395,0.00003626,-0.
 00001411,-0.00000127,0.00002084,-0.00004955,0.00005416,0.00011064,-0.0
 0005620,0.00185420,-0.00558289,-0.00110344,0.00022687,-0.00005687,-0.0
 0110828,0.00029650,0.00037544,-0.00011510,-0.00026558,-0.00008517,-0.0
 0012649,0.00380171,0.00609179,-0.00843312,0.04185117,0.14321223,0.0000
 0283,0.00000748,0.00000064,-0.00001192,0.00000627,-0.00000749,-0.00007
 690,0.00003562,-0.00002404,-0.00012168,-0.00009383,0.00009490,0.000006
 04,-0.00001783,-0.00004338,0.00007232,0.00045101,0.00006194,-0.0007839
 9,-0.00023678,0.00019942,0.00023040,0.00056825,-0.00033544,-0.00193214
 ,-0.00346658,0.00407234,-0.00044666,-0.00066226,0.00132117,0.05492477,
 0.11360115,-0.20673833,-0.00036596,0.00460434,-0.00641364,-0.00082965,
 -0.00232052,0.00166729,-0.00000233,-0.00000328,0.00000028,-0.00000166,
 0.00000139,0.00000269,-0.00000293,-0.00000053,-0.00000435,-0.00000044,
 -0.00000283,0.00000033,-0.00000110,-0.00000045,0.00000387,0.00005104,-
 0.00004822,-0.00001689,0.00002431,0.00000494,0.00000606,-0.00028971,0.
 00016964,0.00009267,0.00000969,-0.00003806,0.00003395,-0.00006760,-0.0
 0009869,0.00010702,-0.00016857,-0.00017693,0.00020966,0.00030817,-0.00
 169928,0.00071212,0.00021201,0.00027076,0.00033488,-0.00004383,0.00002
 327,0.00018923,-0.00002818,0.00008303,-0.00003774,0.00884477,0.0141554
 1,-0.01812238,-0.06064226,-0.12567826,0.22124052,-0.00000574,0.0000131
 7,-0.00000981,0.00000803,-0.00006946,0.00005940,-0.00007040,0.00015891
 ,-0.00005659,-0.00011333,-0.00021754,-0.00007504,0.00001134,0.00008163
 ,0.00002446,0.00003257,0.00039056,-0.00047343,-0.00009539,0.00024170,-
 0.00002712,0.00008544,-0.00007395,0.00011620,0.00038491,-0.00261388,0.
 00070881,-0.00015603,0.00022921,-0.00007643,-0.00831500,-0.01470169,0.
 02555424,-0.10315505,-0.04760573,0.06069982,0.01824251,0.02055927,-0.0
 2064848,-0.00000879,0.00000548,-0.00000084,0.00000311,-0.00000304,-0.0
 0000153,0.00000347,-0.00000243,0.00000468,-0.00000060,0.00001374,-0.00
 000016,-0.00000087,0.00000501,-0.00001427,-0.00002590,0.00006547,-0.00
 003730,0.00001280,-0.00002747,-0.00001046,0.00031008,0.00002178,-0.000
 08165,-0.00001092,-0.00000003,-0.00001996,-0.00002282,0.00001960,-0.00
 002762,0.00005778,0.00004765,-0.00005152,-0.00004224,0.00136415,-0.000
 66889,0.00012615,-0.00005740,-0.00022054,0.00008121,0.00009190,0.00007
 388,0.00015325,-0.00002523,0.00015543,0.00142696,-0.00031851,-0.001223
 19,-0.00630008,0.00078102,0.00113117,0.09738354,-0.00000499,0.00002268
 ,-0.00001215,0.00000570,-0.00008643,0.00006814,-0.00017159,0.00022767,
 -0.00010045,-0.00016676,-0.00033734,0.00004142,-0.00001238,0.00008169,
 0.00000641,0.00018152,0.00112864,0.00011985,0.00001014,-0.00012285,-0.
 00002637,0.00005567,0.00000215,0.00002644,-0.00202876,0.00056877,-0.00
 003649,-0.00016128,0.00024206,-0.00012132,0.00317791,0.00817439,0.0071
 3262,-0.05302653,-0.11350262,0.06894165,0.00818779,-0.01831545,0.03791
 046,-0.00001312,0.00000451,-0.00000074,0.00000288,-0.00000325,-0.00000
 068,0.00000146,-0.00000372,0.00000323,-0.00000095,0.00001469,-0.000000
 25,-0.00000035,0.00000812,-0.00001641,-0.00001432,0.00003750,-0.000024
 93,0.00002273,-0.00002884,-0.00001282,0.00015400,-0.00011237,0.0000672
 1,-0.00001673,-0.00001396,-0.00001381,-0.00001769,0.00000421,-0.000006
 94,-0.00000490,0.00001976,-0.00002249,-0.00019103,0.00049284,-0.000105
 15,0.00006424,-0.00000605,-0.00006944,0.00000681,0.00005350,0.00002385
 ,0.00002432,-0.00013224,0.00012883,0.00180260,-0.00013381,-0.00033850,
 0.00050754,0.00097522,0.00056174,0.04162609,0.12074053,0.00000587,-0.0
 0000642,0.00000869,-0.00001345,0.00005805,-0.00004795,0.00002455,-0.00
 012968,0.00003878,0.00009600,0.00015741,-0.00002188,-0.00000870,-0.000
 09296,-0.00001348,0.00001507,0.00008290,0.00037281,0.00035470,-0.00050
 888,0.00001518,-0.00016470,-0.00001750,-0.00008248,-0.00144210,0.00109
 638,-0.00009196,-0.00003074,-0.00033696,0.00010921,0.00358095,0.011704
 80,0.00463717,0.06629363,0.06782724,-0.15246872,-0.00835888,0.03419016
 ,-0.01264529,0.00000581,-0.00000552,0.00000051,-0.00000341,0.00000270,
 0.00000216,-0.00000495,0.00000133,-0.00000558,0.00000101,-0.00001374,-
 0.00000155,0.00000059,-0.00000300,0.00001430,0.00001616,-0.00003186,0.
 00002867,-0.00001110,0.00001916,0.00001052,-0.00017679,0.00001189,0.00
 000238,0.00000151,0.00000648,0.00000852,0.00004276,-0.00000650,0.00001
 058,-0.00004765,-0.00001477,0.00004278,0.00024944,-0.00092817,0.000169
 65,-0.00004429,0.00009156,0.00014220,-0.00002592,-0.00006845,-0.000114
 91,0.00004253,0.00006533,-0.00021045,0.00347765,0.00008135,-0.00060209
 ,0.00092771,0.00089058,0.00139271,-0.06480326,-0.11412291,0.15929950\\
 -0.00000446,0.00000245,-0.00000105,0.00000533,-0.00000073,-0.00000054,
 -0.00000256,0.00000244,0.00000288,0.00000143,0.00000137,-0.00000406,0.
 00000396,-0.00000271,0.00000143,0.00000832,-0.00000207,0.00000635,-0.0
 0000419,0.00000268,-0.00000040,0.00000002,-0.00000187,0.00000255,-0.00
 000676,-0.00000630,-0.00000903,-0.00000287,-0.00000333,0.00000424,-0.0
 0000013,0.00001505,0.00000714,0.00000777,-0.00000906,0.00000393,-0.000
 00447,0.00000308,-0.00000422,0.00000069,-0.00000016,0.00000125,0.00000
 118,-0.00000113,0.00000059,-0.00000052,0.00000028,0.,0.00000024,0.0000
 0147,-0.00000013,-0.00000096,-0.00000194,0.00000015,-0.00000134,0.0000
 0124,0.00000120,-0.00000404,0.00000258,-0.00000148,-0.00000252,0.,-0.0
 0000093,0.00000154,-0.00000047,-0.00000067,-0.00000054,-0.00000056,-0.
 00000034,-0.00000112,0.00000171,-0.00000015,0.00000231,-0.00000031,0.0
 0000118,0.00000013,-0.00000114,-0.00000239,0.00000188,0.00000121,-0.00
 000147,0.00000079,0.00000225,-0.00000143,0.00000208,-0.00000307,-0.000
 00176,0.00000040,-0.00000257,-0.00000216,-0.00000160,-0.00000037,-0.00
 000069\\\@


 A FOOL CAN ASK MORE QUESTIONS THAN
 A WISE MAN CAN ANSWER.
 Job cpu time:       0 days  6 hours 30 minutes 54.2 seconds.
 Elapsed time:       0 days  1 hours 37 minutes 44.6 seconds.
 File lengths (MBytes):  RWF=    469 Int=      0 D2E=      0 Chk=     18 Scr=      1
 Normal termination of Gaussian 16 at Mon May 22 18:22:21 2023.
### All Done ###
