### Starting Gaussian ###
 Entering Gaussian System, Link 0=g16
 Initial command:
 /cluster/software/gaussian/gaussian-16-A.03/avx2/g16/l1.exe "/local/scratch/cz9n3/Gau-25475.inp" -scrdir="/local/scratch/cz9n3/"
 Entering Link 1 = /cluster/software/gaussian/gaussian-16-A.03/avx2/g16/l1.exe PID=     25476.
  
 Copyright (c) 1988,1990,1992,1993,1995,1998,2003,2009,2016,
            Gaussian, Inc.  All Rights Reserved.
  
 This is part of the Gaussian(R) 16 program.  It is based on
 the Gaussian(R) 09 system (copyright 2009, Gaussian, Inc.),
 the Gaussian(R) 03 system (copyright 2003, Gaussian, Inc.),
 the Gaussian(R) 98 system (copyright 1998, Gaussian, Inc.),
 the Gaussian(R) 94 system (copyright 1995, Gaussian, Inc.),
 the Gaussian 92(TM) system (copyright 1992, Gaussian, Inc.),
 the Gaussian 90(TM) system (copyright 1990, Gaussian, Inc.),
 the Gaussian 88(TM) system (copyright 1988, Gaussian, Inc.),
 the Gaussian 86(TM) system (copyright 1986, Carnegie Mellon
 University), and the Gaussian 82(TM) system (copyright 1983,
 Carnegie Mellon University). Gaussian is a federally registered
 trademark of Gaussian, Inc.
  
 This software contains proprietary and confidential information,
 including trade secrets, belonging to Gaussian, Inc.
  
 This software is provided under written license and may be
 used, copied, transmitted, or stored only in accord with that
 written license.
  
 The following legend is applicable only to US Government
 contracts under FAR:
  
                    RESTRICTED RIGHTS LEGEND
  
 Use, reproduction and disclosure by the US Government is
 subject to restrictions as set forth in subparagraphs (a)
 and (c) of the Commercial Computer Software - Restricted
 Rights clause in FAR 52.227-19.
  
 Gaussian, Inc.
 340 Quinnipiac St., Bldg. 40, Wallingford CT 06492
  
  
 ---------------------------------------------------------------
 Warning -- This program may not be used in any manner that
 competes with the business of Gaussian, Inc. or will provide
 assistance to any competitor of Gaussian, Inc.  The licensee
 of this program is prohibited from giving any competitor of
 Gaussian, Inc. access to this program.  By using this program,
 the user acknowledges that Gaussian, Inc. is engaged in the
 business of creating and licensing software in the field of
 computational chemistry and represents and warrants to the
 licensee that it is not a competitor of Gaussian, Inc. and that
 it will not use this program in any manner prohibited above.
 ---------------------------------------------------------------
  

 Cite this work as:
 Gaussian 16, Revision A.03,
 M. J. Frisch, G. W. Trucks, H. B. Schlegel, G. E. Scuseria, 
 M. A. Robb, J. R. Cheeseman, G. Scalmani, V. Barone, 
 G. A. Petersson, H. Nakatsuji, X. Li, M. Caricato, A. V. Marenich, 
 J. Bloino, B. G. Janesko, R. Gomperts, B. Mennucci, H. P. Hratchian, 
 J. V. Ortiz, A. F. Izmaylov, J. L. Sonnenberg, D. Williams-Young, 
 F. Ding, F. Lipparini, F. Egidi, J. Goings, B. Peng, A. Petrone, 
 T. Henderson, D. Ranasinghe, V. G. Zakrzewski, J. Gao, N. Rega, 
 G. Zheng, W. Liang, M. Hada, M. Ehara, K. Toyota, R. Fukuda, 
 J. Hasegawa, M. Ishida, T. Nakajima, Y. Honda, O. Kitao, H. Nakai, 
 T. Vreven, K. Throssell, J. A. Montgomery, Jr., J. E. Peralta, 
 F. Ogliaro, M. J. Bearpark, J. J. Heyd, E. N. Brothers, K. N. Kudin, 
 V. N. Staroverov, T. A. Keith, R. Kobayashi, J. Normand, 
 K. Raghavachari, A. P. Rendell, J. C. Burant, S. S. Iyengar, 
 J. Tomasi, M. Cossi, J. M. Millam, M. Klene, C. Adamo, R. Cammi, 
 J. W. Ochterski, R. L. Martin, K. Morokuma, O. Farkas, 
 J. B. Foresman, and D. J. Fox, Gaussian, Inc., Wallingford CT, 2016.
 
 ******************************************
 Gaussian 16:  ES64L-G16RevA.03 25-Dec-2016
                24-May-2023 
 ******************************************
 %chk=CCOCqCCCCCCCCqCrCrC1CCCqOrC1.chk
 %NProcShared=20
 Will use up to   20 processors via shared memory.
 -----------------------------
 # opt freq b3lyp/6-31g(2df,p)
 -----------------------------
 1/18=20,19=15,26=3,38=1/1,3;
 2/9=110,12=2,17=6,18=5,40=1/2;
 3/5=1,6=6,7=104,11=2,25=1,30=1,71=1,74=-5/1,2,3;
 4//1;
 5/5=2,38=5/2;
 6/7=2,8=2,9=2,10=2,28=1/1;
 7//1,2,3,16;
 1/18=20,19=15,26=3/3(2);
 2/9=110/2;
 99//99;
 2/9=110/2;
 3/5=1,6=6,7=104,11=2,25=1,30=1,71=1,74=-5/1,2,3;
 4/5=5,16=3,69=1/1;
 5/5=2,38=5/2;
 7//1,2,3,16;
 1/18=20,19=15,26=3/3(-5);
 2/9=110/2;
 6/7=2,8=2,9=2,10=2,19=2,28=1/1;
 99/9=1/99;
 -------------------
 Title Card Required
 -------------------
 Symbolic Z-matrix:
 Charge =  0 Multiplicity = 1
 C                     0.80152  -0.2385   -0.10635 
 C                     2.30383  -0.19081  -0.05113 
 O                     2.95149  -1.40632   0.29979 
 C                     4.39369  -1.31798   0.27729 
 C                     4.99315  -0.44578   1.4132 
 C                     4.72636   1.03745   1.26088 
 C                     5.23012   1.89441   2.38763 
 C                     4.62169   3.27482   2.16678 
 C                     5.05932   4.18669   3.27878 
 C                     4.50154   5.57021   3.03594 
 C                     4.95874   6.49419   4.14985 
 C                     4.43368   7.91728   3.96088 
 C                     2.90492   7.96045   3.95261 
 C                     4.97835   8.80249   5.07727 
 C                     4.9771   -2.73946   0.43241 
 C                     6.42912  -2.82952  -0.08725 
 C                     6.41351  -3.9131   -1.16251 
 C                     5.27124  -4.82497  -0.74489 
 O                     5.67009  -5.66686   0.32613 
 C                     4.19826  -3.83968  -0.3049 
 H                     0.43503   0.78882  -0.23976 
 H                     0.42021  -0.60096   0.85405 
 H                     0.42729  -0.87082  -0.90627 
 H                     2.38329   0.45773   0.79575 
 H                     2.74556   0.26424  -0.94561 
 H                     4.70026  -0.92288  -0.70088 
 H                     6.08148  -0.57644   1.45011 
 H                     4.59151  -0.78706   2.37529 
 H                     3.67987   1.24663   1.35079 
 H                     5.04447   1.40368   0.27943 
 H                     6.32076   1.92619   2.40953 
 H                     4.87068   1.49517   3.34535 
 H                     3.52117   3.22123   2.15413 
 H                     4.9197    3.67206   1.18768 
 H                     6.15237   4.21255   3.32386 
 H                     4.69023   3.7967    4.23535 
 H                     3.40888   5.50141   3.00088 
 H                     4.83537   5.95273   2.06346 
 H                     6.05673   6.50463   4.17241 
 H                     4.62897   6.09216   5.11667 
 H                     4.80013   8.30189   3.00055 
 H                     2.4968    7.54257   4.87926 
 H                     2.48655   7.39352   3.11517 
 H                     2.54653   8.98779   3.8472 
 H                     4.64178   8.44818   6.05775 
 H                     4.64013   9.83457   4.95005 
 H                     6.07361   8.80098   5.07544 
 H                     4.97416  -3.00421   1.50013 
 H                     7.09792  -3.11875   0.73264 
 H                     6.81056  -1.88636  -0.49241 
 H                     7.3765   -4.42837  -1.22086 
 H                     6.19611  -3.45566  -2.13475 
 H                     4.9278   -5.46698  -1.56326 
 H                     5.99226  -5.10393   1.06475 
 H                     3.45693  -4.30078   0.35737 
 H                     3.68267  -3.43052  -1.1802 
 

 GradGradGradGradGradGradGradGradGradGradGradGradGradGradGradGradGradGrad
 Berny optimization.
 Initialization pass.
                           ----------------------------
                           !    Initial Parameters    !
                           ! (Angstroms and Degrees)  !
 --------------------------                            --------------------------
 ! Name  Definition              Value          Derivative Info.                !
 --------------------------------------------------------------------------------
 ! R1    R(1,2)                  1.5041         estimate D2E/DX2                !
 ! R2    R(1,21)                 1.0989         estimate D2E/DX2                !
 ! R3    R(1,22)                 1.0951         estimate D2E/DX2                !
 ! R4    R(1,23)                 1.0862         estimate D2E/DX2                !
 ! R5    R(2,3)                  1.4213         estimate D2E/DX2                !
 ! R6    R(2,24)                 1.0696         estimate D2E/DX2                !
 ! R7    R(2,25)                 1.0965         estimate D2E/DX2                !
 ! R8    R(3,4)                  1.4451         estimate D2E/DX2                !
 ! R9    R(4,5)                  1.5525         estimate D2E/DX2                !
 ! R10   R(4,15)                 1.5444         estimate D2E/DX2                !
 ! R11   R(4,26)                 1.0986         estimate D2E/DX2                !
 ! R12   R(5,6)                  1.5147         estimate D2E/DX2                !
 ! R13   R(5,27)                 1.0968         estimate D2E/DX2                !
 ! R14   R(5,28)                 1.097          estimate D2E/DX2                !
 ! R15   R(6,7)                  1.5026         estimate D2E/DX2                !
 ! R16   R(6,29)                 1.071          estimate D2E/DX2                !
 ! R17   R(6,30)                 1.0948         estimate D2E/DX2                !
 ! R18   R(7,8)                  1.5246         estimate D2E/DX2                !
 ! R19   R(7,31)                 1.0913         estimate D2E/DX2                !
 ! R20   R(7,32)                 1.0981         estimate D2E/DX2                !
 ! R21   R(8,9)                  1.5032         estimate D2E/DX2                !
 ! R22   R(8,33)                 1.1019         estimate D2E/DX2                !
 ! R23   R(8,34)                 1.0978         estimate D2E/DX2                !
 ! R24   R(9,10)                 1.5114         estimate D2E/DX2                !
 ! R25   R(9,35)                 1.0943         estimate D2E/DX2                !
 ! R26   R(9,36)                 1.097          estimate D2E/DX2                !
 ! R27   R(10,11)                1.5178         estimate D2E/DX2                !
 ! R28   R(10,37)                1.0954         estimate D2E/DX2                !
 ! R29   R(10,38)                1.097          estimate D2E/DX2                !
 ! R30   R(11,12)                1.5286         estimate D2E/DX2                !
 ! R31   R(11,39)                1.0983         estimate D2E/DX2                !
 ! R32   R(11,40)                1.0978         estimate D2E/DX2                !
 ! R33   R(12,13)                1.5294         estimate D2E/DX2                !
 ! R34   R(12,14)                1.5253         estimate D2E/DX2                !
 ! R35   R(12,41)                1.0975         estimate D2E/DX2                !
 ! R36   R(13,42)                1.0954         estimate D2E/DX2                !
 ! R37   R(13,43)                1.0944         estimate D2E/DX2                !
 ! R38   R(13,44)                1.0932         estimate D2E/DX2                !
 ! R39   R(14,45)                1.0955         estimate D2E/DX2                !
 ! R40   R(14,46)                1.0935         estimate D2E/DX2                !
 ! R41   R(14,47)                1.0953         estimate D2E/DX2                !
 ! R42   R(15,16)                1.5448         estimate D2E/DX2                !
 ! R43   R(15,20)                1.5365         estimate D2E/DX2                !
 ! R44   R(15,48)                1.1001         estimate D2E/DX2                !
 ! R45   R(16,17)                1.5266         estimate D2E/DX2                !
 ! R46   R(16,49)                1.0969         estimate D2E/DX2                !
 ! R47   R(16,50)                1.0951         estimate D2E/DX2                !
 ! R48   R(17,18)                1.5201         estimate D2E/DX2                !
 ! R49   R(17,51)                1.0937         estimate D2E/DX2                !
 ! R50   R(17,52)                1.0963         estimate D2E/DX2                !
 ! R51   R(18,19)                1.4195         estimate D2E/DX2                !
 ! R52   R(18,20)                1.5217         estimate D2E/DX2                !
 ! R53   R(18,53)                1.0954         estimate D2E/DX2                !
 ! R54   R(19,54)                0.983          estimate D2E/DX2                !
 ! R55   R(20,55)                1.0958         estimate D2E/DX2                !
 ! R56   R(20,56)                1.0952         estimate D2E/DX2                !
 ! A1    A(2,1,21)             107.9351         estimate D2E/DX2                !
 ! A2    A(2,1,22)             109.0321         estimate D2E/DX2                !
 ! A3    A(2,1,23)             112.9318         estimate D2E/DX2                !
 ! A4    A(21,1,22)            107.4451         estimate D2E/DX2                !
 ! A5    A(21,1,23)            109.8729         estimate D2E/DX2                !
 ! A6    A(22,1,23)            109.4654         estimate D2E/DX2                !
 ! A7    A(1,2,3)              115.9187         estimate D2E/DX2                !
 ! A8    A(1,2,24)              97.0359         estimate D2E/DX2                !
 ! A9    A(1,2,25)             112.6806         estimate D2E/DX2                !
 ! A10   A(3,2,24)             106.8099         estimate D2E/DX2                !
 ! A11   A(3,2,25)             111.8858         estimate D2E/DX2                !
 ! A12   A(24,2,25)            111.3661         estimate D2E/DX2                !
 ! A13   A(2,3,4)              113.4939         estimate D2E/DX2                !
 ! A14   A(3,4,5)              114.098          estimate D2E/DX2                !
 ! A15   A(3,4,15)             108.6137         estimate D2E/DX2                !
 ! A16   A(3,4,26)             108.3216         estimate D2E/DX2                !
 ! A17   A(5,4,15)             107.3219         estimate D2E/DX2                !
 ! A18   A(5,4,26)             109.9778         estimate D2E/DX2                !
 ! A19   A(15,4,26)            108.3633         estimate D2E/DX2                !
 ! A20   A(4,5,6)              114.1126         estimate D2E/DX2                !
 ! A21   A(4,5,27)             109.9281         estimate D2E/DX2                !
 ! A22   A(4,5,28)             108.9975         estimate D2E/DX2                !
 ! A23   A(6,5,27)             107.1466         estimate D2E/DX2                !
 ! A24   A(6,5,28)             109.1683         estimate D2E/DX2                !
 ! A25   A(27,5,28)            107.2615         estimate D2E/DX2                !
 ! A26   A(5,6,7)              115.0884         estimate D2E/DX2                !
 ! A27   A(5,6,29)             110.7887         estimate D2E/DX2                !
 ! A28   A(5,6,30)             111.5024         estimate D2E/DX2                !
 ! A29   A(7,6,29)              98.8154         estimate D2E/DX2                !
 ! A30   A(7,6,30)             112.5845         estimate D2E/DX2                !
 ! A31   A(29,6,30)            107.0885         estimate D2E/DX2                !
 ! A32   A(6,7,8)              105.9002         estimate D2E/DX2                !
 ! A33   A(6,7,31)             111.513          estimate D2E/DX2                !
 ! A34   A(6,7,32)             109.6893         estimate D2E/DX2                !
 ! A35   A(8,7,31)             112.0465         estimate D2E/DX2                !
 ! A36   A(8,7,32)             108.9591         estimate D2E/DX2                !
 ! A37   A(31,7,32)            108.6757         estimate D2E/DX2                !
 ! A38   A(7,8,9)              109.0202         estimate D2E/DX2                !
 ! A39   A(7,8,33)             110.8669         estimate D2E/DX2                !
 ! A40   A(7,8,34)             110.3939         estimate D2E/DX2                !
 ! A41   A(9,8,33)             109.1939         estimate D2E/DX2                !
 ! A42   A(9,8,34)             111.1753         estimate D2E/DX2                !
 ! A43   A(33,8,34)            106.169          estimate D2E/DX2                !
 ! A44   A(8,9,10)             109.2083         estimate D2E/DX2                !
 ! A45   A(8,9,35)             109.6101         estimate D2E/DX2                !
 ! A46   A(8,9,36)             109.3574         estimate D2E/DX2                !
 ! A47   A(10,9,35)            110.7094         estimate D2E/DX2                !
 ! A48   A(10,9,36)            109.961          estimate D2E/DX2                !
 ! A49   A(35,9,36)            107.9726         estimate D2E/DX2                !
 ! A50   A(9,10,11)            109.159          estimate D2E/DX2                !
 ! A51   A(9,10,37)            108.4083         estimate D2E/DX2                !
 ! A52   A(9,10,38)            110.4457         estimate D2E/DX2                !
 ! A53   A(11,10,37)           111.2362         estimate D2E/DX2                !
 ! A54   A(11,10,38)           110.2828         estimate D2E/DX2                !
 ! A55   A(37,10,38)           107.2819         estimate D2E/DX2                !
 ! A56   A(10,11,12)           111.8738         estimate D2E/DX2                !
 ! A57   A(10,11,39)           108.7852         estimate D2E/DX2                !
 ! A58   A(10,11,40)           109.4467         estimate D2E/DX2                !
 ! A59   A(12,11,39)           109.7            estimate D2E/DX2                !
 ! A60   A(12,11,40)           110.2818         estimate D2E/DX2                !
 ! A61   A(39,11,40)           106.6014         estimate D2E/DX2                !
 ! A62   A(11,12,13)           111.734          estimate D2E/DX2                !
 ! A63   A(11,12,14)           109.0961         estimate D2E/DX2                !
 ! A64   A(11,12,41)           108.6476         estimate D2E/DX2                !
 ! A65   A(13,12,14)           110.1522         estimate D2E/DX2                !
 ! A66   A(13,12,41)           108.611          estimate D2E/DX2                !
 ! A67   A(14,12,41)           108.5319         estimate D2E/DX2                !
 ! A68   A(12,13,42)           110.9213         estimate D2E/DX2                !
 ! A69   A(12,13,43)           111.8164         estimate D2E/DX2                !
 ! A70   A(12,13,44)           110.779          estimate D2E/DX2                !
 ! A71   A(42,13,43)           107.8949         estimate D2E/DX2                !
 ! A72   A(42,13,44)           108.5388         estimate D2E/DX2                !
 ! A73   A(43,13,44)           106.7214         estimate D2E/DX2                !
 ! A74   A(12,14,45)           110.9561         estimate D2E/DX2                !
 ! A75   A(12,14,46)           110.6186         estimate D2E/DX2                !
 ! A76   A(12,14,47)           110.7973         estimate D2E/DX2                !
 ! A77   A(45,14,46)           108.3216         estimate D2E/DX2                !
 ! A78   A(45,14,47)           107.9552         estimate D2E/DX2                !
 ! A79   A(46,14,47)           108.0835         estimate D2E/DX2                !
 ! A80   A(4,15,16)            112.0208         estimate D2E/DX2                !
 ! A81   A(4,15,20)            114.7972         estimate D2E/DX2                !
 ! A82   A(4,15,48)            108.5421         estimate D2E/DX2                !
 ! A83   A(16,15,20)           105.8596         estimate D2E/DX2                !
 ! A84   A(16,15,48)           108.3595         estimate D2E/DX2                !
 ! A85   A(20,15,48)           106.9824         estimate D2E/DX2                !
 ! A86   A(15,16,17)           105.5868         estimate D2E/DX2                !
 ! A87   A(15,16,49)           109.6958         estimate D2E/DX2                !
 ! A88   A(15,16,50)           113.6808         estimate D2E/DX2                !
 ! A89   A(17,16,49)           110.2152         estimate D2E/DX2                !
 ! A90   A(17,16,50)           110.7499         estimate D2E/DX2                !
 ! A91   A(49,16,50)           106.9341         estimate D2E/DX2                !
 ! A92   A(16,17,18)           103.8845         estimate D2E/DX2                !
 ! A93   A(16,17,51)           111.2822         estimate D2E/DX2                !
 ! A94   A(16,17,52)           109.2999         estimate D2E/DX2                !
 ! A95   A(18,17,51)           113.1828         estimate D2E/DX2                !
 ! A96   A(18,17,52)           110.1786         estimate D2E/DX2                !
 ! A97   A(51,17,52)           108.8974         estimate D2E/DX2                !
 ! A98   A(17,18,19)           110.6054         estimate D2E/DX2                !
 ! A99   A(17,18,20)           102.7605         estimate D2E/DX2                !
 ! A100  A(17,18,53)           112.4539         estimate D2E/DX2                !
 ! A101  A(19,18,20)           111.3448         estimate D2E/DX2                !
 ! A102  A(19,18,53)           107.7091         estimate D2E/DX2                !
 ! A103  A(20,18,53)           111.9894         estimate D2E/DX2                !
 ! A104  A(18,19,54)           108.6259         estimate D2E/DX2                !
 ! A105  A(15,20,18)           104.1802         estimate D2E/DX2                !
 ! A106  A(15,20,55)           110.7459         estimate D2E/DX2                !
 ! A107  A(15,20,56)           110.772          estimate D2E/DX2                !
 ! A108  A(18,20,55)           112.2909         estimate D2E/DX2                !
 ! A109  A(18,20,56)           110.0454         estimate D2E/DX2                !
 ! A110  A(55,20,56)           108.7687         estimate D2E/DX2                !
 ! D1    D(21,1,2,3)           171.767          estimate D2E/DX2                !
 ! D2    D(21,1,2,24)           59.1879         estimate D2E/DX2                !
 ! D3    D(21,1,2,25)          -57.5196         estimate D2E/DX2                !
 ! D4    D(22,1,2,3)            55.3453         estimate D2E/DX2                !
 ! D5    D(22,1,2,24)          -57.2338         estimate D2E/DX2                !
 ! D6    D(22,1,2,25)         -173.9413         estimate D2E/DX2                !
 ! D7    D(23,1,2,3)           -66.5721         estimate D2E/DX2                !
 ! D8    D(23,1,2,24)         -179.1512         estimate D2E/DX2                !
 ! D9    D(23,1,2,25)           64.1413         estimate D2E/DX2                !
 ! D10   D(1,2,3,4)            177.3164         estimate D2E/DX2                !
 ! D11   D(24,2,3,4)           -75.8803         estimate D2E/DX2                !
 ! D12   D(25,2,3,4)            46.2271         estimate D2E/DX2                !
 ! D13   D(2,3,4,5)             69.9784         estimate D2E/DX2                !
 ! D14   D(2,3,4,15)          -170.3642         estimate D2E/DX2                !
 ! D15   D(2,3,4,26)           -52.8667         estimate D2E/DX2                !
 ! D16   D(3,4,5,6)            -70.2788         estimate D2E/DX2                !
 ! D17   D(3,4,5,27)           169.3336         estimate D2E/DX2                !
 ! D18   D(3,4,5,28)            52.0347         estimate D2E/DX2                !
 ! D19   D(15,4,5,6)           169.3388         estimate D2E/DX2                !
 ! D20   D(15,4,5,27)           48.9512         estimate D2E/DX2                !
 ! D21   D(15,4,5,28)          -68.3478         estimate D2E/DX2                !
 ! D22   D(26,4,5,6)            51.6598         estimate D2E/DX2                !
 ! D23   D(26,4,5,27)          -68.7278         estimate D2E/DX2                !
 ! D24   D(26,4,5,28)          173.9733         estimate D2E/DX2                !
 ! D25   D(3,4,15,16)          158.9711         estimate D2E/DX2                !
 ! D26   D(3,4,15,20)           38.2016         estimate D2E/DX2                !
 ! D27   D(3,4,15,48)          -81.4235         estimate D2E/DX2                !
 ! D28   D(5,4,15,16)          -77.2255         estimate D2E/DX2                !
 ! D29   D(5,4,15,20)          162.005          estimate D2E/DX2                !
 ! D30   D(5,4,15,48)           42.38           estimate D2E/DX2                !
 ! D31   D(26,4,15,16)          41.5002         estimate D2E/DX2                !
 ! D32   D(26,4,15,20)         -79.2693         estimate D2E/DX2                !
 ! D33   D(26,4,15,48)         161.1057         estimate D2E/DX2                !
 ! D34   D(4,5,6,7)            176.7243         estimate D2E/DX2                !
 ! D35   D(4,5,6,29)            65.7013         estimate D2E/DX2                !
 ! D36   D(4,5,6,30)           -53.4675         estimate D2E/DX2                !
 ! D37   D(27,5,6,7)           -61.3453         estimate D2E/DX2                !
 ! D38   D(27,5,6,29)         -172.3683         estimate D2E/DX2                !
 ! D39   D(27,5,6,30)           68.4629         estimate D2E/DX2                !
 ! D40   D(28,5,6,7)            54.5045         estimate D2E/DX2                !
 ! D41   D(28,5,6,29)          -56.5185         estimate D2E/DX2                !
 ! D42   D(28,5,6,30)         -175.6873         estimate D2E/DX2                !
 ! D43   D(5,6,7,8)           -169.0965         estimate D2E/DX2                !
 ! D44   D(5,6,7,31)            68.7762         estimate D2E/DX2                !
 ! D45   D(5,6,7,32)           -51.6622         estimate D2E/DX2                !
 ! D46   D(29,6,7,8)           -51.1148         estimate D2E/DX2                !
 ! D47   D(29,6,7,31)         -173.2421         estimate D2E/DX2                !
 ! D48   D(29,6,7,32)           66.3194         estimate D2E/DX2                !
 ! D49   D(30,6,7,8)            61.626          estimate D2E/DX2                !
 ! D50   D(30,6,7,31)          -60.5013         estimate D2E/DX2                !
 ! D51   D(30,6,7,32)          179.0603         estimate D2E/DX2                !
 ! D52   D(6,7,8,9)            178.7942         estimate D2E/DX2                !
 ! D53   D(6,7,8,33)            58.5576         estimate D2E/DX2                !
 ! D54   D(6,7,8,34)           -58.8081         estimate D2E/DX2                !
 ! D55   D(31,7,8,9)           -59.4203         estimate D2E/DX2                !
 ! D56   D(31,7,8,33)         -179.6568         estimate D2E/DX2                !
 ! D57   D(31,7,8,34)           62.9774         estimate D2E/DX2                !
 ! D58   D(32,7,8,9)            60.8717         estimate D2E/DX2                !
 ! D59   D(32,7,8,33)          -59.3648         estimate D2E/DX2                !
 ! D60   D(32,7,8,34)         -176.7306         estimate D2E/DX2                !
 ! D61   D(7,8,9,10)           177.8644         estimate D2E/DX2                !
 ! D62   D(7,8,9,35)            56.4206         estimate D2E/DX2                !
 ! D63   D(7,8,9,36)           -61.7667         estimate D2E/DX2                !
 ! D64   D(33,8,9,10)          -60.8739         estimate D2E/DX2                !
 ! D65   D(33,8,9,35)          177.6824         estimate D2E/DX2                !
 ! D66   D(33,8,9,36)           59.4951         estimate D2E/DX2                !
 ! D67   D(34,8,9,10)           55.9383         estimate D2E/DX2                !
 ! D68   D(34,8,9,35)          -65.5054         estimate D2E/DX2                !
 ! D69   D(34,8,9,36)          176.3073         estimate D2E/DX2                !
 ! D70   D(8,9,10,11)         -179.2821         estimate D2E/DX2                !
 ! D71   D(8,9,10,37)           59.4015         estimate D2E/DX2                !
 ! D72   D(8,9,10,38)          -57.8707         estimate D2E/DX2                !
 ! D73   D(35,9,10,11)         -58.5072         estimate D2E/DX2                !
 ! D74   D(35,9,10,37)        -179.8235         estimate D2E/DX2                !
 ! D75   D(35,9,10,38)          62.9042         estimate D2E/DX2                !
 ! D76   D(36,9,10,11)          60.7197         estimate D2E/DX2                !
 ! D77   D(36,9,10,37)         -60.5966         estimate D2E/DX2                !
 ! D78   D(36,9,10,38)        -177.8689         estimate D2E/DX2                !
 ! D79   D(9,10,11,12)         179.6995         estimate D2E/DX2                !
 ! D80   D(9,10,11,39)          58.3512         estimate D2E/DX2                !
 ! D81   D(9,10,11,40)         -57.7614         estimate D2E/DX2                !
 ! D82   D(37,10,11,12)        -60.7184         estimate D2E/DX2                !
 ! D83   D(37,10,11,39)        177.9334         estimate D2E/DX2                !
 ! D84   D(37,10,11,40)         61.8207         estimate D2E/DX2                !
 ! D85   D(38,10,11,12)         58.1893         estimate D2E/DX2                !
 ! D86   D(38,10,11,39)        -63.1589         estimate D2E/DX2                !
 ! D87   D(38,10,11,40)       -179.2716         estimate D2E/DX2                !
 ! D88   D(10,11,12,13)         60.3955         estimate D2E/DX2                !
 ! D89   D(10,11,12,14)       -177.5661         estimate D2E/DX2                !
 ! D90   D(10,11,12,41)        -59.4145         estimate D2E/DX2                !
 ! D91   D(39,11,12,13)       -178.786          estimate D2E/DX2                !
 ! D92   D(39,11,12,14)        -56.7475         estimate D2E/DX2                !
 ! D93   D(39,11,12,41)         61.4041         estimate D2E/DX2                !
 ! D94   D(40,11,12,13)        -61.6663         estimate D2E/DX2                !
 ! D95   D(40,11,12,14)         60.3721         estimate D2E/DX2                !
 ! D96   D(40,11,12,41)        178.5237         estimate D2E/DX2                !
 ! D97   D(11,12,13,42)         57.6727         estimate D2E/DX2                !
 ! D98   D(11,12,13,43)        -62.8161         estimate D2E/DX2                !
 ! D99   D(11,12,13,44)        178.2783         estimate D2E/DX2                !
 ! D100  D(14,12,13,42)        -63.7568         estimate D2E/DX2                !
 ! D101  D(14,12,13,43)        175.7544         estimate D2E/DX2                !
 ! D102  D(14,12,13,44)         56.8488         estimate D2E/DX2                !
 ! D103  D(41,12,13,42)        177.5041         estimate D2E/DX2                !
 ! D104  D(41,12,13,43)         57.0153         estimate D2E/DX2                !
 ! D105  D(41,12,13,44)        -61.8903         estimate D2E/DX2                !
 ! D106  D(11,12,14,45)        -61.3417         estimate D2E/DX2                !
 ! D107  D(11,12,14,46)        178.4099         estimate D2E/DX2                !
 ! D108  D(11,12,14,47)         58.5643         estimate D2E/DX2                !
 ! D109  D(13,12,14,45)         61.6465         estimate D2E/DX2                !
 ! D110  D(13,12,14,46)        -58.6018         estimate D2E/DX2                !
 ! D111  D(13,12,14,47)       -178.4475         estimate D2E/DX2                !
 ! D112  D(41,12,14,45)       -179.5659         estimate D2E/DX2                !
 ! D113  D(41,12,14,46)         60.1857         estimate D2E/DX2                !
 ! D114  D(41,12,14,47)        -59.6599         estimate D2E/DX2                !
 ! D115  D(4,15,16,17)        -122.3613         estimate D2E/DX2                !
 ! D116  D(4,15,16,49)         118.8952         estimate D2E/DX2                !
 ! D117  D(4,15,16,50)          -0.762          estimate D2E/DX2                !
 ! D118  D(20,15,16,17)          3.457          estimate D2E/DX2                !
 ! D119  D(20,15,16,49)       -115.2865         estimate D2E/DX2                !
 ! D120  D(20,15,16,50)        125.0564         estimate D2E/DX2                !
 ! D121  D(48,15,16,17)        117.9262         estimate D2E/DX2                !
 ! D122  D(48,15,16,49)         -0.8173         estimate D2E/DX2                !
 ! D123  D(48,15,16,50)       -120.4745         estimate D2E/DX2                !
 ! D124  D(4,15,20,18)         146.1022         estimate D2E/DX2                !
 ! D125  D(4,15,20,55)         -92.9629         estimate D2E/DX2                !
 ! D126  D(4,15,20,56)          27.8109         estimate D2E/DX2                !
 ! D127  D(16,15,20,18)         22.0032         estimate D2E/DX2                !
 ! D128  D(16,15,20,55)        142.9382         estimate D2E/DX2                !
 ! D129  D(16,15,20,56)        -96.288          estimate D2E/DX2                !
 ! D130  D(48,15,20,18)        -93.4093         estimate D2E/DX2                !
 ! D131  D(48,15,20,55)         27.5256         estimate D2E/DX2                !
 ! D132  D(48,15,20,56)        148.2994         estimate D2E/DX2                !
 ! D133  D(15,16,17,18)        -27.6597         estimate D2E/DX2                !
 ! D134  D(15,16,17,51)       -149.7652         estimate D2E/DX2                !
 ! D135  D(15,16,17,52)         89.9244         estimate D2E/DX2                !
 ! D136  D(49,16,17,18)         90.7375         estimate D2E/DX2                !
 ! D137  D(49,16,17,51)        -31.368          estimate D2E/DX2                !
 ! D138  D(49,16,17,52)       -151.6784         estimate D2E/DX2                !
 ! D139  D(50,16,17,18)       -151.1354         estimate D2E/DX2                !
 ! D140  D(50,16,17,51)         86.7591         estimate D2E/DX2                !
 ! D141  D(50,16,17,52)        -33.5513         estimate D2E/DX2                !
 ! D142  D(16,17,18,19)        -77.4283         estimate D2E/DX2                !
 ! D143  D(16,17,18,20)         41.509          estimate D2E/DX2                !
 ! D144  D(16,17,18,53)        162.1065         estimate D2E/DX2                !
 ! D145  D(51,17,18,19)         43.4079         estimate D2E/DX2                !
 ! D146  D(51,17,18,20)        162.3452         estimate D2E/DX2                !
 ! D147  D(51,17,18,53)        -77.0574         estimate D2E/DX2                !
 ! D148  D(52,17,18,19)        165.5991         estimate D2E/DX2                !
 ! D149  D(52,17,18,20)        -75.4637         estimate D2E/DX2                !
 ! D150  D(52,17,18,53)         45.1338         estimate D2E/DX2                !
 ! D151  D(17,18,19,54)         56.0169         estimate D2E/DX2                !
 ! D152  D(20,18,19,54)        -57.5786         estimate D2E/DX2                !
 ! D153  D(53,18,19,54)        179.2743         estimate D2E/DX2                !
 ! D154  D(17,18,20,15)        -39.2034         estimate D2E/DX2                !
 ! D155  D(17,18,20,55)       -159.1006         estimate D2E/DX2                !
 ! D156  D(17,18,20,56)         79.585          estimate D2E/DX2                !
 ! D157  D(19,18,20,15)         79.2156         estimate D2E/DX2                !
 ! D158  D(19,18,20,55)        -40.6816         estimate D2E/DX2                !
 ! D159  D(19,18,20,56)       -161.996          estimate D2E/DX2                !
 ! D160  D(53,18,20,15)       -160.1198         estimate D2E/DX2                !
 ! D161  D(53,18,20,55)         79.983          estimate D2E/DX2                !
 ! D162  D(53,18,20,56)        -41.3314         estimate D2E/DX2                !
 --------------------------------------------------------------------------------
 Trust Radius=3.00D-01 FncErr=1.00D-07 GrdErr=1.00D-06 EigMax=2.50D+02 EigMin=1.00D-04
 Number of steps in this run=    336 maximum allowed number of steps=    336.
 GradGradGradGradGradGradGradGradGradGradGradGradGradGradGradGradGradGrad

 Stoichiometry    C18H36O2
 Framework group  C1[X(C18H36O2)]
 Deg. of freedom   162
 Full point group                 C1      NOp   1
 Largest Abelian subgroup         C1      NOp   1
 Largest concise Abelian subgroup C1      NOp   1
                         Standard orientation:                         
 ---------------------------------------------------------------------
 Center     Atomic      Atomic             Coordinates (Angstroms)
 Number     Number       Type             X           Y           Z
 ---------------------------------------------------------------------
      1          6           0        1.639806    3.881628   -0.071435
      2          6           0        1.647179    2.428968    0.318416
      3          8           0        2.678237    1.636894   -0.255701
      4          6           0        2.673533    0.265932    0.201126
      5          6           0        1.474753   -0.571768   -0.319993
      6          6           0        0.140303   -0.183824    0.282577
      7          6           0       -1.045540   -0.928156   -0.262829
      8          6           0       -2.275673   -0.199870    0.267137
      9          6           0       -3.510264   -0.873380   -0.263655
     10          6           0       -4.732780   -0.187346    0.301173
     11          6           0       -5.978384   -0.879414   -0.221398
     12          6           0       -7.255880   -0.237331    0.319264
     13          6           0       -7.366163    1.233134   -0.086460
     14          6           0       -8.462195   -1.016290   -0.195144
     15          6           0        3.964766   -0.422580   -0.292537
     16          6           0        4.308910   -1.675521    0.543060
     17          6           0        5.709702   -1.427198    1.096857
     18          6           0        6.348492   -0.503507    0.072437
     19          8           0        6.756014   -1.234661   -1.073985
     20          6           0        5.220278    0.462439   -0.258855
     21          1           0        0.717086    4.332280    0.319717
     22          1           0        1.605306    3.958172   -1.163265
     23          1           0        2.503113    4.424513    0.302364
     24          1           0        0.737433    2.156590   -0.173819
     25          1           0        1.574353    2.281780    1.402539
     26          1           0        2.680666    0.267955    1.299693
     27          1           0        1.634679   -1.633275   -0.095219
     28          1           0        1.418986   -0.474922   -1.411283
     29          1           0       -0.137148    0.807065   -0.014308
     30          1           0        0.176009   -0.193700    1.376739
     31          1           0       -1.030864   -1.977866    0.035297
     32          1           0       -1.043846   -0.874060   -1.359591
     33          1           0       -2.273963    0.855418   -0.049942
     34          1           0       -2.270596   -0.189252    1.364911
     35          1           0       -3.498492   -1.932204    0.012410
     36          1           0       -3.517202   -0.809153   -1.358722
     37          1           0       -4.708332    0.865717    0.000626
     38          1           0       -4.714747   -0.213799    1.397739
     39          1           0       -5.943778   -1.937646    0.070403
     40          1           0       -5.976021   -0.856461   -1.318934
     41          1           0       -7.242690   -0.298307    1.414961
     42          1           0       -7.338071    1.341407   -1.176117
     43          1           0       -6.551919    1.832727    0.332161
     44          1           0       -8.298802    1.668236    0.282122
     45          1           0       -8.509500   -0.987726   -1.289266
     46          1           0       -9.390257   -0.594172    0.200185
     47          1           0       -8.407659   -2.065846    0.113169
     48          1           0        3.818201   -0.732685   -1.337755
     49          1           0        4.308321   -2.562163   -0.102721
     50          1           0        3.600036   -1.871410    1.354434
     51          1           0        6.255857   -2.365353    1.230412
     52          1           0        5.631657   -0.920742    2.065968
     53          1           0        7.229053    0.014404    0.467705
     54          1           0        5.977188   -1.714797   -1.433351
     55          1           0        5.369697    0.961040   -1.223145
     56          1           0        5.137173    1.224876    0.522923
 ---------------------------------------------------------------------
 Rotational constants (GHZ):           0.7690740           0.0757140           0.0705967
 Standard basis: 6-31G(2df,p) (6D, 7F)
 There are   800 symmetry adapted cartesian basis functions of A   symmetry.
 There are   740 symmetry adapted basis functions of A   symmetry.
   740 basis functions,  1132 primitive gaussians,   800 cartesian basis functions
    80 alpha electrons       80 beta electrons
       nuclear repulsion energy      1581.0278791734 Hartrees.
 NAtoms=   56 NActive=   56 NUniq=   56 SFac= 1.00D+00 NAtFMM=   60 NAOKFM=F Big=F
 Integral buffers will be    131072 words long.
 Raffenetti 2 integral format.
 Two-electron integral symmetry is turned on.
 One-electron integrals computed using PRISM.
 PrsmSu:  requested number of processors reduced to:  11 ShMem   1 Linda.
 NBasis=   740 RedAO= T EigKep=  4.08D-04  NBF=   740
 NBsUse=   740 1.00D-06 EigRej= -1.00D+00 NBFU=   740
 ExpMin= 1.61D-01 ExpMax= 5.48D+03 ExpMxC= 8.25D+02 IAcc=3 IRadAn=         5 AccDes= 0.00D+00
 Harris functional with IExCor=  402 and IRadAn=       5 diagonalized for initial guess.
 HarFok:  IExCor=  402 AccDes= 0.00D+00 IRadAn=         5 IDoV= 1 UseB2=F ITyADJ=14
 ICtDFT=  3500011 ScaDFX=  1.000000  1.000000  1.000000  1.000000
 FoFCou: FMM=F IPFlag=           0 FMFlag=      100000 FMFlg1=           0
         NFxFlg=           0 DoJE=T BraDBF=F KetDBF=T FulRan=T
         wScrn=  0.000000 ICntrl=       500 IOpCl=  0 I1Cent=   200000004 NGrid=           0
         NMat0=    1 NMatS0=      1 NMatT0=    0 NMatD0=    1 NMtDS0=    0 NMtDT0=    0
 Petite list used in FoFCou.
 Requested convergence on RMS density matrix=1.00D-08 within 128 cycles.
 Requested convergence on MAX density matrix=1.00D-06.
 Requested convergence on             energy=1.00D-06.
 No special actions if energy rises.
 Integral accuracy reduced to 1.0D-05 until final iterations.
 Initial convergence to 1.0D-05 achieved.  Increase integral accuracy.
 SCF Done:  E(RB3LYP) =  -858.083710443     A.U. after   12 cycles
            NFock= 12  Conv=0.35D-08     -V/T= 2.0077

 **********************************************************************

            Population analysis using the SCF density.

 **********************************************************************

 Orbital symmetries:
       Occupied  (A) (A) (A) (A) (A) (A) (A) (A) (A) (A) (A) (A)
                 (A) (A) (A) (A) (A) (A) (A) (A) (A) (A) (A) (A)
                 (A) (A) (A) (A) (A) (A) (A) (A) (A) (A) (A) (A)
                 (A) (A) (A) (A) (A) (A) (A) (A) (A) (A) (A) (A)
                 (A) (A) (A) (A) (A) (A) (A) (A) (A) (A) (A) (A)
                 (A) (A) (A) (A) (A) (A) (A) (A) (A) (A) (A) (A)
                 (A) (A) (A) (A) (A) (A) (A) (A)
       Virtual   (A) (A) (A) (A) (A) (A) (A) (A) (A) (A) (A) (A)
                 (A) (A) (A) (A) (A) (A) (A) (A) (A) (A) (A) (A)
                 (A) (A) (A) (A) (A) (A) (A) (A) (A) (A) (A) (A)
                 (A) (A) (A) (A) (A) (A) (A) (A) (A) (A) (A) (A)
                 (A) (A) (A) (A) (A) (A) (A) (A) (A) (A) (A) (A)
                 (A) (A) (A) (A) (A) (A) (A) (A) (A) (A) (A) (A)
                 (A) (A) (A) (A) (A) (A) (A) (A) (A) (A) (A) (A)
                 (A) (A) (A) (A) (A) (A) (A) (A) (A) (A) (A) (A)
                 (A) (A) (A) (A) (A) (A) (A) (A) (A) (A) (A) (A)
                 (A) (A) (A) (A) (A) (A) (A) (A) (A) (A) (A) (A)
                 (A) (A) (A) (A) (A) (A) (A) (A) (A) (A) (A) (A)
                 (A) (A) (A) (A) (A) (A) (A) (A) (A) (A) (A) (A)
                 (A) (A) (A) (A) (A) (A) (A) (A) (A) (A) (A) (A)
                 (A) (A) (A) (A) (A) (A) (A) (A) (A) (A) (A) (A)
                 (A) (A) (A) (A) (A) (A) (A) (A) (A) (A) (A) (A)
                 (A) (A) (A) (A) (A) (A) (A) (A) (A) (A) (A) (A)
                 (A) (A) (A) (A) (A) (A) (A) (A) (A) (A) (A) (A)
                 (A) (A) (A) (A) (A) (A) (A) (A) (A) (A) (A) (A)
                 (A) (A) (A) (A) (A) (A) (A) (A) (A) (A) (A) (A)
                 (A) (A) (A) (A) (A) (A) (A) (A) (A) (A) (A) (A)
                 (A) (A) (A) (A) (A) (A) (A) (A) (A) (A) (A) (A)
                 (A) (A) (A) (A) (A) (A) (A) (A) (A) (A) (A) (A)
                 (A) (A) (A) (A) (A) (A) (A) (A) (A) (A) (A) (A)
                 (A) (A) (A) (A) (A) (A) (A) (A) (A) (A) (A) (A)
                 (A) (A) (A) (A) (A) (A) (A) (A) (A) (A) (A) (A)
                 (A) (A) (A) (A) (A) (A) (A) (A) (A) (A) (A) (A)
                 (A) (A) (A) (A) (A) (A) (A) (A) (A) (A) (A) (A)
                 (A) (A) (A) (A) (A) (A) (A) (A) (A) (A) (A) (A)
                 (A) (A) (A) (A) (A) (A) (A) (A) (A) (A) (A) (A)
                 (A) (A) (A) (A) (A) (A) (A) (A) (A) (A) (A) (A)
                 (A) (A) (A) (A) (A) (A) (A) (A) (A) (A) (A) (A)
                 (A) (A) (A) (A) (A) (A) (A) (A) (A) (A) (A) (A)
                 (A) (A) (A) (A) (A) (A) (A) (A) (A) (A) (A) (A)
                 (A) (A) (A) (A) (A) (A) (A) (A) (A) (A) (A) (A)
                 (A) (A) (A) (A) (A) (A) (A) (A) (A) (A) (A) (A)
                 (A) (A) (A) (A) (A) (A) (A) (A) (A) (A) (A) (A)
                 (A) (A) (A) (A) (A) (A) (A) (A) (A) (A) (A) (A)
                 (A) (A) (A) (A) (A) (A) (A) (A) (A) (A) (A) (A)
                 (A) (A) (A) (A) (A) (A) (A) (A) (A) (A) (A) (A)
                 (A) (A) (A) (A) (A) (A) (A) (A) (A) (A) (A) (A)
                 (A) (A) (A) (A) (A) (A) (A) (A) (A) (A) (A) (A)
                 (A) (A) (A) (A) (A) (A) (A) (A) (A) (A) (A) (A)
                 (A) (A) (A) (A) (A) (A) (A) (A) (A) (A) (A) (A)
                 (A) (A) (A) (A) (A) (A) (A) (A) (A) (A) (A) (A)
                 (A) (A) (A) (A) (A) (A) (A) (A) (A) (A) (A) (A)
                 (A) (A) (A) (A) (A) (A) (A) (A) (A) (A) (A) (A)
                 (A) (A) (A) (A) (A) (A) (A) (A) (A) (A) (A) (A)
                 (A) (A) (A) (A) (A) (A) (A) (A) (A) (A) (A) (A)
                 (A) (A) (A) (A) (A) (A) (A) (A) (A) (A) (A) (A)
                 (A) (A) (A) (A) (A) (A) (A) (A) (A) (A) (A) (A)
                 (A) (A) (A) (A) (A) (A) (A) (A) (A) (A) (A) (A)
                 (A) (A) (A) (A) (A) (A) (A) (A) (A) (A) (A) (A)
                 (A) (A) (A) (A) (A) (A) (A) (A) (A) (A) (A) (A)
                 (A) (A) (A) (A) (A) (A) (A) (A) (A) (A) (A) (A)
                 (A) (A) (A) (A) (A) (A) (A) (A) (A) (A) (A) (A)
 The electronic state is 1-A.
 Alpha  occ. eigenvalues --  -19.13249 -19.12495 -10.22898 -10.21645 -10.21557
 Alpha  occ. eigenvalues --  -10.17965 -10.17818 -10.17816 -10.17493 -10.17333
 Alpha  occ. eigenvalues --  -10.17066 -10.16980 -10.16975 -10.16820 -10.16772
 Alpha  occ. eigenvalues --  -10.16727 -10.16693 -10.16512 -10.16383 -10.16214
 Alpha  occ. eigenvalues --   -1.01720  -1.00600  -0.83318  -0.82308  -0.80728
 Alpha  occ. eigenvalues --   -0.78013  -0.76430  -0.73634  -0.71243  -0.70528
 Alpha  occ. eigenvalues --   -0.67801  -0.67397  -0.63554  -0.60634  -0.58897
 Alpha  occ. eigenvalues --   -0.58056  -0.57410  -0.56755  -0.55156  -0.54993
 Alpha  occ. eigenvalues --   -0.50520  -0.49367  -0.48692  -0.47851  -0.46699
 Alpha  occ. eigenvalues --   -0.46156  -0.45432  -0.44315  -0.43762  -0.43373
 Alpha  occ. eigenvalues --   -0.42617  -0.41366  -0.40934  -0.40535  -0.39539
 Alpha  occ. eigenvalues --   -0.38351  -0.38019  -0.37776  -0.37340  -0.36807
 Alpha  occ. eigenvalues --   -0.36181  -0.35732  -0.35116  -0.34757  -0.34134
 Alpha  occ. eigenvalues --   -0.34021  -0.33865  -0.33663  -0.32978  -0.32650
 Alpha  occ. eigenvalues --   -0.32383  -0.31901  -0.31748  -0.31379  -0.31181
 Alpha  occ. eigenvalues --   -0.29952  -0.29543  -0.27483  -0.25180  -0.23901
 Alpha virt. eigenvalues --    0.05977   0.07379   0.08427   0.08837   0.09914
 Alpha virt. eigenvalues --    0.10072   0.10802   0.11236   0.11743   0.12054
 Alpha virt. eigenvalues --    0.12743   0.13581   0.13781   0.14757   0.15057
 Alpha virt. eigenvalues --    0.15171   0.15455   0.15849   0.16326   0.16791
 Alpha virt. eigenvalues --    0.16919   0.17469   0.17893   0.18134   0.18388
 Alpha virt. eigenvalues --    0.18722   0.19032   0.19406   0.19546   0.19729
 Alpha virt. eigenvalues --    0.20317   0.20374   0.20890   0.20966   0.21229
 Alpha virt. eigenvalues --    0.21703   0.22415   0.22818   0.23168   0.23574
 Alpha virt. eigenvalues --    0.24082   0.24165   0.24680   0.25050   0.25809
 Alpha virt. eigenvalues --    0.26184   0.27170   0.28029   0.28350   0.30035
 Alpha virt. eigenvalues --    0.30181   0.30935   0.31382   0.32630   0.34011
 Alpha virt. eigenvalues --    0.35983   0.40407   0.43955   0.45549   0.45815
 Alpha virt. eigenvalues --    0.47025   0.47447   0.48457   0.48747   0.49476
 Alpha virt. eigenvalues --    0.50260   0.50527   0.51358   0.51546   0.51732
 Alpha virt. eigenvalues --    0.52374   0.52904   0.53108   0.53809   0.54290
 Alpha virt. eigenvalues --    0.54628   0.56015   0.56516   0.56813   0.57041
 Alpha virt. eigenvalues --    0.58008   0.58655   0.59045   0.59825   0.60217
 Alpha virt. eigenvalues --    0.60855   0.61198   0.61927   0.62148   0.62619
 Alpha virt. eigenvalues --    0.63283   0.63668   0.64580   0.65063   0.65749
 Alpha virt. eigenvalues --    0.66695   0.67102   0.67767   0.68630   0.69729
 Alpha virt. eigenvalues --    0.70096   0.70754   0.71046   0.71576   0.72204
 Alpha virt. eigenvalues --    0.72494   0.72956   0.73634   0.73820   0.74071
 Alpha virt. eigenvalues --    0.74400   0.74461   0.74813   0.75123   0.75406
 Alpha virt. eigenvalues --    0.76120   0.76350   0.76767   0.77550   0.78119
 Alpha virt. eigenvalues --    0.78562   0.78617   0.78954   0.79496   0.79995
 Alpha virt. eigenvalues --    0.80175   0.80491   0.81139   0.81474   0.82038
 Alpha virt. eigenvalues --    0.82230   0.82548   0.83105   0.83631   0.83864
 Alpha virt. eigenvalues --    0.84462   0.84983   0.85871   0.86513   0.86814
 Alpha virt. eigenvalues --    0.87527   0.87651   0.88111   0.88409   0.89232
 Alpha virt. eigenvalues --    0.90062   0.90736   0.91930   0.92835   0.93264
 Alpha virt. eigenvalues --    0.94237   0.95367   0.97211   0.99173   1.01212
 Alpha virt. eigenvalues --    1.01391   1.03933   1.05148   1.06415   1.06981
 Alpha virt. eigenvalues --    1.07480   1.09106   1.10167   1.10834   1.11731
 Alpha virt. eigenvalues --    1.12875   1.13119   1.14099   1.14797   1.17083
 Alpha virt. eigenvalues --    1.17783   1.18661   1.19374   1.19761   1.20792
 Alpha virt. eigenvalues --    1.21610   1.22703   1.22866   1.23985   1.24987
 Alpha virt. eigenvalues --    1.25577   1.26107   1.26892   1.27654   1.29868
 Alpha virt. eigenvalues --    1.31706   1.32991   1.34465   1.34858   1.35278
 Alpha virt. eigenvalues --    1.35898   1.37311   1.37969   1.38593   1.38983
 Alpha virt. eigenvalues --    1.39686   1.40502   1.40595   1.40933   1.42090
 Alpha virt. eigenvalues --    1.43141   1.44542   1.44865   1.45343   1.47365
 Alpha virt. eigenvalues --    1.48144   1.48789   1.49306   1.50436   1.52097
 Alpha virt. eigenvalues --    1.52446   1.52617   1.53896   1.55346   1.55382
 Alpha virt. eigenvalues --    1.56037   1.56819   1.57015   1.58090   1.59022
 Alpha virt. eigenvalues --    1.59729   1.60979   1.61486   1.62051   1.62985
 Alpha virt. eigenvalues --    1.63398   1.64778   1.65429   1.66697   1.67091
 Alpha virt. eigenvalues --    1.69029   1.70678   1.71475   1.72243   1.73265
 Alpha virt. eigenvalues --    1.73676   1.74686   1.75773   1.78011   1.78707
 Alpha virt. eigenvalues --    1.79024   1.81803   1.82582   1.83188   1.84510
 Alpha virt. eigenvalues --    1.85066   1.85190   1.85680   1.86321   1.87282
 Alpha virt. eigenvalues --    1.87704   1.88260   1.88662   1.89631   1.90448
 Alpha virt. eigenvalues --    1.91437   1.92642   1.93207   1.94134   1.94237
 Alpha virt. eigenvalues --    1.94653   1.95646   1.96423   1.97450   1.98282
 Alpha virt. eigenvalues --    1.99251   2.00273   2.01037   2.02196   2.03848
 Alpha virt. eigenvalues --    2.07652   2.11146   2.12545   2.14607   2.15960
 Alpha virt. eigenvalues --    2.16351   2.18131   2.18572   2.20471   2.20821
 Alpha virt. eigenvalues --    2.21047   2.21281   2.23029   2.23763   2.24151
 Alpha virt. eigenvalues --    2.26229   2.26848   2.27507   2.28915   2.29668
 Alpha virt. eigenvalues --    2.30770   2.32310   2.32762   2.33167   2.35016
 Alpha virt. eigenvalues --    2.35611   2.37616   2.38692   2.39355   2.40239
 Alpha virt. eigenvalues --    2.41020   2.41512   2.42424   2.43321   2.43888
 Alpha virt. eigenvalues --    2.45825   2.49096   2.50214   2.51351   2.54346
 Alpha virt. eigenvalues --    2.54660   2.55355   2.57038   2.57520   2.59869
 Alpha virt. eigenvalues --    2.60641   2.62617   2.63152   2.64086   2.65607
 Alpha virt. eigenvalues --    2.66801   2.68761   2.70472   2.71779   2.73378
 Alpha virt. eigenvalues --    2.74338   2.74615   2.74857   2.75426   2.75596
 Alpha virt. eigenvalues --    2.76174   2.76443   2.77547   2.77870   2.78546
 Alpha virt. eigenvalues --    2.79127   2.79715   2.80202   2.80354   2.81134
 Alpha virt. eigenvalues --    2.81504   2.82206   2.82783   2.83182   2.83865
 Alpha virt. eigenvalues --    2.84124   2.85371   2.85973   2.86312   2.86939
 Alpha virt. eigenvalues --    2.87696   2.88439   2.89057   2.89886   2.90199
 Alpha virt. eigenvalues --    2.90475   2.90901   2.92415   2.93420   2.93443
 Alpha virt. eigenvalues --    2.93707   2.94077   2.94514   2.94907   2.95511
 Alpha virt. eigenvalues --    2.96191   2.96608   2.97140   2.97842   2.98418
 Alpha virt. eigenvalues --    2.99076   2.99609   3.00323   3.00499   3.01607
 Alpha virt. eigenvalues --    3.02955   3.03610   3.04931   3.05237   3.06227
 Alpha virt. eigenvalues --    3.07317   3.07848   3.09166   3.10544   3.12047
 Alpha virt. eigenvalues --    3.12836   3.14531   3.15240   3.16490   3.17674
 Alpha virt. eigenvalues --    3.18703   3.18894   3.21369   3.22634   3.23318
 Alpha virt. eigenvalues --    3.24383   3.25225   3.26195   3.27202   3.27220
 Alpha virt. eigenvalues --    3.28649   3.29274   3.30649   3.31433   3.32822
 Alpha virt. eigenvalues --    3.34568   3.35349   3.35847   3.37731   3.38610
 Alpha virt. eigenvalues --    3.40180   3.40869   3.41562   3.43191   3.44034
 Alpha virt. eigenvalues --    3.44256   3.46139   3.46446   3.47909   3.48709
 Alpha virt. eigenvalues --    3.49668   3.50181   3.50688   3.51915   3.52595
 Alpha virt. eigenvalues --    3.53668   3.54550   3.55259   3.56349   3.57079
 Alpha virt. eigenvalues --    3.57327   3.57811   3.59004   3.59624   3.60782
 Alpha virt. eigenvalues --    3.61916   3.62110   3.63819   3.64543   3.65234
 Alpha virt. eigenvalues --    3.65542   3.66583   3.67073   3.69787   3.70107
 Alpha virt. eigenvalues --    3.71102   3.71322   3.72074   3.73008   3.75013
 Alpha virt. eigenvalues --    3.75702   3.76764   3.77753   3.77900   3.78347
 Alpha virt. eigenvalues --    3.79430   3.80524   3.80862   3.82165   3.82685
 Alpha virt. eigenvalues --    3.83017   3.83856   3.86423   3.87926   3.89181
 Alpha virt. eigenvalues --    3.90491   3.91851   3.93199   3.93661   3.96281
 Alpha virt. eigenvalues --    3.97321   4.00435   4.03366   4.04647   4.05737
 Alpha virt. eigenvalues --    4.07632   4.10652   4.11623   4.14358   4.16876
 Alpha virt. eigenvalues --    4.18105   4.20272   4.22236   4.22978   4.25646
 Alpha virt. eigenvalues --    4.27073   4.28744   4.30933   4.31221   4.33511
 Alpha virt. eigenvalues --    4.34505   4.36977   4.38040   4.39466   4.40731
 Alpha virt. eigenvalues --    4.41365   4.41931   4.43138   4.43855   4.45056
 Alpha virt. eigenvalues --    4.45569   4.45974   4.46989   4.48210   4.49346
 Alpha virt. eigenvalues --    4.50311   4.50850   4.51740   4.51889   4.52629
 Alpha virt. eigenvalues --    4.53084   4.53455   4.54013   4.54715   4.54880
 Alpha virt. eigenvalues --    4.55429   4.56920   4.57913   4.57998   4.58395
 Alpha virt. eigenvalues --    4.59423   4.59595   4.60046   4.60687   4.61287
 Alpha virt. eigenvalues --    4.61812   4.62629   4.63783   4.64475   4.64688
 Alpha virt. eigenvalues --    4.65796   4.66301   4.67091   4.67253   4.67803
 Alpha virt. eigenvalues --    4.68634   4.68831   4.69491   4.70153   4.70649
 Alpha virt. eigenvalues --    4.71149   4.71729   4.72905   4.73389   4.74366
 Alpha virt. eigenvalues --    4.74763   4.75485   4.75990   4.76293   4.76803
 Alpha virt. eigenvalues --    4.77668   4.78057   4.78602   4.79758   4.80155
 Alpha virt. eigenvalues --    4.80573   4.81213   4.82082   4.82115   4.83597
 Alpha virt. eigenvalues --    4.84225   4.85209   4.85788   4.86194   4.86760
 Alpha virt. eigenvalues --    4.87005   4.87279   4.88118   4.89719   4.90001
 Alpha virt. eigenvalues --    4.90495   4.90734   4.90986   4.92282   4.92890
 Alpha virt. eigenvalues --    4.93720   4.94333   4.95239   4.96312   4.96925
 Alpha virt. eigenvalues --    4.96999   4.97971   4.98873   4.99861   5.01245
 Alpha virt. eigenvalues --    5.03803   5.04331   5.05811   5.06924   5.08991
 Alpha virt. eigenvalues --    5.14382   5.14746   5.16682   5.21985   5.25086
 Alpha virt. eigenvalues --    5.26635   5.27300   5.28163   5.30302   5.31705
 Alpha virt. eigenvalues --    5.33493   5.35492   5.36362   5.38253   5.39671
 Alpha virt. eigenvalues --    5.42281   5.43862   5.44848   5.46185   5.47079
 Alpha virt. eigenvalues --    5.49092   5.50558   5.52909   5.53372   5.54593
 Alpha virt. eigenvalues --    5.56041   5.56833   5.57893   5.59627   5.61303
 Alpha virt. eigenvalues --    5.64954   5.67839   5.71261   5.75052   5.80732
 Alpha virt. eigenvalues --    5.84808   5.88735   5.94401   5.96413   5.97931
 Alpha virt. eigenvalues --    6.04532   6.13510   6.14657   6.19092   6.25683
 Alpha virt. eigenvalues --    6.37314   6.78838   7.11676   7.17580   7.27314
 Alpha virt. eigenvalues --   11.16819  11.20101  11.31728  11.41185  11.57816
 Alpha virt. eigenvalues --   11.80626  11.83992  11.87672  11.90600  12.08511
 Alpha virt. eigenvalues --   12.21204  12.29090  12.35994  12.48785  12.53652
 Alpha virt. eigenvalues --   12.67582  12.81656  13.02838  13.40844  13.66654
          Condensed to atoms (all electrons):
 Mulliken charges:
               1
     1  C   -0.409584
     2  C    0.003601
     3  O   -0.284231
     4  C    0.085608
     5  C   -0.207324
     6  C   -0.169911
     7  C   -0.201849
     8  C   -0.167993
     9  C   -0.170652
    10  C   -0.184873
    11  C   -0.158226
    12  C    0.043672
    13  C   -0.377719
    14  C   -0.385968
    15  C    0.021134
    16  C   -0.238054
    17  C   -0.215803
    18  C    0.133578
    19  O   -0.452139
    20  C   -0.242615
    21  H    0.117022
    22  H    0.125020
    23  H    0.112590
    24  H    0.104394
    25  H    0.078875
    26  H    0.059265
    27  H    0.099241
    28  H    0.097953
    29  H    0.111319
    30  H    0.082739
    31  H    0.084731
    32  H    0.090071
    33  H    0.088362
    34  H    0.089922
    35  H    0.088285
    36  H    0.088554
    37  H    0.093647
    38  H    0.086806
    39  H    0.084645
    40  H    0.085843
    41  H    0.066011
    42  H    0.107974
    43  H    0.112354
    44  H    0.106066
    45  H    0.108483
    46  H    0.102752
    47  H    0.104781
    48  H    0.065127
    49  H    0.092145
    50  H    0.096452
    51  H    0.096992
    52  H    0.091649
    53  H    0.074544
    54  H    0.284471
    55  H    0.103961
    56  H    0.096300
 Sum of Mulliken charges =  -0.00000
 Mulliken charges with hydrogens summed into heavy atoms:
               1
     1  C   -0.054951
     2  C    0.186870
     3  O   -0.284231
     4  C    0.144873
     5  C   -0.010130
     6  C    0.024147
     7  C   -0.027047
     8  C    0.010290
     9  C    0.006187
    10  C   -0.004420
    11  C    0.012262
    12  C    0.109683
    13  C   -0.051324
    14  C   -0.069952
    15  C    0.086261
    16  C   -0.049456
    17  C   -0.027162
    18  C    0.208122
    19  O   -0.167668
    20  C   -0.042354
 Electronic spatial extent (au):  <R**2>=          15094.8435
 Charge=             -0.0000 electrons
 Dipole moment (field-independent basis, Debye):
    X=             -2.5323    Y=             -0.2356    Z=              1.1897  Tot=              2.8077
 Quadrupole moment (field-independent basis, Debye-Ang):
   XX=           -155.8530   YY=           -127.8506   ZZ=           -127.1965
   XY=             -0.9991   XZ=              6.6050   YZ=              1.0618
 Traceless Quadrupole moment (field-independent basis, Debye-Ang):
   XX=            -18.8863   YY=              9.1161   ZZ=              9.7702
   XY=             -0.9991   XZ=              6.6050   YZ=              1.0618
 Octapole moment (field-independent basis, Debye-Ang**2):
  XXX=           -121.3267  YYY=              0.3398  ZZZ=             -8.2333  XYY=             16.2552
  XXY=             25.9333  XXZ=             58.2495  XZZ=             11.6564  YZZ=             -0.0993
  YYZ=             -0.7982  XYZ=              6.1297
 Hexadecapole moment (field-independent basis, Debye-Ang**3):
 XXXX=         -20191.9697 YYYY=          -1772.9242 ZZZZ=           -401.4260 XXXY=            187.9034
 XXXZ=            304.8359 YYYX=            -33.2582 YYYZ=             14.0153 ZZZX=            -34.5651
 ZZZY=              7.5909 XXYY=          -3380.3534 XXZZ=          -3105.3825 YYZZ=           -360.7649
 XXYZ=            -13.1830 YYXZ=            -26.6128 ZZXY=            -10.5133
 N-N= 1.581027879173D+03 E-N=-5.153627105545D+03  KE= 8.515292704004D+02
 PrsmSu:  requested number of processors reduced to:  12 ShMem   1 Linda.
 Calling FoFJK, ICntrl=      2127 FMM=F ISym2X=0 I1Cent= 0 IOpClX= 0 NMat=1 NMatS=1 NMatT=0.
 ***** Axes restored to original set *****
 -------------------------------------------------------------------
 Center     Atomic                   Forces (Hartrees/Bohr)
 Number     Number              X              Y              Z
 -------------------------------------------------------------------
      1        6          -0.008026715   -0.013763752   -0.006919842
      2        6          -0.003735378    0.000181795    0.013791788
      3        8           0.006185469   -0.000471514   -0.005686097
      4        6          -0.000985239   -0.010369199    0.015213487
      5        6          -0.006528106    0.002804250   -0.010382472
      6        6           0.000229254   -0.006061594    0.008072801
      7        6          -0.000823261    0.003078856   -0.010987051
      8        6           0.010038857   -0.006789132    0.010413833
      9        6          -0.006173876    0.006707114   -0.009950192
     10        6           0.006267347   -0.000428643    0.012342001
     11        6          -0.004593856    0.008135707   -0.008811093
     12        6           0.000712862    0.001010202    0.011000111
     13        6          -0.002242166    0.000918876   -0.005214997
     14        6           0.002255347    0.005906084   -0.001463697
     15        6          -0.009878272    0.006377644    0.003663968
     16        6           0.007460432    0.003548238    0.003849417
     17        6           0.008022882    0.001536820   -0.008078914
     18        6          -0.000365971   -0.001588655   -0.000901315
     19        8           0.005869268   -0.000297138    0.014914045
     20        6          -0.007290968    0.001108902   -0.000826639
     21        1           0.000485814   -0.003463896   -0.001963500
     22        1          -0.001811930   -0.001815531   -0.001884214
     23        1          -0.006198144   -0.002687767   -0.003532865
     24        1           0.013452081    0.016118603    0.003389474
     25        1           0.001334841    0.000112646   -0.000760522
     26        1           0.000275369    0.002221588   -0.002237171
     27        1          -0.000027021   -0.005294883   -0.000954509
     28        1          -0.000101565   -0.002643621   -0.001112280
     29        1          -0.010618459   -0.003916589   -0.009157959
     30        1           0.002882285    0.001234165    0.000010848
     31        1           0.003981801    0.003299344    0.003723932
     32        1           0.002977475   -0.000850473    0.000064959
     33        1           0.002712801   -0.002401795   -0.000320057
     34        1           0.001246341    0.000286957    0.000645922
     35        1           0.001811365    0.000745504    0.002144549
     36        1           0.001987283    0.000426998    0.001214952
     37        1           0.000178568    0.001291120   -0.000483864
     38        1          -0.000063476    0.000127149   -0.000505174
     39        1          -0.000236355    0.000589433    0.000845922
     40        1          -0.000613400    0.001276461    0.001006296
     41        1           0.000440195   -0.000249559   -0.001037120
     42        1          -0.000613826    0.000543894    0.000761928
     43        1          -0.000648797    0.000425201    0.001022244
     44        1          -0.000945301    0.001380274    0.001700534
     45        1          -0.000282889    0.000438808    0.000434366
     46        1           0.000483197    0.001993579    0.002216805
     47        1           0.000178479    0.000713702    0.001130726
     48        1          -0.001658353    0.005204230   -0.001073192
     49        1           0.001656951    0.002556683   -0.001446729
     50        1          -0.000630551    0.000588672    0.002978892
     51        1          -0.001932812   -0.002382422   -0.003622362
     52        1           0.000635930   -0.002165135   -0.001340788
     53        1           0.001832386   -0.004115326    0.004013083
     54        1          -0.006970021   -0.010732959   -0.015512858
     55        1          -0.000229931   -0.000364661   -0.005371774
     56        1          -0.001368238   -0.000035257    0.000972364
 -------------------------------------------------------------------
 Cartesian Forces:  Max     0.016118603 RMS     0.005147337

 GradGradGradGradGradGradGradGradGradGradGradGradGradGradGradGradGradGrad
 Berny optimization.
 FormGI is forming the generalized inverse of G from B-inverse, IUseBI=4.
 Internal  Forces:  Max     0.052172291 RMS     0.007642435
 Search for a local minimum.
 Step number   1 out of a maximum of  336
 All quantities printed in internal units (Hartrees-Bohrs-Radians)
 Mixed Optimization -- RFO/linear search
 Second derivative matrix not updated -- first step.
 ITU=  0
     Eigenvalues ---    0.00230   0.00230   0.00334   0.00377   0.00388
     Eigenvalues ---    0.00431   0.00440   0.00531   0.00571   0.00616
     Eigenvalues ---    0.00647   0.00712   0.00724   0.00732   0.01095
     Eigenvalues ---    0.01410   0.01434   0.02129   0.02292   0.03378
     Eigenvalues ---    0.03457   0.03673   0.03770   0.03961   0.04001
     Eigenvalues ---    0.04033   0.04079   0.04133   0.04356   0.04390
     Eigenvalues ---    0.04457   0.04614   0.04658   0.04688   0.04804
     Eigenvalues ---    0.04837   0.04915   0.04933   0.05038   0.05045
     Eigenvalues ---    0.05066   0.05088   0.05161   0.05226   0.05248
     Eigenvalues ---    0.05458   0.05525   0.05540   0.05590   0.05614
     Eigenvalues ---    0.05620   0.05631   0.05756   0.06216   0.06689
     Eigenvalues ---    0.06722   0.06734   0.06843   0.06947   0.06969
     Eigenvalues ---    0.07211   0.07329   0.07871   0.07894   0.07902
     Eigenvalues ---    0.08262   0.08571   0.08818   0.08847   0.10025
     Eigenvalues ---    0.11385   0.11667   0.11816   0.11830   0.11837
     Eigenvalues ---    0.12136   0.12364   0.12653   0.13132   0.14204
     Eigenvalues ---    0.14278   0.15833   0.16000   0.16000   0.16000
     Eigenvalues ---    0.16000   0.16000   0.16000   0.16000   0.16000
     Eigenvalues ---    0.16000   0.16000   0.16277   0.16721   0.18358
     Eigenvalues ---    0.19748   0.20056   0.21800   0.21823   0.21847
     Eigenvalues ---    0.21881   0.21890   0.21945   0.21968   0.22283
     Eigenvalues ---    0.25000   0.26079   0.27095   0.27436   0.28137
     Eigenvalues ---    0.28962   0.29153   0.29480   0.29554   0.29603
     Eigenvalues ---    0.29860   0.29925   0.30584   0.30882   0.31214
     Eigenvalues ---    0.31953   0.32045   0.32109   0.33473   0.33676
     Eigenvalues ---    0.33808   0.33838   0.33874   0.33893   0.33922
     Eigenvalues ---    0.33929   0.33963   0.34012   0.34016   0.34019
     Eigenvalues ---    0.34028   0.34042   0.34073   0.34100   0.34151
     Eigenvalues ---    0.34183   0.34198   0.34198   0.34198   0.34211
     Eigenvalues ---    0.34222   0.34232   0.34235   0.34265   0.34307
     Eigenvalues ---    0.34322   0.34384   0.34410   0.34451   0.34660
     Eigenvalues ---    0.35260   0.37108   0.37276   0.38897   0.42266
     Eigenvalues ---    0.42538   0.50811
 RFO step:  Lambda=-7.39198337D-02 EMin= 2.30000000D-03
 Linear search not attempted -- first point.
 Maximum step size (   0.300) exceeded in Quadratic search.
    -- Step size scaled by   0.676
 Iteration  1 RMS(Cart)=  0.23418407 RMS(Int)=  0.01054877
 Iteration  2 RMS(Cart)=  0.14972988 RMS(Int)=  0.00303130
 Iteration  3 RMS(Cart)=  0.00760000 RMS(Int)=  0.00036217
 Iteration  4 RMS(Cart)=  0.00002043 RMS(Int)=  0.00036205
 Iteration  5 RMS(Cart)=  0.00000005 RMS(Int)=  0.00036205
 Variable       Old X    -DE/DX   Delta X   Delta X   Delta X     New X
                                 (Linear)    (Quad)   (Total)
    R1        2.84230   0.01675   0.00000   0.02879   0.02879   2.87109
    R2        2.07655  -0.00316   0.00000  -0.00519  -0.00519   2.07136
    R3        2.06935  -0.00042   0.00000  -0.00068  -0.00068   2.06867
    R4        2.05255   0.00630   0.00000   0.00999   0.00999   2.06254
    R5        2.68585  -0.00302   0.00000  -0.00412  -0.00412   2.68173
    R6        2.02132   0.01346   0.00000   0.02038   0.02038   2.04170
    R7        2.07207   0.00120   0.00000   0.00196   0.00196   2.07403
    R8        2.73080  -0.00138   0.00000  -0.00202  -0.00202   2.72878
    R9        2.93387   0.00856   0.00000   0.01662   0.01662   2.95050
   R10        2.91841  -0.00192   0.00000  -0.00365  -0.00365   2.91476
   R11        2.07604   0.00287   0.00000   0.00470   0.00470   2.08074
   R12        2.86239   0.01648   0.00000   0.02912   0.02912   2.89151
   R13        2.07259   0.00057   0.00000   0.00093   0.00093   2.07352
   R14        2.07303  -0.00012   0.00000  -0.00019  -0.00019   2.07284
   R15        2.83945   0.03126   0.00000   0.05353   0.05353   2.89298
   R16        2.02384   0.00884   0.00000   0.01344   0.01344   2.03728
   R17        2.06885   0.00124   0.00000   0.00201   0.00201   2.07087
   R18        2.88113   0.01335   0.00000   0.02420   0.02420   2.90533
   R19        2.06230   0.00415   0.00000   0.00668   0.00668   2.06898
   R20        2.07510  -0.00061   0.00000  -0.00100  -0.00100   2.07411
   R21        2.84061   0.02495   0.00000   0.04279   0.04279   2.88340
   R22        2.08228  -0.00259   0.00000  -0.00428  -0.00428   2.07800
   R23        2.07461  -0.00013   0.00000  -0.00022  -0.00022   2.07439
   R24        2.85606   0.01953   0.00000   0.03422   0.03422   2.89028
   R25        2.06790   0.00192   0.00000   0.00311   0.00311   2.07100
   R26        2.07298   0.00024   0.00000   0.00039   0.00039   2.07337
   R27        2.86813   0.01485   0.00000   0.02645   0.02645   2.89458
   R28        2.06998  -0.00024   0.00000  -0.00040  -0.00040   2.06958
   R29        2.07309   0.00047   0.00000   0.00077   0.00077   2.07386
   R30        2.88861   0.01110   0.00000   0.02032   0.02032   2.90894
   R31        2.07543  -0.00021   0.00000  -0.00035  -0.00035   2.07508
   R32        2.07450   0.00060   0.00000   0.00099   0.00099   2.07549
   R33        2.89013   0.00455   0.00000   0.00835   0.00835   2.89848
   R34        2.88243   0.00789   0.00000   0.01433   0.01433   2.89676
   R35        2.07392   0.00097   0.00000   0.00158   0.00158   2.07550
   R36        2.06998   0.00067   0.00000   0.00108   0.00108   2.07106
   R37        2.06815  -0.00075   0.00000  -0.00122  -0.00122   2.06692
   R38        2.06576   0.00144   0.00000   0.00233   0.00233   2.06809
   R39        2.07023   0.00033   0.00000   0.00054   0.00054   2.07077
   R40        2.06644   0.00147   0.00000   0.00239   0.00239   2.06882
   R41        2.06975   0.00018   0.00000   0.00029   0.00029   2.07003
   R42        2.91932   0.01069   0.00000   0.02092   0.02091   2.94023
   R43        2.90348   0.01109   0.00000   0.02061   0.02061   2.92410
   R44        2.07881  -0.00229   0.00000  -0.00377  -0.00377   2.07504
   R45        2.88490   0.01366   0.00000   0.02524   0.02524   2.91014
   R46        2.07282  -0.00075   0.00000  -0.00122  -0.00122   2.07160
   R47        2.06940  -0.00081   0.00000  -0.00132  -0.00132   2.06808
   R48        2.87257   0.00940   0.00000   0.01671   0.01671   2.88927
   R49        2.06686  -0.00039   0.00000  -0.00063  -0.00063   2.06624
   R50        2.07161   0.00016   0.00000   0.00026   0.00026   2.07187
   R51        2.68244   0.00578   0.00000   0.00783   0.00783   2.69027
   R52        2.87566   0.01068   0.00000   0.01858   0.01860   2.89426
   R53        2.06997  -0.00116   0.00000  -0.00189  -0.00189   2.06808
   R54        1.85756  -0.02009   0.00000  -0.02334  -0.02334   1.83421
   R55        2.07077  -0.00294   0.00000  -0.00478  -0.00478   2.06599
   R56        2.06957  -0.00015   0.00000  -0.00024  -0.00024   2.06933
    A1        1.88382  -0.00028   0.00000  -0.00078  -0.00078   1.88305
    A2        1.90297   0.00229   0.00000   0.00729   0.00725   1.91022
    A3        1.97103   0.00506   0.00000   0.01389   0.01386   1.98489
    A4        1.87527   0.00004   0.00000   0.00175   0.00174   1.87701
    A5        1.91764  -0.00319   0.00000  -0.01053  -0.01052   1.90712
    A6        1.91053  -0.00405   0.00000  -0.01184  -0.01189   1.89864
    A7        2.02316  -0.02956   0.00000  -0.06883  -0.06939   1.95377
    A8        1.69360   0.02268   0.00000   0.08027   0.08128   1.77488
    A9        1.96665   0.00368   0.00000  -0.00661  -0.00834   1.95831
   A10        1.86418   0.00594   0.00000   0.03063   0.03272   1.89691
   A11        1.95278   0.00833   0.00000   0.00147  -0.00063   1.95215
   A12        1.94371  -0.00938   0.00000  -0.02450  -0.02481   1.91890
   A13        1.98084   0.05217   0.00000   0.10894   0.10894   2.08978
   A14        1.99139   0.02509   0.00000   0.07880   0.07835   2.06974
   A15        1.89567  -0.02090   0.00000  -0.06279  -0.06247   1.83320
   A16        1.89057  -0.00047   0.00000   0.00333   0.00160   1.89217
   A17        1.87312  -0.00263   0.00000  -0.00942  -0.00838   1.86474
   A18        1.91947  -0.00510   0.00000  -0.00669  -0.00754   1.91193
   A19        1.89130   0.00295   0.00000  -0.00786  -0.00825   1.88304
   A20        1.99164   0.04139   0.00000   0.09956   0.09945   2.09109
   A21        1.91861  -0.01656   0.00000  -0.05121  -0.05069   1.86792
   A22        1.90237  -0.01228   0.00000  -0.02156  -0.02373   1.87864
   A23        1.87006  -0.01264   0.00000  -0.03172  -0.03012   1.83994
   A24        1.90535  -0.00746   0.00000   0.00023  -0.00070   1.90464
   A25        1.87207   0.00590   0.00000  -0.00037  -0.00145   1.87061
   A26        2.00867  -0.00531   0.00000  -0.01173  -0.01205   1.99663
   A27        1.93363  -0.00237   0.00000  -0.00233  -0.00242   1.93121
   A28        1.94608   0.00216   0.00000  -0.00475  -0.00524   1.94085
   A29        1.72465   0.01226   0.00000   0.05203   0.05215   1.77680
   A30        1.96497  -0.00349   0.00000  -0.02016  -0.02040   1.94457
   A31        1.86905  -0.00219   0.00000  -0.00652  -0.00628   1.86276
   A32        1.84831   0.03108   0.00000   0.07664   0.07664   1.92495
   A33        1.94627  -0.00645   0.00000  -0.00885  -0.00840   1.93787
   A34        1.91444  -0.00902   0.00000  -0.01747  -0.01784   1.89660
   A35        1.95558  -0.01323   0.00000  -0.03523  -0.03558   1.92000
   A36        1.90170  -0.00608   0.00000  -0.00850  -0.00881   1.89288
   A37        1.89675   0.00376   0.00000  -0.00566  -0.00626   1.89049
   A38        1.90276   0.02296   0.00000   0.05513   0.05523   1.95799
   A39        1.93499  -0.00871   0.00000  -0.02196  -0.02217   1.91283
   A40        1.92674  -0.00642   0.00000  -0.01384  -0.01382   1.91291
   A41        1.90579  -0.00489   0.00000  -0.00668  -0.00654   1.89926
   A42        1.94038  -0.00817   0.00000  -0.01886  -0.01884   1.92154
   A43        1.85300   0.00427   0.00000   0.00383   0.00349   1.85649
   A44        1.90604   0.02054   0.00000   0.05048   0.05048   1.95653
   A45        1.91306  -0.00514   0.00000  -0.00842  -0.00840   1.90465
   A46        1.90865  -0.00545   0.00000  -0.00992  -0.00991   1.89874
   A47        1.93224  -0.00652   0.00000  -0.01499  -0.01516   1.91708
   A48        1.91918  -0.00604   0.00000  -0.01361  -0.01374   1.90544
   A49        1.88448   0.00223   0.00000  -0.00446  -0.00474   1.87974
   A50        1.90518   0.01841   0.00000   0.04477   0.04480   1.94998
   A51        1.89208  -0.00425   0.00000  -0.00586  -0.00587   1.88621
   A52        1.92764  -0.00630   0.00000  -0.01470  -0.01467   1.91297
   A53        1.94144  -0.00579   0.00000  -0.01284  -0.01300   1.92843
   A54        1.92480  -0.00525   0.00000  -0.01188  -0.01185   1.91295
   A55        1.87242   0.00266   0.00000  -0.00074  -0.00095   1.87147
   A56        1.95257   0.01935   0.00000   0.04662   0.04666   1.99923
   A57        1.89866  -0.00576   0.00000  -0.01220  -0.01210   1.88656
   A58        1.91021  -0.00456   0.00000  -0.00645  -0.00643   1.90378
   A59        1.91463  -0.00615   0.00000  -0.01529  -0.01532   1.89931
   A60        1.92478  -0.00668   0.00000  -0.01551  -0.01570   1.90908
   A61        1.86054   0.00297   0.00000   0.00054   0.00029   1.86084
   A62        1.95013   0.00264   0.00000   0.01038   0.01037   1.96050
   A63        1.90409   0.00253   0.00000   0.00964   0.00964   1.91372
   A64        1.89626  -0.00220   0.00000  -0.00811  -0.00808   1.88818
   A65        1.92252  -0.00275   0.00000  -0.00543  -0.00553   1.91699
   A66        1.89562   0.00008   0.00000  -0.00224  -0.00224   1.89338
   A67        1.89424  -0.00039   0.00000  -0.00479  -0.00479   1.88945
   A68        1.93594  -0.00008   0.00000  -0.00098  -0.00098   1.93496
   A69        1.95157   0.00165   0.00000   0.00577   0.00576   1.95732
   A70        1.93346   0.00030   0.00000   0.00062   0.00061   1.93407
   A71        1.88312  -0.00060   0.00000  -0.00128  -0.00129   1.88184
   A72        1.89436  -0.00115   0.00000  -0.00522  -0.00522   1.88914
   A73        1.86264  -0.00022   0.00000   0.00081   0.00080   1.86344
   A74        1.93655  -0.00054   0.00000  -0.00212  -0.00212   1.93443
   A75        1.93066   0.00343   0.00000   0.01020   0.01019   1.94085
   A76        1.93378   0.00136   0.00000   0.00420   0.00418   1.93796
   A77        1.89057  -0.00179   0.00000  -0.00565  -0.00565   1.88492
   A78        1.88417  -0.00074   0.00000  -0.00271  -0.00270   1.88147
   A79        1.88641  -0.00192   0.00000  -0.00450  -0.00453   1.88188
   A80        1.95513   0.00264   0.00000   0.00746   0.00743   1.96257
   A81        2.00359  -0.00021   0.00000  -0.00223  -0.00221   2.00138
   A82        1.89442  -0.00294   0.00000  -0.01189  -0.01189   1.88253
   A83        1.84760  -0.00276   0.00000  -0.00748  -0.00746   1.84014
   A84        1.89123   0.00093   0.00000   0.00422   0.00426   1.89549
   A85        1.86719   0.00249   0.00000   0.01079   0.01079   1.87798
   A86        1.84284   0.00018   0.00000   0.00157   0.00156   1.84439
   A87        1.91455   0.00139   0.00000   0.00532   0.00532   1.91987
   A88        1.98410  -0.00184   0.00000  -0.00732  -0.00733   1.97678
   A89        1.92362   0.00045   0.00000   0.00258   0.00258   1.92619
   A90        1.93295   0.00119   0.00000   0.00508   0.00508   1.93803
   A91        1.86635  -0.00128   0.00000  -0.00675  -0.00675   1.85960
   A92        1.81313   0.00134   0.00000   0.00233   0.00235   1.81548
   A93        1.94224   0.00289   0.00000   0.01399   0.01400   1.95624
   A94        1.90764  -0.00009   0.00000   0.00216   0.00215   1.90979
[...]
 0.00000846,0.00014223,-0.00018773,0.00033012,0.00138005,0.00226698,0.1
 1980505,0.26142235,0.00000707,0.00005993,-0.00003815,-0.00001360,0.000
 10267,0.00004961,-0.00036218,-0.00014205,0.00003708,0.00004539,-0.0000
 3753,-0.00008120,0.00012439,-0.00004736,-0.00001888,-0.00003520,-0.000
 02454,-0.00003726,0.00002396,-0.00000493,0.00000946,-0.00000234,-0.000
 00194,-0.00000926,0.00000945,-0.00000089,0.00000300,-0.00000011,-0.000
 00058,-0.00000391,0.00000423,-0.00000047,0.00000134,0.00000051,0.00000
 055,-0.00000106,0.00000049,0.00000085,0.00000038,0.00000125,-0.0000006
 4,0.00000048,0.00073148,0.00020666,-0.00005920,0.00020536,-0.00068432,
 0.00019267,0.00122942,0.00008528,0.00088365,-0.00190415,0.00433682,0.0
 1128612,-0.00478357,-0.00654897,0.00911465,0.00106290,-0.00040277,-0.0
 0129518,-0.00000408,-0.00002091,0.00001867,0.00000449,-0.00001219,-0.0
 0000646,-0.00004324,-0.00002238,0.00000492,-0.00000902,-0.00004990,0.0
 0000693,0.00000327,0.00000609,-0.00004960,-0.00001256,-0.00004566,0.00
 002755,-0.00007877,-0.00005722,0.00000792,0.00002389,0.00000243,0.0000
 0855,-0.00002668,0.00003343,0.00000529,0.00000170,0.00000092,0.0000017
 6,-0.00001913,-0.00001062,-0.00000074,0.00000466,-0.00000079,-0.000000
 60,-0.00000889,0.00000434,0.00000111,0.00000065,-0.00000036,0.00000099
 ,-0.00000705,-0.00000285,0.,0.00000156,-0.00000029,-0.00000008,-0.0000
 0399,0.00000136,0.00000041,0.00000044,-0.00000033,0.00000056,-0.000003
 53,-0.00000073,0.,0.00000057,-0.00000022,0.00000007,-0.00000028,-0.000
 00013,0.00000025,0.00000020,0.00000029,0.00000090,-0.00000131,-0.00000
 050,-0.00000169,-0.00000015,-0.00000041,0.00000013,0.00000038,-0.00000
 003,-0.00000024,-0.00000012,-0.00000046,-0.00000049,-0.00000191,-0.000
 00016,0.00000022,0.00049414,0.00045853,0.00039214,-0.00023440,-0.00000
 669,0.00007897,-0.00016086,0.00027946,-0.00000702,-0.00164231,0.000243
 02,-0.00011093,-0.00020632,0.00044979,-0.00074450,0.00058360,-0.001223
 69,0.00112449,0.00607538,-0.00001010,0.00001641,-0.00003492,0.00029293
 ,-0.00008665,0.00029863,-0.00052807,0.00010163,-0.00011630,0.00102797,
 -0.00032850,-0.00091698,-0.00014561,0.00005730,-0.00007305,0.00008933,
 -0.00001067,0.00007951,-0.00006455,0.00002920,-0.00005194,0.00003727,-
 0.00000664,0.00003760,-0.00002482,0.00001476,-0.00002516,0.00001744,-0
 .00000229,0.00001713,-0.00001276,0.00000777,-0.00001385,0.00000775,-0.
 00000872,0.00000723,-0.00000007,0.00000267,-0.00000439,-0.00000485,0.0
 0000525,-0.00000406,-0.00095888,-0.00023472,0.00217109,-0.00050279,-0.
 00007288,0.00015680,-0.00034345,0.00049174,0.00052399,-0.00262247,0.00
 994288,0.03207197,0.00023479,-0.15736085,-0.22739582,0.00059581,0.0004
 3824,0.00149165,-0.00003692,0.00000369,-0.00000978,-0.00000302,0.00000
 265,0.00001572,0.00000710,-0.00000937,0.00000967,-0.00002546,0.0000316
 2,-0.00004594,-0.00000739,-0.00000103,-0.00002293,-0.00016930,0.000395
 00,-0.00003971,-0.00000169,-0.00000682,-0.00001291,0.00001102,-0.00002
 309,-0.00001305,-0.00001676,-0.00000074,-0.00000089,-0.00000233,0.0000
 0738,0.00000167,0.00000821,0.00000297,0.00000194,0.00000155,0.00000020
 ,0.00001198,-0.00000380,0.00000227,-0.00000094,-0.00000122,0.00000212,
 -0.00000053,0.00000332,0.00000186,0.00000111,0.00000013,-0.00000032,0.
 00000629,-0.00000165,-0.00000016,-0.00000101,-0.00000057,0.00000067,0.
 00000020,0.00000107,0.00000042,0.00000045,0.00000012,0.00000032,0.0000
 0410,-0.00000117,0.00000018,0.00000089,-0.00000005,-0.00000195,0.00000
 142,0.00000538,-0.00000160,0.00000245,-0.00000228,0.00000610,0.0000012
 3,0.,-0.00000146,0.00000216,0.00000028,0.00000697,0.00000238,0.0000007
 9,-0.00000151,-0.00000041,0.00045515,-0.00127731,-0.00181655,0.0000596
 4,-0.00005960,0.00004173,0.00025148,-0.00001718,-0.00016693,0.00019023
 ,0.00026443,-0.00024456,-0.00006387,-0.00008895,-0.00014993,-0.0010703
 2,-0.00199730,0.00410664,0.00304629,0.14991025,-0.00000451,-0.00001359
 ,0.00000242,-0.00013813,0.00010346,-0.00005522,0.00023378,-0.00017994,
 -0.00002149,-0.00022977,0.00025964,0.00020256,0.00007370,-0.00003422,0
 .00008915,-0.00004254,0.00000517,-0.00005802,0.00002950,-0.00002184,0.
 00004413,-0.00001980,0.00000166,-0.00002277,0.00001264,-0.00000920,0.0
 0001691,-0.00000888,0.00000019,-0.00000931,0.00000608,-0.00000438,0.00
 000845,-0.00000385,0.00000342,-0.00000315,0.00000019,-0.00000132,0.000
 00309,0.00000203,-0.00000292,0.00000261,0.00010191,0.00045338,0.000307
 11,0.00028373,0.00036937,0.00016575,0.00002594,-0.00053957,0.00198791,
 0.00054190,-0.01709398,-0.03351600,0.01903958,-0.17770018,-0.39214043,
 -0.00077207,-0.00082619,0.00149524,0.00001865,-0.00000180,0.00000394,0
 .00001387,-0.00001357,-0.00001477,-0.00001098,0.00000932,0.00000716,0.
 00001959,-0.00003225,0.00000756,-0.00001124,-0.00000419,-0.00004711,0.
 00003468,-0.00010192,-0.00003614,0.00000286,0.00001532,0.00001338,0.00
 001178,0.00000236,-0.00003636,0.00000705,0.00000288,0.00000586,0.00000
 006,0.00000570,-0.00000837,-0.00000469,-0.00000236,-0.00000150,0.00000
 177,-0.00000045,-0.00001621,0.00000170,-0.00000117,0.00000166,0.000000
 53,0.00000249,-0.00000255,-0.00000189,-0.00000124,-0.00000029,0.000000
 66,0.00000012,-0.00000655,0.00000052,0.00000003,0.00000087,0.00000041,
 0.00000108,-0.00000130,-0.00000073,-0.00000031,0.,0.00000038,-0.000000
 10,-0.00000356,0.00000079,0.00000058,-0.00000150,0.00000008,0.00000100
 ,-0.00000156,-0.00000285,0.00000035,-0.00000120,0.00000106,-0.00000240
 ,-0.00000061,0.00000025,0.00000074,-0.00000176,-0.00000032,-0.00000291
 ,-0.00000124,-0.00000020,0.00000053,0.00000038,0.00002714,-0.00028557,
 0.00061119,-0.00011995,-0.00004176,0.00000577,-0.00003980,-0.00013841,
 -0.00003796,0.00071039,0.00033888,0.00045841,-0.00062044,-0.00042200,0
 .00033720,0.00174685,0.00562313,-0.00265922,-0.02061416,0.19065717,0.4
 2266329,0.00008236,0.00005122,0.00005343,0.00016713,0.00012813,-0.0002
 0153,0.00050421,0.00107327,0.00017929,-0.00118028,-0.00002376,-0.00027
 339,0.00009147,-0.00015239,0.00007337,-0.00004606,0.00000519,-0.000043
 68,0.00002336,-0.00002960,0.00001192,-0.00001285,-0.00000001,-0.000011
 19,0.00000324,-0.00000523,0.00000511,-0.00000500,0.00000090,-0.0000030
 4,0.00000127,-0.00000242,0.00000244,-0.00000221,0.00000191,-0.00000137
 ,-0.00000059,-0.00000099,0.00000049,0.00000054,-0.00000087,0.00000063,
 -0.00704001,-0.00062521,0.00267133,-0.00093550,0.00033337,-0.00136916,
 -0.00147667,0.00175881,-0.00095490,-0.01775271,-0.00768051,0.00432361,
 0.00383880,-0.00176627,-0.00002116,-0.28083350,-0.07361833,0.04840933,
 0.00001293,-0.00000221,-0.00000926,-0.00003068,-0.00002001,0.00003148,
 -0.00001212,-0.00001548,0.00000059,-0.00001935,0.00008065,0.00006861,-
 0.00002118,0.00000697,0.00027688,0.00002889,-0.00001181,-0.00007189,0.
 00007002,0.00006824,0.00002648,-0.00000623,0.00000298,-0.00000947,0.00
 004230,-0.00003523,-0.00001258,-0.00000282,-0.00000422,0.00000210,0.00
 001158,0.00000948,0.00000507,-0.00000126,0.00000161,-0.00000040,0.0000
 0639,-0.00000362,-0.00000175,-0.00000086,-0.00000086,-0.00000007,0.000
 00278,0.00000127,0.00000018,-0.00000048,0.00000021,-0.00000104,0.00000
 264,-0.00000069,-0.00000037,-0.00000031,-0.00000033,0.00000003,0.00000
 150,0.00000032,-0.00000004,-0.00000025,0.00000016,-0.00000084,0.000000
 29,-0.00000012,-0.00000018,0.,0.00000029,-0.00000059,-0.00000051,0.000
 00084,0.00000031,0.00000079,-0.00000152,-0.00000035,-0.00000020,0.0000
 0034,-0.00000025,0.00000007,-0.00000153,-0.00000031,0.00000088,0.00000
 051,-0.00000002,0.00048279,0.00019735,-0.00021533,-0.00055009,-0.00018
 221,0.00015228,-0.00002259,-0.00011981,0.00012472,-0.00094108,-0.00022
 080,-0.00006801,-0.00033547,-0.00002535,0.00005955,-0.00014107,0.00061
 150,0.00006236,-0.00068416,0.00021649,-0.00049837,0.30592937,0.0000582
 3,-0.00004095,0.00008241,0.00042585,-0.00091382,-0.00029071,0.00133463
 ,0.00086490,0.00018193,-0.00227942,0.00019260,0.00008234,0.00022983,-0
 .00008852,-0.00014639,-0.00005400,0.00001948,-0.00005365,0.00003776,-0
 .00003365,-0.00000698,-0.00001429,-0.00000433,-0.00000705,0.00000163,-
 0.00000613,0.00000044,-0.00000298,-0.00000013,-0.00000069,-0.00000052,
 -0.00000108,-0.00000040,-0.00000087,0.,0.00000004,-0.00000056,-0.00000
 073,-0.00000070,-0.00000013,-0.00000005,-0.00000034,-0.01807443,-0.005
 13856,0.00688172,-0.00053285,-0.00258519,-0.00365430,0.00276932,-0.003
 71702,0.00106317,0.02494375,0.00739829,-0.00502502,-0.00207191,0.00294
 648,-0.00147314,-0.07482970,-0.06897603,0.01538542,-0.00000844,0.00003
 901,-0.00001911,-0.00006094,0.00004929,0.00002519,0.00017152,0.0000315
 2,-0.00006144,-0.00007664,0.00022947,0.00007135,0.00006521,-0.00022797
 ,0.00044735,0.00010106,0.00005795,-0.00014866,0.00011157,0.00009990,0.
 00008052,-0.00003500,-0.00002637,-0.00003450,0.00005522,-0.00007097,-0
 .00003041,-0.00000472,-0.00000795,0.00000846,0.00001590,0.00001433,0.0
 0001045,-0.00000177,0.00000228,0.00000582,0.00000799,-0.00000411,-0.00
 000363,-0.00000119,-0.00000179,0.00000089,0.00000373,0.00000184,0.0000
 0087,-0.00000064,0.00000036,0.00000070,0.00000256,-0.00000081,-0.00000
 082,-0.00000049,-0.00000034,0.00000019,0.00000173,0.00000045,0.0000002
 2,-0.00000028,0.00000014,0.00000024,0.00000006,-0.00000009,0.00000004,
 -0.00000003,-0.00000016,-0.00000023,0.00000065,0.00000043,0.00000093,0
 .00000019,0.00000009,-0.00000010,-0.00000017,0.,0.00000020,-0.00000003
 ,0.00000010,0.00000012,0.00000090,0.00000014,0.00000001,0.00095542,0.0
 0118942,0.00009319,-0.00130625,0.00030324,0.00020976,0.00027152,0.0001
 1795,0.00000980,0.00124184,0.00069740,0.00019668,0.00016758,0.00009371
 ,0.00003294,-0.00042013,-0.00005458,-0.00009423,0.00010602,-0.00002265
 ,0.00042426,0.07950457,0.07153772,-0.00008540,-0.00013194,-0.00004712,
 0.00033538,0.00004064,0.00077217,0.00034279,0.00022631,-0.00025134,-0.
 00060488,0.00048517,-0.00006795,0.00001188,-0.00007415,0.00006838,0.00
 003092,0.00000314,-0.00004976,0.00000840,-0.00000885,0.00000618,-0.000
 00156,-0.00000131,-0.00000636,0.00000029,-0.00000209,0.00000269,-0.000
 00086,0.,-0.00000141,0.00000039,-0.00000058,0.00000104,-0.00000018,0.0
 0000020,-0.00000045,0.00000017,-0.00000018,0.00000047,0.00000015,-0.00
 000029,0.00000023,-0.02063872,-0.00518521,0.00536621,-0.00222039,-0.00
 235605,-0.00264112,-0.00093074,-0.00125966,-0.00002237,0.00012976,0.00
 158346,-0.00145922,-0.00059391,-0.00022933,0.00025637,0.05164735,0.015
 22485,-0.05795311,-0.00001547,0.00004000,-0.00001426,0.00004524,-0.000
 00560,-0.00003240,0.00005459,0.00003476,0.00004513,-0.00001162,-0.0000
 8235,-0.00017719,-0.00001092,0.00003044,-0.00032837,0.00005537,-0.0001
 2133,0.00003248,0.00004567,0.00005198,0.00002230,-0.00000061,0.0000181
 6,-0.00001500,0.00001434,-0.00002389,0.00000413,-0.00000117,0.00000114
 ,-0.00000090,0.00000187,0.00000368,-0.00000044,-0.00000051,-0.00000004
 ,-0.00000215,0.00000048,-0.00000083,0.00000082,0.00000031,0.00000002,0
 .00000009,0.00000004,0.00000020,-0.00000059,-0.00000005,0.00000001,-0.
 00000079,0.00000007,-0.00000014,0.00000021,0.00000017,0.00000002,-0.00
 000012,0.00000003,0.00000004,-0.00000012,0.00000001,0.00000001,-0.0000
 0035,0.00000004,0.00000001,-0.00000010,0.,0.00000007,-0.00000026,-0.00
 000026,-0.00000012,-0.00000014,0.00000002,0.00000004,-0.00000003,0.,0.
 00000006,-0.00000022,-0.00000003,-0.00000012,-0.00000007,-0.00000004,0
 .00000003,0.00000002,0.00028821,0.00096227,0.00110443,-0.00128606,-0.0
 0013809,0.00031795,-0.00043323,-0.00022587,0.00015140,-0.00004330,0.00
 020307,0.00016719,-0.00030740,0.00005236,-0.00001246,0.00013221,-0.000
 03723,-0.00003672,-0.00052385,-0.00003850,-0.00010760,-0.05255814,-0.0
 1670812,0.06030510,-0.00008392,-0.00016037,-0.00010138,0.00008124,0.00
 026347,0.00085442,-0.00035202,0.00016238,-0.00032860,0.00075941,0.0003
 2960,0.00049472,-0.00011164,0.00008190,-0.00003331,0.00002525,-0.00000
 347,0.00004946,-0.00001113,0.00001871,-0.00000443,0.00000487,0.0000015
 0,0.00000409,0.00000020,0.00000185,-0.00000014,0.00000083,-0.00000006,
 0.00000013,0.00000055,0.00000025,0.00000030,0.00000025,0.00000004,-0.0
 0000009,0.00000020,0.00000026,0.00000039,0.00000021,-0.00000008,0.0000
 0017,-0.00018410,0.00504544,-0.00980201,0.00076603,0.00028895,-0.00038
 429,-0.00039905,-0.00029484,0.00115937,0.00176825,0.00620619,-0.017664
 12,-0.00101317,0.00361822,-0.00134000,-0.05118443,-0.00417248,0.006925
 85,-0.00001815,0.00002534,-0.00000076,0.00007291,0.00001886,-0.0000427
 1,0.00004822,0.00003298,-0.00000229,0.00003525,-0.00006962,-0.00012462
 ,-0.00041462,0.00010106,-0.00017597,0.00007243,-0.00010663,0.00018205,
 -0.00002363,-0.00002038,-0.00002023,0.00000074,0.00000662,0.00005696,-
 0.00001188,0.00000915,0.00001035,0.00001060,-0.00000640,-0.00000400,-0
 .00000572,-0.00000362,-0.00000352,-0.00000108,-0.00000079,-0.00000163,
 -0.00000297,0.00000095,0.00000174,0.00000134,0.00000055,-0.00000053,-0
 .00000162,-0.00000069,-0.00000054,-0.00000011,-0.00000013,-0.00000041,
 -0.00000104,0.00000023,0.00000048,0.00000042,0.00000015,-0.00000012,-0
 .00000079,-0.00000016,-0.00000014,0.00000003,-0.00000007,-0.00000017,0
 .00000006,0.00000005,-0.00000005,-0.00000003,0.00000008,-0.00000003,-0
 .00000032,-0.00000023,-0.00000032,-0.00000004,-0.00000002,0.00000004,0
 .00000004,0.,-0.00000010,-0.00000002,-0.00000006,-0.00000008,-0.000000
 43,-0.00000005,-0.00000001,-0.00008914,-0.00096922,-0.00155493,0.00014
 323,-0.00006580,0.00021223,-0.00010018,-0.00028482,-0.00000555,0.00032
 863,-0.00000655,0.00016665,-0.00053227,0.00002085,-0.00017648,0.001135
 82,-0.00045294,0.00019058,-0.00039094,0.00006471,0.00019309,0.00075051
 ,-0.01280786,0.02712314,0.04892689,-0.00001695,-0.00007926,-0.00003438
 ,0.00046684,-0.00001284,0.00047498,-0.00007693,-0.00009637,0.00001341,
 0.00068293,0.00231817,-0.00099160,-0.00019617,0.00012987,-0.00020910,0
 .00003675,0.00001184,0.00015566,-0.00002291,0.00003295,-0.00000877,0.0
 0001054,0.00000160,0.00001406,-0.00000491,0.00000478,-0.00000305,0.000
 00236,-0.00000029,0.00000350,-0.00000161,0.00000116,-0.00000089,0.0000
 0085,-0.00000092,0.00000127,0.00000006,0.00000030,0.00000002,-0.000000
 49,0.00000054,-0.00000013,0.00022827,0.00823171,-0.02133937,0.00066931
 ,0.00042505,0.00019575,0.00039729,0.00015628,-0.00062673,-0.00476569,-
 0.00928018,0.02368137,0.00496355,-0.00683442,0.00247876,-0.00333627,-0
 .09028228,0.09700183,-0.00001372,0.00001122,-0.00000266,0.00002084,-0.
 00000044,-0.00002288,0.00000808,0.00000532,0.00000491,0.00001203,-0.00
 004800,-0.00003132,0.00039369,-0.00031641,-0.00023452,-0.00016450,-0.0
 0004491,0.00058330,0.00000735,-0.00000005,-0.00000975,-0.00001393,-0.0
 0010086,0.00017340,0.00000112,-0.00000370,0.00000075,0.00001150,-0.000
 04135,0.00000288,0.00000201,0.00000030,-0.00000002,-0.00000009,0.00000
 420,0.00000285,-0.00000095,0.00000002,0.00000026,0.00000053,0.00000081
 ,-0.00000219,0.00000038,0.,0.00000006,0.00000004,0.00000009,-0.0000004
 7,-0.00000033,-0.00000003,0.00000009,0.00000019,0.00000062,-0.00000086
 ,0.00000007,-0.00000008,0.00000011,0.00000017,0.00000007,-0.00000028,-
 0.00000002,0.00000028,-0.00000050,0.00000003,-0.00000004,-0.00000034,0
 .00000031,-0.00000038,0.00000020,-0.00000025,0.00000063,0.00000022,0.0
 0000010,-0.00000006,-0.00000018,-0.00000004,0.00000070,0.00000026,0.00
 000003,-0.00000024,0.00000005,-0.00227192,-0.00238500,-0.00345236,0.00
 023273,-0.00005637,0.00011038,-0.00007968,0.00007077,0.00025944,-0.000
 16099,-0.00013999,-0.00021142,0.00053726,0.00025894,0.00004618,-0.0011
 0939,0.00051014,-0.00031551,-0.00007120,-0.00012397,-0.00080249,0.0004
 9479,-0.00396450,0.00766973,0.00312697,0.10163456,0.00012678,0.0002341
 1,0.00022490,-0.00048512,-0.00050602,-0.00141063,0.00077405,-0.0004290
 2,0.00058954,-0.00026885,0.00235751,0.00050766,-0.00012734,-0.00025457
 ,0.00036362,-0.00004700,-0.00003589,0.00002736,0.00001662,-0.00000401,
 -0.00000117,-0.00000549,0.00000246,-0.00001111,0.00000281,-0.00000265,
 -0.00000214,-0.00000143,0.00000155,-0.00000283,0.00000064,-0.00000079,
 -0.00000114,-0.00000054,0.00000092,-0.00000118,-0.00000036,-0.00000053
 ,-0.00000108,0.00000021,-0.00000019,-0.00000050,0.00107226,0.00853575,
 -0.02403182,0.00090079,0.00022812,0.00032663,-0.00015667,0.00027528,0.
 00011787,0.00131976,-0.00113836,-0.00095803,-0.00060172,-0.00030472,0.
 00142694,0.00704764,0.09790072,-0.24882034,0.00002697,-0.00001597,-0.0
 0000459,-0.00012877,-0.00000418,0.00006874,-0.00004855,-0.00003548,0.0
 0000064,-0.00001382,0.00006801,0.00016272,0.00015429,0.00041125,0.0005
 9915,0.00021805,-0.00128876,0.00061710,0.00002218,0.00001293,-0.000009
 14,0.00003203,0.00016885,0.00029150,0.00001635,-0.00001626,-0.00001426
 ,0.00000157,-0.00005680,0.00001056,0.00000361,0.00000441,0.00000172,-0
 .00000184,0.00000278,0.00001039,0.00000240,-0.00000102,-0.00000203,-0.
 00000141,-0.00000506,0.00000488,0.00000083,0.00000087,-0.00000013,-0.0
 0000070,-0.00000005,0.00000441,0.00000094,-0.00000022,-0.00000066,-0.0
 0000055,-0.00000227,0.00000234,0.00000058,0.00000035,-0.00000020,-0.00
 000051,-0.00000001,0.00000195,-0.00000016,-0.00000080,0.00000126,-0.00
 000011,-0.00000012,0.00000101,0.00000041,0.00000077,0.00000014,0.00000
 023,-0.00000055,-0.00000022,-0.00000030,-0.00000006,0.00000092,0.00000
 014,-0.00000040,-0.00000009,0.00000035,0.00000031,-0.00000022,-0.00271
 543,-0.00321569,-0.00232106,-0.00006951,-0.00021876,0.00036024,-0.0006
 7605,-0.00034048,0.00032595,-0.00006045,-0.00005875,0.00001716,-0.0002
 2200,0.00014021,0.00017686,-0.00038638,0.00022599,0.00114241,0.0003441
 7,-0.00052378,0.00037178,-0.00021291,0.00246299,-0.00539451,-0.0058526
 7,-0.10457391,0.27523078\\-0.00000027,-0.00000009,0.00000050,0.0000027
 4,0.00000028,0.00000096,-0.00000027,-0.00000046,-0.00000126,-0.0000012
 5,0.00000079,0.00000096,-0.00000103,-0.00000016,-0.00000137,0.00000035
 ,0.00000037,-0.00000017,0.00000076,-0.00000086,-0.00000029,-0.00000021
 ,0.00000030,-0.00000064,0.00000035,-0.00000070,0.00000043,-0.00000005,
 0.00000017,-0.00000010,-0.00000022,-0.00000034,0.00000036,-0.00000097,
 -0.00000050,0.00000022,0.00000026,0.00000058,-0.00000014,0.00000004,-0
 .00000004,0.00000030,0.00000030,0.00000008,0.00000110,-0.00000156,0.00
 000149,-0.00000025,0.00000306,-0.00000084,-0.00000068,-0.00000215,-0.0
 0000016,0.00000191,-0.00000066,0.00000144,-0.00000071,0.00000050,-0.00
 000133,-0.00000270,0.,0.00000047,-0.00000039,0.00000013,-0.00000007,0.
 00000010,-0.00000024,0.00000021,-0.00000072,0.00000012,0.00000015,-0.0
 0000022,-0.00000008,-0.00000053,-0.00000008,0.00000047,0.00000007,-0.0
 0000039,0.00000032,-0.00000036,0.00000019,0.00000040,-0.00000012,0.000
 00039,-0.00000017,-0.00000091,0.00000031,-0.00000042,0.00000066,-0.000
 00003,0.00000006,-0.00000044,0.00000049,-0.00000045,0.00000048,0.00000
 007,0.00000003,-0.00000020,0.00000009,0.00000007,0.00000009,0.00000018
 ,-0.00000004,-0.00000020,0.00000009,-0.00000012,0.00000024,0.00000009,
 0.00000038,-0.00000024,-0.00000002,0.00000019,-0.00000014,0.00000010,-
 0.00000004,-0.00000019,0.00000009,0.00000010,-0.00000013,0.00000035,0.
 00000044,0.00000024,0.00000043,-0.00000018,-0.00000007,0.00000024,0.00
 000020,0.00000023,0.00000037,0.00000001,-0.00000008,0.00000028,-0.0000
 0012,-0.00000033,0.00000013,0.00000006,-0.00000010,0.00000033,0.000000
 02,-0.00000017,0.00000016,-0.00000032,0.00000005,-0.00000032,0.0000003
 7,0.00000059,-0.00000039,-0.00000043,0.00000064,0.00000002,-0.00000042
 ,-0.00000093,-0.00000080,0.00000006,0.00000039,0.00000051,0.00000008,0
 .00000014,-0.00000008,0.00000017,-0.00000024,0.00000012,-0.00000061,0.
 00000038,-0.00000017,0.00000023,0.00000043,0.00000007\\\@


 IT IS BY EATING THE LIGHT OF A STAR THAT WE EXIST, 
 IN THE FINAL ANALYSIS, 
 JUST AS IT IS BY PERCEIVING THE LIGHT OF STARS
 THAT WE DEFINE THE WORLD AROUND US.

                                    -- GILBERT GROSVENOR
 Job cpu time:       1 days  9 hours 15 minutes 27.2 seconds.
 Elapsed time:       0 days  8 hours 18 minutes 58.1 seconds.
 File lengths (MBytes):  RWF=   2087 Int=      0 D2E=      0 Chk=     46 Scr=      1
 Normal termination of Gaussian 16 at Thu May 25 15:00:23 2023.
### All Done ###
