### Starting Gaussian ###
 Entering Gaussian System, Link 0=g16
 Initial command:
 /cluster/software/gaussian/gaussian-16-A.03/avx2/g16/l1.exe "/local/scratch/yxie/Gau-2570.inp" -scrdir="/local/scratch/yxie/"
 Entering Link 1 = /cluster/software/gaussian/gaussian-16-A.03/avx2/g16/l1.exe PID=      2571.
  
 Copyright (c) 1988,1990,1992,1993,1995,1998,2003,2009,2016,
            Gaussian, Inc.  All Rights Reserved.
  
 This is part of the Gaussian(R) 16 program.  It is based on
 the Gaussian(R) 09 system (copyright 2009, Gaussian, Inc.),
 the Gaussian(R) 03 system (copyright 2003, Gaussian, Inc.),
 the Gaussian(R) 98 system (copyright 1998, Gaussian, Inc.),
 the Gaussian(R) 94 system (copyright 1995, Gaussian, Inc.),
 the Gaussian 92(TM) system (copyright 1992, Gaussian, Inc.),
 the Gaussian 90(TM) system (copyright 1990, Gaussian, Inc.),
 the Gaussian 88(TM) system (copyright 1988, Gaussian, Inc.),
 the Gaussian 86(TM) system (copyright 1986, Carnegie Mellon
 University), and the Gaussian 82(TM) system (copyright 1983,
 Carnegie Mellon University). Gaussian is a federally registered
 trademark of Gaussian, Inc.
  
 This software contains proprietary and confidential information,
 including trade secrets, belonging to Gaussian, Inc.
  
 This software is provided under written license and may be
 used, copied, transmitted, or stored only in accord with that
 written license.
  
 The following legend is applicable only to US Government
 contracts under FAR:
  
                    RESTRICTED RIGHTS LEGEND
  
 Use, reproduction and disclosure by the US Government is
 subject to restrictions as set forth in subparagraphs (a)
 and (c) of the Commercial Computer Software - Restricted
 Rights clause in FAR 52.227-19.
  
 Gaussian, Inc.
 340 Quinnipiac St., Bldg. 40, Wallingford CT 06492
  
  
 ---------------------------------------------------------------
 Warning -- This program may not be used in any manner that
 competes with the business of Gaussian, Inc. or will provide
 assistance to any competitor of Gaussian, Inc.  The licensee
 of this program is prohibited from giving any competitor of
 Gaussian, Inc. access to this program.  By using this program,
 the user acknowledges that Gaussian, Inc. is engaged in the
 business of creating and licensing software in the field of
 computational chemistry and represents and warrants to the
 licensee that it is not a competitor of Gaussian, Inc. and that
 it will not use this program in any manner prohibited above.
 ---------------------------------------------------------------
  

 Cite this work as:
 Gaussian 16, Revision A.03,
 M. J. Frisch, G. W. Trucks, H. B. Schlegel, G. E. Scuseria, 
 M. A. Robb, J. R. Cheeseman, G. Scalmani, V. Barone, 
 G. A. Petersson, H. Nakatsuji, X. Li, M. Caricato, A. V. Marenich, 
 J. Bloino, B. G. Janesko, R. Gomperts, B. Mennucci, H. P. Hratchian, 
 J. V. Ortiz, A. F. Izmaylov, J. L. Sonnenberg, D. Williams-Young, 
 F. Ding, F. Lipparini, F. Egidi, J. Goings, B. Peng, A. Petrone, 
 T. Henderson, D. Ranasinghe, V. G. Zakrzewski, J. Gao, N. Rega, 
 G. Zheng, W. Liang, M. Hada, M. Ehara, K. Toyota, R. Fukuda, 
 J. Hasegawa, M. Ishida, T. Nakajima, Y. Honda, O. Kitao, H. Nakai, 
 T. Vreven, K. Throssell, J. A. Montgomery, Jr., J. E. Peralta, 
 F. Ogliaro, M. J. Bearpark, J. J. Heyd, E. N. Brothers, K. N. Kudin, 
 V. N. Staroverov, T. A. Keith, R. Kobayashi, J. Normand, 
 K. Raghavachari, A. P. Rendell, J. C. Burant, S. S. Iyengar, 
 J. Tomasi, M. Cossi, J. M. Millam, M. Klene, C. Adamo, R. Cammi, 
 J. W. Ochterski, R. L. Martin, K. Morokuma, O. Farkas, 
 J. B. Foresman, and D. J. Fox, Gaussian, Inc., Wallingford CT, 2016.
 
 ******************************************
 Gaussian 16:  ES64L-G16RevA.03 25-Dec-2016
                22-May-2023 
 ******************************************
 %chk=CCOC1CCCCCqCrOCCCCCqCOOrC1.chk
 %NProcShared=20
 Will use up to   20 processors via shared memory.
 -----------------------------
 # opt freq b3lyp/6-31g(2df,p)
 -----------------------------
 1/18=20,19=15,26=3,38=1/1,3;
 2/9=110,12=2,17=6,18=5,40=1/2;
 3/5=1,6=6,7=104,11=2,25=1,30=1,71=1,74=-5/1,2,3;
 4//1;
 5/5=2,38=5/2;
 6/7=2,8=2,9=2,10=2,28=1/1;
 7//1,2,3,16;
 1/18=20,19=15,26=3/3(2);
 2/9=110/2;
 99//99;
 2/9=110/2;
 3/5=1,6=6,7=104,11=2,25=1,30=1,71=1,74=-5/1,2,3;
 4/5=5,16=3,69=1/1;
 5/5=2,38=5/2;
 7//1,2,3,16;
 1/18=20,19=15,26=3/3(-5);
 2/9=110/2;
 6/7=2,8=2,9=2,10=2,19=2,28=1/1;
 99/9=1/99;
 -------------------
 Title Card Required
 -------------------
 Symbolic Z-matrix:
 Charge =  0 Multiplicity = 1
 C                     1.00906  -0.3613   -0.0722 
 C                     2.51642  -0.26877   0.00758 
 O                     2.99417   0.43367  -1.13742 
 C                     4.41697   0.57027  -1.13866 
 C                     4.9848   -0.72787  -1.7268 
 C                     5.6352   -1.567    -0.61316 
 C                     7.12358  -1.24137  -0.49948 
 C                     7.50943  -0.67115   0.87012 
 C                     8.74186   0.24294   0.74182 
 C                     10.00205  -0.49949   1.16331 
 O                     8.55155   1.39443   1.57669 
 C                     9.01992   2.62075   0.99863 
 C                     7.84764   3.56946   0.72346 
 C                     6.9278    2.97638  -0.33367 
 C                     5.82519   3.92186  -0.80877 
 C                     4.52248   3.19193  -1.23966 
 C                     3.59887   3.17143  -0.00413 
 O                     2.26485   2.81435  -0.33399 
 O                     1.60734   2.62859   0.95418 
 C                     4.79533   1.81976  -1.94949 
 H                     0.61055  -0.8413    0.82442 
 H                     0.71347  -0.9308   -0.95687 
 H                     0.5404    0.61642  -0.18585 
 H                     2.92582  -1.28103   0.02752 
 H                     2.82716   0.25411   0.91927 
 H                     4.78453   0.71175  -0.11729 
 H                     5.70429  -0.52952  -2.52946 
 H                     4.17875  -1.31539  -2.18274 
 H                     5.50577  -2.62841  -0.84735 
 H                     5.12802  -1.41064   0.34691 
 H                     7.40354  -0.53162  -1.28516 
 H                     7.70349  -2.15063  -0.69395 
 H                     7.70599  -1.51083   1.55065 
 H                     6.67688  -0.11286   1.31311 
 H                     8.85348   0.56318  -0.29937 
 H                     9.93201  -0.83196   2.20496 
 H                     10.87781   0.15179   1.09333 
 H                     10.16432  -1.37728   0.52902 
 H                     9.59026   2.45312   0.07675 
 H                     9.69572   3.08907   1.71883 
 H                     8.22312   4.54297   0.39033 
 H                     7.26998   3.72508   1.64308 
 H                     6.49105   2.06959   0.08794 
 H                     7.52866   2.68505  -1.20363 
 H                     6.19989   4.50902  -1.65642 
 H                     5.59654   4.65695  -0.02592 
 H                     4.02938   3.82423  -1.99093 
 H                     3.5344    4.17406   0.42951 
 H                     3.99918   2.50993   0.77209 
 H                     0.72927   2.40469   0.57887 
 H                     5.85548   1.75487  -2.22442 
 H                     4.2626    1.80865  -2.9077 
 

 GradGradGradGradGradGradGradGradGradGradGradGradGradGradGradGradGradGrad
 Berny optimization.
 Initialization pass.
                           ----------------------------
                           !    Initial Parameters    !
                           ! (Angstroms and Degrees)  !
 --------------------------                            --------------------------
 ! Name  Definition              Value          Derivative Info.                !
 --------------------------------------------------------------------------------
 ! R1    R(1,2)                  1.5123         estimate D2E/DX2                !
 ! R2    R(1,21)                 1.0923         estimate D2E/DX2                !
 ! R3    R(1,22)                 1.0929         estimate D2E/DX2                !
 ! R4    R(1,23)                 1.0902         estimate D2E/DX2                !
 ! R5    R(2,3)                  1.4257         estimate D2E/DX2                !
 ! R6    R(2,24)                 1.0921         estimate D2E/DX2                !
 ! R7    R(2,25)                 1.096          estimate D2E/DX2                !
 ! R8    R(3,4)                  1.4293         estimate D2E/DX2                !
 ! R9    R(4,5)                  1.5341         estimate D2E/DX2                !
 ! R10   R(4,20)                 1.5368         estimate D2E/DX2                !
 ! R11   R(4,26)                 1.0947         estimate D2E/DX2                !
 ! R12   R(5,6)                  1.5386         estimate D2E/DX2                !
 ! R13   R(5,27)                 1.096          estimate D2E/DX2                !
 ! R14   R(5,28)                 1.0967         estimate D2E/DX2                !
 ! R15   R(6,7)                  1.5278         estimate D2E/DX2                !
 ! R16   R(6,29)                 1.0946         estimate D2E/DX2                !
 ! R17   R(6,30)                 1.097          estimate D2E/DX2                !
 ! R18   R(7,8)                  1.5329         estimate D2E/DX2                !
 ! R19   R(7,31)                 1.0952         estimate D2E/DX2                !
 ! R20   R(7,32)                 1.0958         estimate D2E/DX2                !
 ! R21   R(8,9)                  1.5398         estimate D2E/DX2                !
 ! R22   R(8,33)                 1.0986         estimate D2E/DX2                !
 ! R23   R(8,34)                 1.0959         estimate D2E/DX2                !
 ! R24   R(9,10)                 1.5221         estimate D2E/DX2                !
 ! R25   R(9,11)                 1.435          estimate D2E/DX2                !
 ! R26   R(9,35)                 1.095          estimate D2E/DX2                !
 ! R27   R(10,36)                1.0957         estimate D2E/DX2                !
 ! R28   R(10,37)                1.0936         estimate D2E/DX2                !
 ! R29   R(10,38)                1.0951         estimate D2E/DX2                !
 ! R30   R(11,12)                1.4344         estimate D2E/DX2                !
 ! R31   R(12,13)                1.533          estimate D2E/DX2                !
 ! R32   R(12,39)                1.0969         estimate D2E/DX2                !
 ! R33   R(12,40)                1.093          estimate D2E/DX2                !
 ! R34   R(13,14)                1.5216         estimate D2E/DX2                !
 ! R35   R(13,41)                1.0953         estimate D2E/DX2                !
 ! R36   R(13,42)                1.0971         estimate D2E/DX2                !
 ! R37   R(14,15)                1.5282         estimate D2E/DX2                !
 ! R38   R(14,43)                1.0912         estimate D2E/DX2                !
 ! R39   R(14,44)                1.0967         estimate D2E/DX2                !
 ! R40   R(15,16)                1.5542         estimate D2E/DX2                !
 ! R41   R(15,45)                1.0971         estimate D2E/DX2                !
 ! R42   R(15,46)                1.0979         estimate D2E/DX2                !
 ! R43   R(16,17)                1.5427         estimate D2E/DX2                !
 ! R44   R(16,20)                1.5688         estimate D2E/DX2                !
 ! R45   R(16,47)                1.0988         estimate D2E/DX2                !
 ! R46   R(17,18)                1.4198         estimate D2E/DX2                !
 ! R47   R(17,48)                1.0943         estimate D2E/DX2                !
 ! R48   R(17,49)                1.0956         estimate D2E/DX2                !
 ! R49   R(18,19)                1.4582         estimate D2E/DX2                !
 ! R50   R(19,50)                0.9808         estimate D2E/DX2                !
 ! R51   R(20,51)                1.0971         estimate D2E/DX2                !
 ! R52   R(20,52)                1.0964         estimate D2E/DX2                !
 ! A1    A(2,1,21)             110.3176         estimate D2E/DX2                !
 ! A2    A(2,1,22)             110.1316         estimate D2E/DX2                !
 ! A3    A(2,1,23)             112.2788         estimate D2E/DX2                !
 ! A4    A(21,1,22)            109.6823         estimate D2E/DX2                !
 ! A5    A(21,1,23)            108.8347         estimate D2E/DX2                !
 ! A6    A(22,1,23)            105.4673         estimate D2E/DX2                !
 ! A7    A(1,2,3)              108.7703         estimate D2E/DX2                !
 ! A8    A(1,2,24)             108.536          estimate D2E/DX2                !
 ! A9    A(1,2,25)             110.8351         estimate D2E/DX2                !
 ! A10   A(3,2,24)             110.2256         estimate D2E/DX2                !
 ! A11   A(3,2,25)             109.7549         estimate D2E/DX2                !
 ! A12   A(24,2,25)            108.7077         estimate D2E/DX2                !
 ! A13   A(2,3,4)              112.4168         estimate D2E/DX2                !
 ! A14   A(3,4,5)              106.7326         estimate D2E/DX2                !
 ! A15   A(3,4,20)             108.8582         estimate D2E/DX2                !
 ! A16   A(3,4,26)             110.2292         estimate D2E/DX2                !
 ! A17   A(5,4,20)             113.2398         estimate D2E/DX2                !
 ! A18   A(5,4,26)             110.0466         estimate D2E/DX2                !
 ! A19   A(20,4,26)            107.7296         estimate D2E/DX2                !
 ! A20   A(4,5,6)              109.9054         estimate D2E/DX2                !
 ! A21   A(4,5,27)             111.7527         estimate D2E/DX2                !
 ! A22   A(4,5,28)             109.9166         estimate D2E/DX2                !
 ! A23   A(6,5,27)             110.5646         estimate D2E/DX2                !
 ! A24   A(6,5,28)             108.628          estimate D2E/DX2                !
 ! A25   A(27,5,28)            105.9599         estimate D2E/DX2                !
 ! A26   A(5,6,7)              110.4519         estimate D2E/DX2                !
 ! A27   A(5,6,29)             108.9048         estimate D2E/DX2                !
 ! A28   A(5,6,30)             111.117          estimate D2E/DX2                !
 ! A29   A(7,6,29)             109.7415         estimate D2E/DX2                !
 ! A30   A(7,6,30)             110.7873         estimate D2E/DX2                !
 ! A31   A(29,6,30)            105.7109         estimate D2E/DX2                !
 ! A32   A(6,7,8)              113.0151         estimate D2E/DX2                !
 ! A33   A(6,7,31)             109.4982         estimate D2E/DX2                !
 ! A34   A(6,7,32)             108.9948         estimate D2E/DX2                !
 ! A35   A(8,7,31)             109.6061         estimate D2E/DX2                !
 ! A36   A(8,7,32)             109.5118         estimate D2E/DX2                !
 ! A37   A(31,7,32)            105.9702         estimate D2E/DX2                !
 ! A38   A(7,8,9)              110.3558         estimate D2E/DX2                !
 ! A39   A(7,8,33)             108.312          estimate D2E/DX2                !
 ! A40   A(7,8,34)             111.065          estimate D2E/DX2                !
 ! A41   A(9,8,33)             111.2331         estimate D2E/DX2                !
 ! A42   A(9,8,34)             109.8343         estimate D2E/DX2                !
 ! A43   A(33,8,34)            105.956          estimate D2E/DX2                !
 ! A44   A(8,9,10)             110.4887         estimate D2E/DX2                !
 ! A45   A(8,9,11)             108.7685         estimate D2E/DX2                !
 ! A46   A(8,9,35)             109.5377         estimate D2E/DX2                !
 ! A47   A(10,9,11)            109.8823         estimate D2E/DX2                !
 ! A48   A(10,9,35)            108.7562         estimate D2E/DX2                !
 ! A49   A(11,9,35)            109.3926         estimate D2E/DX2                !
 ! A50   A(9,10,36)            110.998          estimate D2E/DX2                !
 ! A51   A(9,10,37)            110.7803         estimate D2E/DX2                !
 ! A52   A(9,10,38)            110.6872         estimate D2E/DX2                !
 ! A53   A(36,10,37)           107.0215         estimate D2E/DX2                !
 ! A54   A(36,10,38)           108.4761         estimate D2E/DX2                !
 ! A55   A(37,10,38)           108.7619         estimate D2E/DX2                !
 ! A56   A(9,11,12)            114.097          estimate D2E/DX2                !
 ! A57   A(11,12,13)           110.594          estimate D2E/DX2                !
 ! A58   A(11,12,39)           112.199          estimate D2E/DX2                !
 ! A59   A(11,12,40)           107.6177         estimate D2E/DX2                !
 ! A60   A(13,12,39)           109.9575         estimate D2E/DX2                !
 ! A61   A(13,12,40)           109.0212         estimate D2E/DX2                !
 ! A62   A(39,12,40)           107.3231         estimate D2E/DX2                !
 ! A63   A(12,13,14)           110.2285         estimate D2E/DX2                !
 ! A64   A(12,13,41)           110.0292         estimate D2E/DX2                !
 ! A65   A(12,13,42)           109.875          estimate D2E/DX2                !
 ! A66   A(14,13,41)           110.0206         estimate D2E/DX2                !
 ! A67   A(14,13,42)           108.623          estimate D2E/DX2                !
 ! A68   A(41,13,42)           108.0214         estimate D2E/DX2                !
 ! A69   A(13,14,15)           114.2676         estimate D2E/DX2                !
 ! A70   A(13,14,43)           107.3024         estimate D2E/DX2                !
 ! A71   A(13,14,44)           108.8712         estimate D2E/DX2                !
 ! A72   A(15,14,43)           110.2099         estimate D2E/DX2                !
 ! A73   A(15,14,44)           108.2424         estimate D2E/DX2                !
 ! A74   A(43,14,44)           107.7596         estimate D2E/DX2                !
 ! A75   A(14,15,16)           113.6022         estimate D2E/DX2                !
 ! A76   A(14,15,45)           108.959          estimate D2E/DX2                !
 ! A77   A(14,15,46)           110.048          estimate D2E/DX2                !
 ! A78   A(16,15,45)           108.8696         estimate D2E/DX2                !
 ! A79   A(16,15,46)           109.7283         estimate D2E/DX2                !
 ! A80   A(45,15,46)           105.2895         estimate D2E/DX2                !
 ! A81   A(15,16,17)           106.6196         estimate D2E/DX2                !
 ! A82   A(15,16,20)           112.9824         estimate D2E/DX2                !
 ! A83   A(15,16,47)           107.1843         estimate D2E/DX2                !
 ! A84   A(17,16,20)           117.0565         estimate D2E/DX2                !
 ! A85   A(17,16,47)           106.6516         estimate D2E/DX2                !
 ! A86   A(20,16,47)           105.7839         estimate D2E/DX2                !
 ! A87   A(16,17,18)           112.3202         estimate D2E/DX2                !
 ! A88   A(16,17,48)           109.9051         estimate D2E/DX2                !
 ! A89   A(16,17,49)           110.8967         estimate D2E/DX2                !
 ! A90   A(18,17,48)           105.4941         estimate D2E/DX2                !
 ! A91   A(18,17,49)           110.8576         estimate D2E/DX2                !
 ! A92   A(48,17,49)           107.096          estimate D2E/DX2                !
 ! A93   A(17,18,19)           104.5051         estimate D2E/DX2                !
 ! A94   A(18,19,50)            95.4353         estimate D2E/DX2                !
 ! A95   A(4,20,16)            115.4414         estimate D2E/DX2                !
 ! A96   A(4,20,51)            108.7851         estimate D2E/DX2                !
 ! A97   A(4,20,52)            109.4655         estimate D2E/DX2                !
 ! A98   A(16,20,51)           109.4614         estimate D2E/DX2                !
 ! A99   A(16,20,52)           108.6504         estimate D2E/DX2                !
 ! A100  A(51,20,52)           104.4719         estimate D2E/DX2                !
 ! D1    D(21,1,2,3)          -176.5032         estimate D2E/DX2                !
 ! D2    D(21,1,2,24)           63.5586         estimate D2E/DX2                !
 ! D3    D(21,1,2,25)          -55.753          estimate D2E/DX2                !
 ! D4    D(22,1,2,3)            62.282          estimate D2E/DX2                !
 ! D5    D(22,1,2,24)          -57.6562         estimate D2E/DX2                !
 ! D6    D(22,1,2,25)         -176.9678         estimate D2E/DX2                !
 ! D7    D(23,1,2,3)           -54.9208         estimate D2E/DX2                !
 ! D8    D(23,1,2,24)         -174.859          estimate D2E/DX2                !
 ! D9    D(23,1,2,25)           65.8294         estimate D2E/DX2                !
 ! D10   D(1,2,3,4)            179.8039         estimate D2E/DX2                !
 ! D11   D(24,2,3,4)           -61.3123         estimate D2E/DX2                !
 ! D12   D(25,2,3,4)            58.391          estimate D2E/DX2                !
 ! D13   D(2,3,4,5)             83.8542         estimate D2E/DX2                !
 ! D14   D(2,3,4,20)          -153.5925         estimate D2E/DX2                !
 ! D15   D(2,3,4,26)           -35.6347         estimate D2E/DX2                !
 ! D16   D(3,4,5,6)           -107.4494         estimate D2E/DX2                !
 ! D17   D(3,4,5,27)           129.4092         estimate D2E/DX2                !
 ! D18   D(3,4,5,28)            12.0575         estimate D2E/DX2                !
 ! D19   D(20,4,5,6)           132.7871         estimate D2E/DX2                !
 ! D20   D(20,4,5,27)            9.6457         estimate D2E/DX2                !
 ! D21   D(20,4,5,28)         -107.706          estimate D2E/DX2                !
 ! D22   D(26,4,5,6)            12.1577         estimate D2E/DX2                !
 ! D23   D(26,4,5,27)         -110.9837         estimate D2E/DX2                !
 ! D24   D(26,4,5,28)          131.6646         estimate D2E/DX2                !
 ! D25   D(3,4,20,16)           74.4712         estimate D2E/DX2                !
 ! D26   D(3,4,20,51)         -162.0575         estimate D2E/DX2                !
 ! D27   D(3,4,20,52)          -48.4676         estimate D2E/DX2                !
 ! D28   D(5,4,20,16)         -166.9885         estimate D2E/DX2                !
 ! D29   D(5,4,20,51)          -43.5172         estimate D2E/DX2                !
 ! D30   D(5,4,20,52)           70.0727         estimate D2E/DX2                !
 ! D31   D(26,4,20,16)         -45.0542         estimate D2E/DX2                !
 ! D32   D(26,4,20,51)          78.4171         estimate D2E/DX2                !
 ! D33   D(26,4,20,52)        -167.993          estimate D2E/DX2                !
 ! D34   D(4,5,6,7)            -92.1297         estimate D2E/DX2                !
 ! D35   D(4,5,6,29)           147.2883         estimate D2E/DX2                !
 ! D36   D(4,5,6,30)            31.2422         estimate D2E/DX2                !
 ! D37   D(27,5,6,7)            31.7068         estimate D2E/DX2                !
 ! D38   D(27,5,6,29)          -88.8752         estimate D2E/DX2                !
 ! D39   D(27,5,6,30)          155.0787         estimate D2E/DX2                !
 ! D40   D(28,5,6,7)           147.5799         estimate D2E/DX2                !
 ! D41   D(28,5,6,29)           26.9978         estimate D2E/DX2                !
 ! D42   D(28,5,6,30)          -89.0482         estimate D2E/DX2                !
 ! D43   D(5,6,7,8)            118.6588         estimate D2E/DX2                !
 ! D44   D(5,6,7,31)            -3.8317         estimate D2E/DX2                !
 ! D45   D(5,6,7,32)          -119.3353         estimate D2E/DX2                !
 ! D46   D(29,6,7,8)          -121.2605         estimate D2E/DX2                !
 ! D47   D(29,6,7,31)          116.249          estimate D2E/DX2                !
 ! D48   D(29,6,7,32)            0.7453         estimate D2E/DX2                !
 ! D49   D(30,6,7,8)            -4.904          estimate D2E/DX2                !
 ! D50   D(30,6,7,31)         -127.3945         estimate D2E/DX2                !
 ! D51   D(30,6,7,32)          117.1018         estimate D2E/DX2                !
 ! D52   D(6,7,8,9)           -152.3051         estimate D2E/DX2                !
 ! D53   D(6,7,8,33)            85.711          estimate D2E/DX2                !
 ! D54   D(6,7,8,34)           -30.2507         estimate D2E/DX2                !
 ! D55   D(31,7,8,9)           -29.8748         estimate D2E/DX2                !
 ! D56   D(31,7,8,33)         -151.8588         estimate D2E/DX2                !
 ! D57   D(31,7,8,34)           92.1795         estimate D2E/DX2                !
 ! D58   D(32,7,8,9)            85.9797         estimate D2E/DX2                !
 ! D59   D(32,7,8,33)          -36.0042         estimate D2E/DX2                !
 ! D60   D(32,7,8,34)         -151.966          estimate D2E/DX2                !
 ! D61   D(7,8,9,10)          -100.0065         estimate D2E/DX2                !
 ! D62   D(7,8,9,11)           139.3017         estimate D2E/DX2                !
 ! D63   D(7,8,9,35)            19.7836         estimate D2E/DX2                !
 ! D64   D(33,8,9,10)           20.2373         estimate D2E/DX2                !
 ! D65   D(33,8,9,11)         -100.4545         estimate D2E/DX2                !
 ! D66   D(33,8,9,35)          140.0274         estimate D2E/DX2                !
 ! D67   D(34,8,9,10)          137.2164         estimate D2E/DX2                !
 ! D68   D(34,8,9,11)           16.5247         estimate D2E/DX2                !
 ! D69   D(34,8,9,35)         -102.9935         estimate D2E/DX2                !
 ! D70   D(8,9,10,36)          -60.0999         estimate D2E/DX2                !
 ! D71   D(8,9,10,37)         -178.852          estimate D2E/DX2                !
 ! D72   D(8,9,10,38)           60.4163         estimate D2E/DX2                !
 ! D73   D(11,9,10,36)          59.9249         estimate D2E/DX2                !
 ! D74   D(11,9,10,37)         -58.8271         estimate D2E/DX2                !
 ! D75   D(11,9,10,38)        -179.5588         estimate D2E/DX2                !
 ! D76   D(35,9,10,36)         179.6405         estimate D2E/DX2                !
 ! D77   D(35,9,10,37)          60.8884         estimate D2E/DX2                !
 ! D78   D(35,9,10,38)         -59.8433         estimate D2E/DX2                !
 ! D79   D(8,9,11,12)         -140.9395         estimate D2E/DX2                !
 ! D80   D(10,9,11,12)          97.9959         estimate D2E/DX2                !
 ! D81   D(35,9,11,12)         -21.331          estimate D2E/DX2                !
 ! D82   D(9,11,12,13)         114.1775         estimate D2E/DX2                !
 ! D83   D(9,11,12,39)          -8.9942         estimate D2E/DX2                !
 ! D84   D(9,11,12,40)        -126.8346         estimate D2E/DX2                !
 ! D85   D(11,12,13,14)        -64.9242         estimate D2E/DX2                !
 ! D86   D(11,12,13,41)        173.5635         estimate D2E/DX2                !
 ! D87   D(11,12,13,42)         54.752          estimate D2E/DX2                !
 ! D88   D(39,12,13,14)         59.5374         estimate D2E/DX2                !
 ! D89   D(39,12,13,41)        -61.975          estimate D2E/DX2                !
 ! D90   D(39,12,13,42)        179.2136         estimate D2E/DX2                !
 ! D91   D(40,12,13,14)        176.9417         estimate D2E/DX2                !
 ! D92   D(40,12,13,41)         55.4293         estimate D2E/DX2                !
 ! D93   D(40,12,13,42)        -63.3821         estimate D2E/DX2                !
 ! D94   D(12,13,14,15)       -172.6228         estimate D2E/DX2                !
 ! D95   D(12,13,14,43)         64.874          estimate D2E/DX2                !
 ! D96   D(12,13,14,44)        -51.4923         estimate D2E/DX2                !
 ! D97   D(41,13,14,15)        -51.1053         estimate D2E/DX2                !
 ! D98   D(41,13,14,43)       -173.6085         estimate D2E/DX2                !
 ! D99   D(41,13,14,44)         70.0252         estimate D2E/DX2                !
 ! D100  D(42,13,14,15)         66.9454         estimate D2E/DX2                !
 ! D101  D(42,13,14,43)        -55.5578         estimate D2E/DX2                !
 ! D102  D(42,13,14,44)       -171.9241         estimate D2E/DX2                !
 ! D103  D(13,14,15,16)       -149.2329         estimate D2E/DX2                !
 ! D104  D(13,14,15,45)         89.2143         estimate D2E/DX2                !
 ! D105  D(13,14,15,46)        -25.7571         estimate D2E/DX2                !
 ! D106  D(43,14,15,16)        -28.3282         estimate D2E/DX2                !
 ! D107  D(43,14,15,45)       -149.8811         estimate D2E/DX2                !
 ! D108  D(43,14,15,46)         95.1475         estimate D2E/DX2                !
 ! D109  D(44,14,15,16)         89.2896         estimate D2E/DX2                !
 ! D110  D(44,14,15,45)        -32.2633         estimate D2E/DX2                !
 ! D111  D(44,14,15,46)       -147.2347         estimate D2E/DX2                !
 ! D112  D(14,15,16,17)         93.9337         estimate D2E/DX2                !
 ! D113  D(14,15,16,20)        -36.0238         estimate D2E/DX2                !
 ! D114  D(14,15,16,47)       -152.1549         estimate D2E/DX2                !
 ! D115  D(45,15,16,17)       -144.4637         estimate D2E/DX2                !
 ! D116  D(45,15,16,20)         85.5788         estimate D2E/DX2                !
 ! D117  D(45,15,16,47)        -30.5522         estimate D2E/DX2                !
 ! D118  D(46,15,16,17)        -29.7164         estimate D2E/DX2                !
 ! D119  D(46,15,16,20)       -159.6739         estimate D2E/DX2                !
 ! D120  D(46,15,16,47)         84.1951         estimate D2E/DX2                !
 ! D121  D(15,16,17,18)        166.3607         estimate D2E/DX2                !
 ! D122  D(15,16,17,48)         49.2456         estimate D2E/DX2                !
 ! D123  D(15,16,17,49)        -68.9779         estimate D2E/DX2                !
 ! D124  D(20,16,17,18)        -66.0497         estimate D2E/DX2                !
 ! D125  D(20,16,17,48)        176.8353         estimate D2E/DX2                !
 ! D126  D(20,16,17,49)         58.6118         estimate D2E/DX2                !
 ! D127  D(47,16,17,18)         52.0869         estimate D2E/DX2                !
 ! D128  D(47,16,17,48)        -65.0282         estimate D2E/DX2                !
 ! D129  D(47,16,17,49)        176.7483         estimate D2E/DX2                !
 ! D130  D(15,16,20,4)         109.258          estimate D2E/DX2                !
 ! D131  D(15,16,20,51)        -13.8563         estimate D2E/DX2                !
 ! D132  D(15,16,20,52)       -127.3722         estimate D2E/DX2                !
 ! D133  D(17,16,20,4)         -15.1776         estimate D2E/DX2                !
 ! D134  D(17,16,20,51)       -138.2918         estimate D2E/DX2                !
 ! D135  D(17,16,20,52)        108.1923         estimate D2E/DX2                !
 ! D136  D(47,16,20,4)        -133.7815         estimate D2E/DX2                !
 ! D137  D(47,16,20,51)        103.1043         estimate D2E/DX2                !
 ! D138  D(47,16,20,52)        -10.4116         estimate D2E/DX2                !
 ! D139  D(16,17,18,19)        170.7895         estimate D2E/DX2                !
 ! D140  D(48,17,18,19)        -69.4929         estimate D2E/DX2                !
 ! D141  D(49,17,18,19)         46.1066         estimate D2E/DX2                !
 ! D142  D(17,18,19,50)        179.4294         estimate D2E/DX2                !
 --------------------------------------------------------------------------------
 Trust Radius=3.00D-01 FncErr=1.00D-07 GrdErr=1.00D-06 EigMax=2.50D+02 EigMin=1.00D-04
 Number of steps in this run=    304 maximum allowed number of steps=    312.
 GradGradGradGradGradGradGradGradGradGradGradGradGradGradGradGradGradGrad

 Stoichiometry    C16H32O4
 Framework group  C1[X(C16H32O4)]
 Deg. of freedom   150
 Full point group                 C1      NOp   1
 Largest Abelian subgroup         C1      NOp   1
 Largest concise Abelian subgroup C1      NOp   1
                         Standard orientation:                         
 ---------------------------------------------------------------------
 Center     Atomic      Atomic             Coordinates (Angstroms)
 Number     Number       Type             X           Y           Z
 ---------------------------------------------------------------------
      1          6           0        4.268235   -1.805276   -0.912316
      2          6           0        2.779735   -1.617488   -0.722147
      3          8           0        2.555402   -0.964120    0.525041
      4          6           0        1.166956   -0.742811    0.782456
      5          6           0        0.618053   -2.040270    1.389755
      6          6           0       -0.270582   -2.764182    0.363289
      7          6           0       -1.729812   -2.343134    0.529417
      8          6           0       -2.302982   -1.662373   -0.718732
      9          6           0       -3.427879   -0.686378   -0.327647
     10          6           0       -4.790668   -1.322709   -0.561793
     11          8           0       -3.302489    0.503802   -1.119421
     12          6           0       -3.577631    1.715530   -0.402904
     13          6           0       -2.311725    2.572176   -0.286078
     14          6           0       -1.268792    1.857074    0.560263
     15          6           0       -0.037407    2.701594    0.885650
     16          6           0        1.265112    1.868213    1.041977
     17          6           0        1.960158    1.873279   -0.335301
     18          8           0        3.302428    1.416012   -0.263609
     19          8           0        3.715327    1.275875   -1.655041
     20          6           0        1.021693    0.471360    1.713323
     21          1           0        4.472813   -2.248588   -1.889434
     22          1           0        4.669858   -2.448164   -0.125081
     23          1           0        4.817082   -0.866963   -0.829668
     24          1           0        2.302713   -2.599893   -0.724899
     25          1           0        2.355322   -1.018358   -1.535817
     26          1           0        0.641101   -0.512988   -0.149730
     27          1           0        0.062136   -1.852095    2.315400
     28          1           0        1.446781   -2.703657    1.665263
     29          1           0       -0.178081   -3.844494    0.513488
     30          1           0        0.074751   -2.576012   -0.660797
     31          1           0       -1.820671   -1.670827    1.389163
     32          1           0       -2.330501   -3.226755    0.772840
     33          1           0       -2.671602   -2.442402   -1.398800
     34          1           0       -1.521200   -1.127220   -1.269636
     35          1           0       -3.337047   -0.428864    0.732789
     36          1           0       -4.923302   -1.589881   -1.616072
     37          1           0       -5.593515   -0.626059   -0.304628
     38          1           0       -4.903518   -2.228821    0.042687
     39          1           0       -3.992356    1.522421    0.594073
     40          1           0       -4.331919    2.269674   -0.967430
     41          1           0       -2.555246    3.542554    0.159732
     42          1           0       -1.890264    2.752735   -1.282762
     43          1           0       -0.975484    0.955269    0.020362
     44          1           0       -1.731096    1.545983    1.504845
     45          1           0       -0.219411    3.253421    1.816257
     46          1           0        0.105238    3.471313    0.115795
     47          1           0        1.922652    2.419266    1.728519
     48          1           0        2.019982    2.896469   -0.718667
     49          1           0        1.387488    1.289209   -1.064176
     50          1           0        4.626653    0.975631   -1.451732
     51          1           0        0.022245    0.452310    2.165491
     52          1           0        1.708254    0.365621    2.561583
 ---------------------------------------------------------------------
 Rotational constants (GHZ):           0.4378082           0.2141060           0.1676605
 Standard basis: 6-31G(2df,p) (6D, 7F)
 There are   780 symmetry adapted cartesian basis functions of A   symmetry.
 There are   720 symmetry adapted basis functions of A   symmetry.
   720 basis functions,  1104 primitive gaussians,   780 cartesian basis functions
    80 alpha electrons       80 beta electrons
       nuclear repulsion energy      1818.3169458666 Hartrees.
 NAtoms=   52 NActive=   52 NUniq=   52 SFac= 1.00D+00 NAtFMM=   60 NAOKFM=F Big=F
 Integral buffers will be    131072 words long.
 Raffenetti 2 integral format.
 Two-electron integral symmetry is turned on.
 One-electron integrals computed using PRISM.
 PrsmSu:  requested number of processors reduced to:  11 ShMem   1 Linda.
 NBasis=   720 RedAO= T EigKep=  4.63D-04  NBF=   720
 NBsUse=   720 1.00D-06 EigRej= -1.00D+00 NBFU=   720
 ExpMin= 1.61D-01 ExpMax= 5.48D+03 ExpMxC= 8.25D+02 IAcc=3 IRadAn=         5 AccDes= 0.00D+00
 Harris functional with IExCor=  402 and IRadAn=       5 diagonalized for initial guess.
 HarFok:  IExCor=  402 AccDes= 0.00D+00 IRadAn=         5 IDoV= 1 UseB2=F ITyADJ=14
 ICtDFT=  3500011 ScaDFX=  1.000000  1.000000  1.000000  1.000000
 FoFCou: FMM=F IPFlag=           0 FMFlag=      100000 FMFlg1=           0
         NFxFlg=           0 DoJE=T BraDBF=F KetDBF=T FulRan=T
         wScrn=  0.000000 ICntrl=       500 IOpCl=  0 I1Cent=   200000004 NGrid=           0
         NMat0=    1 NMatS0=      1 NMatT0=    0 NMatD0=    1 NMtDS0=    0 NMtDT0=    0
 Petite list used in FoFCou.
 Requested convergence on RMS density matrix=1.00D-08 within 128 cycles.
 Requested convergence on MAX density matrix=1.00D-06.
 Requested convergence on             energy=1.00D-06.
 No special actions if energy rises.
 Integral accuracy reduced to 1.0D-05 until final iterations.
 Initial convergence to 1.0D-05 achieved.  Increase integral accuracy.
 SCF Done:  E(RB3LYP) =  -929.784634142     A.U. after   13 cycles
            NFock= 13  Conv=0.65D-08     -V/T= 2.0075

 **********************************************************************

            Population analysis using the SCF density.

 **********************************************************************

 Orbital symmetries:
       Occupied  (A) (A) (A) (A) (A) (A) (A) (A) (A) (A) (A) (A)
                 (A) (A) (A) (A) (A) (A) (A) (A) (A) (A) (A) (A)
                 (A) (A) (A) (A) (A) (A) (A) (A) (A) (A) (A) (A)
                 (A) (A) (A) (A) (A) (A) (A) (A) (A) (A) (A) (A)
                 (A) (A) (A) (A) (A) (A) (A) (A) (A) (A) (A) (A)
                 (A) (A) (A) (A) (A) (A) (A) (A) (A) (A) (A) (A)
                 (A) (A) (A) (A) (A) (A) (A) (A)
       Virtual   (A) (A) (A) (A) (A) (A) (A) (A) (A) (A) (A) (A)
                 (A) (A) (A) (A) (A) (A) (A) (A) (A) (A) (A) (A)
                 (A) (A) (A) (A) (A) (A) (A) (A) (A) (A) (A) (A)
                 (A) (A) (A) (A) (A) (A) (A) (A) (A) (A) (A) (A)
                 (A) (A) (A) (A) (A) (A) (A) (A) (A) (A) (A) (A)
                 (A) (A) (A) (A) (A) (A) (A) (A) (A) (A) (A) (A)
                 (A) (A) (A) (A) (A) (A) (A) (A) (A) (A) (A) (A)
                 (A) (A) (A) (A) (A) (A) (A) (A) (A) (A) (A) (A)
                 (A) (A) (A) (A) (A) (A) (A) (A) (A) (A) (A) (A)
                 (A) (A) (A) (A) (A) (A) (A) (A) (A) (A) (A) (A)
                 (A) (A) (A) (A) (A) (A) (A) (A) (A) (A) (A) (A)
                 (A) (A) (A) (A) (A) (A) (A) (A) (A) (A) (A) (A)
                 (A) (A) (A) (A) (A) (A) (A) (A) (A) (A) (A) (A)
                 (A) (A) (A) (A) (A) (A) (A) (A) (A) (A) (A) (A)
                 (A) (A) (A) (A) (A) (A) (A) (A) (A) (A) (A) (A)
                 (A) (A) (A) (A) (A) (A) (A) (A) (A) (A) (A) (A)
                 (A) (A) (A) (A) (A) (A) (A) (A) (A) (A) (A) (A)
                 (A) (A) (A) (A) (A) (A) (A) (A) (A) (A) (A) (A)
                 (A) (A) (A) (A) (A) (A) (A) (A) (A) (A) (A) (A)
                 (A) (A) (A) (A) (A) (A) (A) (A) (A) (A) (A) (A)
                 (A) (A) (A) (A) (A) (A) (A) (A) (A) (A) (A) (A)
                 (A) (A) (A) (A) (A) (A) (A) (A) (A) (A) (A) (A)
                 (A) (A) (A) (A) (A) (A) (A) (A) (A) (A) (A) (A)
                 (A) (A) (A) (A) (A) (A) (A) (A) (A) (A) (A) (A)
                 (A) (A) (A) (A) (A) (A) (A) (A) (A) (A) (A) (A)
                 (A) (A) (A) (A) (A) (A) (A) (A) (A) (A) (A) (A)
                 (A) (A) (A) (A) (A) (A) (A) (A) (A) (A) (A) (A)
                 (A) (A) (A) (A) (A) (A) (A) (A) (A) (A) (A) (A)
                 (A) (A) (A) (A) (A) (A) (A) (A) (A) (A) (A) (A)
                 (A) (A) (A) (A) (A) (A) (A) (A) (A) (A) (A) (A)
                 (A) (A) (A) (A) (A) (A) (A) (A) (A) (A) (A) (A)
                 (A) (A) (A) (A) (A) (A) (A) (A) (A) (A) (A) (A)
                 (A) (A) (A) (A) (A) (A) (A) (A) (A) (A) (A) (A)
                 (A) (A) (A) (A) (A) (A) (A) (A) (A) (A) (A) (A)
                 (A) (A) (A) (A) (A) (A) (A) (A) (A) (A) (A) (A)
                 (A) (A) (A) (A) (A) (A) (A) (A) (A) (A) (A) (A)
                 (A) (A) (A) (A) (A) (A) (A) (A) (A) (A) (A) (A)
                 (A) (A) (A) (A) (A) (A) (A) (A) (A) (A) (A) (A)
                 (A) (A) (A) (A) (A) (A) (A) (A) (A) (A) (A) (A)
                 (A) (A) (A) (A) (A) (A) (A) (A) (A) (A) (A) (A)
                 (A) (A) (A) (A) (A) (A) (A) (A) (A) (A) (A) (A)
                 (A) (A) (A) (A) (A) (A) (A) (A) (A) (A) (A) (A)
                 (A) (A) (A) (A) (A) (A) (A) (A) (A) (A) (A) (A)
                 (A) (A) (A) (A) (A) (A) (A) (A) (A) (A) (A) (A)
                 (A) (A) (A) (A) (A) (A) (A) (A) (A) (A) (A) (A)
                 (A) (A) (A) (A) (A) (A) (A) (A) (A) (A) (A) (A)
                 (A) (A) (A) (A) (A) (A) (A) (A) (A) (A) (A) (A)
                 (A) (A) (A) (A) (A) (A) (A) (A) (A) (A) (A) (A)
                 (A) (A) (A) (A) (A) (A) (A) (A) (A) (A) (A) (A)
                 (A) (A) (A) (A) (A) (A) (A) (A) (A) (A) (A) (A)
                 (A) (A) (A) (A) (A) (A) (A) (A) (A) (A) (A) (A)
                 (A) (A) (A) (A) (A) (A) (A) (A) (A) (A) (A) (A)
                 (A) (A) (A) (A) (A) (A) (A) (A) (A) (A) (A) (A)
                 (A) (A) (A) (A)
 The electronic state is 1-A.
 Alpha  occ. eigenvalues --  -19.18154 -19.17442 -19.12946 -19.11895 -10.22568
 Alpha  occ. eigenvalues --  -10.22228 -10.22003 -10.21933 -10.21379 -10.18983
 Alpha  occ. eigenvalues --  -10.17885 -10.17636 -10.17546 -10.17481 -10.17388
 Alpha  occ. eigenvalues --  -10.17181 -10.17175 -10.16906 -10.16893 -10.16746
 Alpha  occ. eigenvalues --   -1.09959  -1.01572  -1.01272  -0.89894  -0.81590
 Alpha  occ. eigenvalues --   -0.81098  -0.77658  -0.77397  -0.74437  -0.71619
 Alpha  occ. eigenvalues --   -0.70183  -0.68349  -0.64785  -0.62281  -0.61216
 Alpha  occ. eigenvalues --   -0.59763  -0.58041  -0.57462  -0.57193  -0.54792
 Alpha  occ. eigenvalues --   -0.50353  -0.49935  -0.49192  -0.48238  -0.47273
 Alpha  occ. eigenvalues --   -0.46642  -0.45391  -0.45234  -0.44582  -0.44078
 Alpha  occ. eigenvalues --   -0.43124  -0.42367  -0.41865  -0.41161  -0.40622
 Alpha  occ. eigenvalues --   -0.39154  -0.38670  -0.38015  -0.37753  -0.37399
 Alpha  occ. eigenvalues --   -0.36652  -0.36146  -0.35507  -0.35308  -0.34746
 Alpha  occ. eigenvalues --   -0.34235  -0.33706  -0.33507  -0.33256  -0.32569
 Alpha  occ. eigenvalues --   -0.31837  -0.31357  -0.31303  -0.30983  -0.30633
 Alpha  occ. eigenvalues --   -0.30046  -0.28623  -0.24436  -0.23886  -0.21219
 Alpha virt. eigenvalues --    0.03696   0.06698   0.07172   0.07234   0.08542
 Alpha virt. eigenvalues --    0.09573   0.09755   0.11011   0.11513   0.12218
 Alpha virt. eigenvalues --    0.12620   0.13253   0.13494   0.13849   0.13952
 Alpha virt. eigenvalues --    0.14903   0.15186   0.15562   0.15819   0.16869
 Alpha virt. eigenvalues --    0.16964   0.17202   0.17861   0.17969   0.18588
 Alpha virt. eigenvalues --    0.18852   0.19272   0.19933   0.20474   0.21078
 Alpha virt. eigenvalues --    0.21442   0.22156   0.22521   0.23001   0.23124
 Alpha virt. eigenvalues --    0.23632   0.24046   0.24581   0.25257   0.25633
 Alpha virt. eigenvalues --    0.26167   0.27295   0.28054   0.28468   0.28570
 Alpha virt. eigenvalues --    0.29155   0.29685   0.30885   0.32063   0.32771
 Alpha virt. eigenvalues --    0.34793   0.35558   0.43364   0.44439   0.44689
 Alpha virt. eigenvalues --    0.45316   0.46224   0.46648   0.47889   0.48974
 Alpha virt. eigenvalues --    0.49694   0.50169   0.50497   0.50581   0.51361
 Alpha virt. eigenvalues --    0.52313   0.52495   0.53026   0.54032   0.54130
 Alpha virt. eigenvalues --    0.54700   0.55527   0.55968   0.56953   0.57560
 Alpha virt. eigenvalues --    0.58103   0.58825   0.59303   0.59581   0.60303
 Alpha virt. eigenvalues --    0.61138   0.61591   0.62295   0.63236   0.64141
 Alpha virt. eigenvalues --    0.64732   0.65750   0.66166   0.66572   0.67192
 Alpha virt. eigenvalues --    0.67622   0.68190   0.68194   0.69430   0.70105
 Alpha virt. eigenvalues --    0.71360   0.71629   0.71929   0.72070   0.72812
 Alpha virt. eigenvalues --    0.73315   0.73536   0.74014   0.75203   0.75547
 Alpha virt. eigenvalues --    0.75741   0.76179   0.76257   0.76382   0.77171
 Alpha virt. eigenvalues --    0.78238   0.78321   0.78562   0.79070   0.79281
 Alpha virt. eigenvalues --    0.79721   0.79760   0.80582   0.81042   0.81813
 Alpha virt. eigenvalues --    0.81960   0.83132   0.83446   0.83871   0.84516
 Alpha virt. eigenvalues --    0.85687   0.86218   0.87040   0.87133   0.87987
 Alpha virt. eigenvalues --    0.88551   0.89501   0.89581   0.90358   0.90593
 Alpha virt. eigenvalues --    0.91816   0.91958   0.92838   0.93226   0.93542
 Alpha virt. eigenvalues --    0.95283   0.95896   0.96534   0.97005   0.99473
 Alpha virt. eigenvalues --    0.99582   1.01389   1.02248   1.02579   1.03615
 Alpha virt. eigenvalues --    1.04791   1.06784   1.07329   1.09115   1.09673
 Alpha virt. eigenvalues --    1.10101   1.10532   1.12515   1.13269   1.13975
 Alpha virt. eigenvalues --    1.15185   1.16225   1.16611   1.18454   1.19814
 Alpha virt. eigenvalues --    1.20516   1.21998   1.23189   1.23531   1.24562
 Alpha virt. eigenvalues --    1.25652   1.26513   1.27011   1.27970   1.28514
 Alpha virt. eigenvalues --    1.29139   1.31392   1.31845   1.33631   1.34284
 Alpha virt. eigenvalues --    1.35306   1.36498   1.36753   1.37400   1.38950
 Alpha virt. eigenvalues --    1.39890   1.40922   1.42100   1.42952   1.43246
 Alpha virt. eigenvalues --    1.44119   1.45041   1.46210   1.46374   1.47546
 Alpha virt. eigenvalues --    1.48003   1.48532   1.49693   1.51187   1.51587
 Alpha virt. eigenvalues --    1.51767   1.53266   1.53546   1.53823   1.54416
 Alpha virt. eigenvalues --    1.55901   1.56925   1.57194   1.58007   1.59298
 Alpha virt. eigenvalues --    1.59629   1.60186   1.61871   1.62119   1.63369
 Alpha virt. eigenvalues --    1.63639   1.65057   1.65894   1.66881   1.67567
 Alpha virt. eigenvalues --    1.68206   1.69262   1.71013   1.71080   1.71792
 Alpha virt. eigenvalues --    1.72678   1.73301   1.74083   1.74714   1.76365
 Alpha virt. eigenvalues --    1.77617   1.78544   1.78851   1.79571   1.80693
 Alpha virt. eigenvalues --    1.82088   1.83223   1.83806   1.84608   1.85287
 Alpha virt. eigenvalues --    1.85740   1.87687   1.89892   1.90802   1.91367
 Alpha virt. eigenvalues --    1.92617   1.93391   1.94012   1.95096   1.96455
 Alpha virt. eigenvalues --    1.96937   1.97180   1.99447   2.00263   2.01170
 Alpha virt. eigenvalues --    2.02630   2.03496   2.06536   2.09505   2.09895
 Alpha virt. eigenvalues --    2.10797   2.13170   2.15287   2.15979   2.17244
 Alpha virt. eigenvalues --    2.18168   2.18873   2.20281   2.20772   2.21946
 Alpha virt. eigenvalues --    2.23486   2.24119   2.25217   2.26200   2.29011
 Alpha virt. eigenvalues --    2.29253   2.30629   2.30791   2.31028   2.32957
 Alpha virt. eigenvalues --    2.33634   2.34753   2.35676   2.36842   2.37099
 Alpha virt. eigenvalues --    2.39003   2.41084   2.41931   2.42600   2.44560
 Alpha virt. eigenvalues --    2.46322   2.46609   2.47633   2.49353   2.50088
 Alpha virt. eigenvalues --    2.51679   2.52063   2.53161   2.53380   2.54644
 Alpha virt. eigenvalues --    2.56093   2.56598   2.57931   2.58875   2.60879
 Alpha virt. eigenvalues --    2.61996   2.63389   2.64050   2.65145   2.66054
 Alpha virt. eigenvalues --    2.66886   2.67123   2.68962   2.70438   2.71108
 Alpha virt. eigenvalues --    2.72105   2.73457   2.73680   2.75787   2.77222
 Alpha virt. eigenvalues --    2.77406   2.78315   2.79472   2.79927   2.80417
 Alpha virt. eigenvalues --    2.81149   2.81618   2.82433   2.82638   2.83288
 Alpha virt. eigenvalues --    2.84460   2.85120   2.85571   2.86360   2.87503
 Alpha virt. eigenvalues --    2.88418   2.88983   2.90030   2.90885   2.92065
 Alpha virt. eigenvalues --    2.92532   2.93153   2.94118   2.94184   2.95509
 Alpha virt. eigenvalues --    2.95672   2.96383   2.97112   2.97456   2.98547
 Alpha virt. eigenvalues --    2.98910   2.99960   3.01334   3.01639   3.02664
 Alpha virt. eigenvalues --    3.03398   3.04692   3.05689   3.06559   3.07398
 Alpha virt. eigenvalues --    3.08428   3.10666   3.11268   3.13278   3.13859
 Alpha virt. eigenvalues --    3.15058   3.16346   3.16378   3.17831   3.18949
 Alpha virt. eigenvalues --    3.21339   3.21577   3.23182   3.24501   3.26166
 Alpha virt. eigenvalues --    3.26764   3.27171   3.28283   3.30742   3.31511
 Alpha virt. eigenvalues --    3.32697   3.33644   3.34404   3.35655   3.36428
 Alpha virt. eigenvalues --    3.37601   3.38142   3.39515   3.40119   3.40888
 Alpha virt. eigenvalues --    3.42447   3.43152   3.43910   3.44533   3.44973
 Alpha virt. eigenvalues --    3.46150   3.47083   3.47702   3.49032   3.50557
 Alpha virt. eigenvalues --    3.51033   3.52023   3.53351   3.54172   3.55191
 Alpha virt. eigenvalues --    3.55932   3.56675   3.57726   3.58091   3.58548
 Alpha virt. eigenvalues --    3.60009   3.60125   3.60789   3.60985   3.63259
 Alpha virt. eigenvalues --    3.64284   3.65841   3.66566   3.67357   3.67881
 Alpha virt. eigenvalues --    3.69269   3.69356   3.70375   3.71568   3.72643
 Alpha virt. eigenvalues --    3.74267   3.75221   3.75435   3.76058   3.77705
 Alpha virt. eigenvalues --    3.80731   3.82079   3.84325   3.84699   3.86682
 Alpha virt. eigenvalues --    3.87807   3.89026   3.89373   3.91664   3.92864
 Alpha virt. eigenvalues --    3.93393   3.94427   3.96319   3.98259   3.99658
 Alpha virt. eigenvalues --    4.01759   4.03341   4.04272   4.06132   4.07246
 Alpha virt. eigenvalues --    4.09436   4.10150   4.12943   4.13761   4.15643
 Alpha virt. eigenvalues --    4.17135   4.19796   4.22374   4.23179   4.23938
 Alpha virt. eigenvalues --    4.26219   4.27613   4.29431   4.31572   4.33266
 Alpha virt. eigenvalues --    4.33782   4.35134   4.37648   4.39707   4.41424
 Alpha virt. eigenvalues --    4.42713   4.43326   4.43574   4.43958   4.44338
 Alpha virt. eigenvalues --    4.45784   4.45902   4.47587   4.47885   4.48079
 Alpha virt. eigenvalues --    4.49532   4.50231   4.51024   4.51485   4.52513
 Alpha virt. eigenvalues --    4.53095   4.53657   4.54390   4.54641   4.55089
 Alpha virt. eigenvalues --    4.56036   4.56969   4.57456   4.57666   4.58422
 Alpha virt. eigenvalues --    4.59320   4.59990   4.60613   4.61424   4.62183
 Alpha virt. eigenvalues --    4.63425   4.63621   4.64672   4.65892   4.66032
 Alpha virt. eigenvalues --    4.66447   4.67217   4.67436   4.67995   4.68677
 Alpha virt. eigenvalues --    4.69481   4.70083   4.70652   4.71619   4.72258
 Alpha virt. eigenvalues --    4.72389   4.73223   4.74241   4.74824   4.75094
 Alpha virt. eigenvalues --    4.75335   4.76331   4.76488   4.76996   4.77850
 Alpha virt. eigenvalues --    4.78542   4.79143   4.79651   4.79814   4.80425
 Alpha virt. eigenvalues --    4.81025   4.81638   4.82989   4.83918   4.83977
 Alpha virt. eigenvalues --    4.86037   4.86745   4.87056   4.87684   4.88251
 Alpha virt. eigenvalues --    4.88783   4.89353   4.90241   4.90596   4.91518
 Alpha virt. eigenvalues --    4.92626   4.93334   4.94154   4.94420   4.95753
 Alpha virt. eigenvalues --    4.96991   4.97601   4.98000   4.99778   4.99927
 Alpha virt. eigenvalues --    5.00846   5.02602   5.03288   5.03740   5.04983
 Alpha virt. eigenvalues --    5.07447   5.11079   5.12770   5.15851   5.19302
 Alpha virt. eigenvalues --    5.20597   5.21043   5.25138   5.26424   5.30702
 Alpha virt. eigenvalues --    5.32736   5.37113   5.38255   5.39614   5.40834
 Alpha virt. eigenvalues --    5.41419   5.42281   5.43279   5.44879   5.45262
 Alpha virt. eigenvalues --    5.46357   5.48409   5.49700   5.50095   5.51872
 Alpha virt. eigenvalues --    5.53511   5.53919   5.57465   5.59022   5.60312
 Alpha virt. eigenvalues --    5.62212   5.64790   5.67263   5.68757   5.75636
 Alpha virt. eigenvalues --    5.76934   5.80869   5.92053   5.93115   5.95083
 Alpha virt. eigenvalues --    5.96577   5.98310   6.02342   6.06025   6.09339
 Alpha virt. eigenvalues --    6.12952   6.17022   6.18453   6.18681   6.21927
 Alpha virt. eigenvalues --    6.24478   6.31430   6.36441   6.59173   6.69347
 Alpha virt. eigenvalues --    6.88628   7.12799   7.21566   7.22937   7.45240
 Alpha virt. eigenvalues --   11.08282  11.26201  11.40194  11.44334  11.58189
 Alpha virt. eigenvalues --   11.84888  12.01204  12.07810  12.20710  12.29990
 Alpha virt. eigenvalues --   12.46164  12.57035  12.58988  12.64150  12.83664
 Alpha virt. eigenvalues --   13.03808  13.13235  13.39021  13.63230  13.95461
          Condensed to atoms (all electrons):
 Mulliken charges:
               1
     1  C   -0.381923
     2  C   -0.030844
     3  O   -0.248467
     4  C    0.163911
     5  C   -0.222688
     6  C   -0.206358
     7  C   -0.176026
     8  C   -0.210615
     9  C    0.157574
    10  C   -0.396648
    11  O   -0.280546
    12  C   -0.091217
    13  C   -0.204726
    14  C   -0.143498
    15  C   -0.231804
    16  C   -0.053688
    17  C   -0.003076
    18  O   -0.186028
    19  O   -0.334889
    20  C   -0.253809
    21  H    0.111273
    22  H    0.120797
    23  H    0.099466
    24  H    0.089157
    25  H    0.096547
    26  H    0.064206
    27  H    0.088923
    28  H    0.101480
    29  H    0.083135
    30  H    0.099253
    31  H    0.092436
    32  H    0.095074
    33  H    0.093568
    34  H    0.106307
    35  H    0.067280
    36  H    0.123833
    37  H    0.108723
    38  H    0.110096
    39  H    0.093333
    40  H    0.094291
    41  H    0.089299
    42  H    0.105933
    43  H    0.119498
    44  H    0.089675
    45  H    0.093655
    46  H    0.098168
    47  H    0.086512
    48  H    0.092582
    49  H    0.101776
    50  H    0.314687
    51  H    0.099005
    52  H    0.105394
 Sum of Mulliken charges =  -0.00000
 Mulliken charges with hydrogens summed into heavy atoms:
               1
     1  C   -0.050386
     2  C    0.154861
     3  O   -0.248467
     4  C    0.228117
     5  C   -0.032285
     6  C   -0.023969
     7  C    0.011484
     8  C   -0.010739
     9  C    0.224854
    10  C   -0.053996
    11  O   -0.280546
    12  C    0.096407
    13  C   -0.009494
    14  C    0.065676
    15  C   -0.039980
    16  C    0.032824
    17  C    0.191281
    18  O   -0.186028
    19  O   -0.020203
    20  C   -0.049410
 Electronic spatial extent (au):  <R**2>=           6945.9505
 Charge=             -0.0000 electrons
 Dipole moment (field-independent basis, Debye):
    X=             -1.0710    Y=             -0.3980    Z=              0.9938  Tot=              1.5143
 Quadrupole moment (field-independent basis, Debye-Ang):
   XX=           -123.8053   YY=           -121.7617   ZZ=           -127.2341
   XY=             -2.5664   XZ=             -6.7423   YZ=              3.2865
 Traceless Quadrupole moment (field-independent basis, Debye-Ang):
   XX=              0.4618   YY=              2.5053   ZZ=             -2.9671
   XY=             -2.5664   XZ=             -6.7423   YZ=              3.2865
 Octapole moment (field-independent basis, Debye-Ang**2):
  XXX=             61.4851  YYY=              9.2450  ZZZ=             -3.1981  XYY=             -0.7001
  XXY=             -0.4455  XXZ=            -10.5403  XZZ=             14.4997  YZZ=              0.9830
  YYZ=             -2.5083  XYZ=              3.7479
 Hexadecapole moment (field-independent basis, Debye-Ang**3):
 XXXX=          -5303.2489 YYYY=          -2645.3965 ZZZZ=           -822.6280 XXXY=              0.7392
 XXXZ=           -155.5168 YYYX=              1.9944 YYYZ=            -14.2953 ZZZX=             -9.8452
 ZZZY=              2.4269 XXYY=          -1363.7276 XXZZ=          -1074.0911 YYZZ=           -579.6794
 XXYZ=             15.3444 YYXZ=              8.1716 ZZXY=              2.4785
 N-N= 1.818316945867D+03 E-N=-5.802689218431D+03  KE= 9.229033454337D+02
 PrsmSu:  requested number of processors reduced to:  12 ShMem   1 Linda.
 Calling FoFJK, ICntrl=      2127 FMM=F ISym2X=0 I1Cent= 0 IOpClX= 0 NMat=1 NMatS=1 NMatT=0.
 ***** Axes restored to original set *****
 -------------------------------------------------------------------
 Center     Atomic                   Forces (Hartrees/Bohr)
 Number     Number              X              Y              Z
 -------------------------------------------------------------------
      1        6          -0.004118598   -0.000857815   -0.004636375
      2        6          -0.001921340    0.006941899   -0.009089781
      3        8           0.002598650   -0.001039504    0.011033210
      4        6          -0.009137863    0.001842676   -0.021930739
      5        6           0.000706582   -0.010028327    0.007416003
      6        6           0.001466424   -0.011617767   -0.013386290
      7        6           0.002322834   -0.005427820    0.007522668
      8        6           0.004032871   -0.000247656   -0.004958690
      9        6          -0.001234083   -0.005234862    0.018535286
     10        6           0.007258256    0.001678717    0.001115695
     11        8           0.005123283    0.005544301   -0.014270343
     12        6          -0.004218737    0.004906387    0.014710348
     13        6           0.001520032   -0.006177186   -0.002935876
     14        6           0.000365184    0.002957873    0.000097012
     15        6          -0.001955031    0.000862693   -0.004679669
     16        6          -0.007020640    0.005701757   -0.004076086
     17        6          -0.005777175    0.003241023   -0.001619012
     18        8           0.009703557    0.003453198   -0.002173044
     19        8          -0.015353265    0.000254233   -0.008849626
     20        6          -0.006299464    0.004651399    0.001425784
     21        1          -0.001262488   -0.001345073   -0.000114477
     22        1          -0.000558245   -0.003499516    0.000718776
     23        1           0.001498155    0.001319888    0.001787475
     24        1           0.002326983   -0.004767451    0.001943347
     25        1           0.000181439    0.000175258    0.001993108
     26        1          -0.001100244   -0.002309887    0.002207641
     27        1           0.000585165   -0.001357910    0.001596563
     28        1          -0.002434611    0.007257743    0.000131000
     29        1           0.000020279   -0.001530100    0.000445301
     30        1           0.000685922    0.000305085   -0.003019279
     31        1          -0.000458396   -0.000304008    0.000815743
     32        1           0.002878710    0.001588345   -0.000738029
     33        1           0.000521367    0.003775023    0.001820825
     34        1           0.002494987    0.002527172   -0.002721048
     35        1          -0.001718668    0.001359113   -0.000398648
     36        1          -0.001956077    0.000295562   -0.000912432
     37        1           0.001927364   -0.000499640   -0.001886661
     38        1           0.000854953   -0.000292925   -0.000045928
     39        1          -0.000155787   -0.002514158   -0.000223502
     40        1           0.003581560    0.000494225    0.001859869
     41        1           0.002536130    0.001343751    0.001295831
     42        1           0.002949705    0.001441079    0.000976503
     43        1           0.000909333   -0.001593479   -0.000674149
     44        1           0.000508225   -0.003297874    0.001393342
     45        1           0.000106587   -0.000118560    0.000739755
     46        1          -0.000819633   -0.001284072   -0.000539042
     47        1          -0.000584413    0.000802077    0.003689684
     48        1           0.006299427    0.003535013    0.001103061
     49        1          -0.001918574   -0.002788567    0.000686202
     50        1           0.009693593    0.003602353    0.011700286
     51        1          -0.002756992   -0.000426591    0.002587484
     52        1          -0.002897232   -0.003297092    0.002530922
 -------------------------------------------------------------------
 Cartesian Forces:  Max     0.021930739 RMS     0.004925741

 GradGradGradGradGradGradGradGradGradGradGradGradGradGradGradGradGradGrad
 Berny optimization.
 FormGI is forming the generalized inverse of G from B-inverse, IUseBI=4.
 Internal  Forces:  Max     0.038340549 RMS     0.005811793
 Search for a local minimum.
 Step number   1 out of a maximum of  304
 All quantities printed in internal units (Hartrees-Bohrs-Radians)
 Mixed Optimization -- RFO/linear search
 Second derivative matrix not updated -- first step.
 ITU=  0
     Eigenvalues ---    0.00230   0.00257   0.00272   0.00299   0.00327
     Eigenvalues ---    0.00372   0.00468   0.00473   0.00521   0.00526
     Eigenvalues ---    0.00603   0.00757   0.00967   0.01304   0.01351
     Eigenvalues ---    0.01429   0.01889   0.02317   0.02400   0.03115
     Eigenvalues ---    0.03396   0.03525   0.03617   0.03651   0.03791
     Eigenvalues ---    0.03964   0.04370   0.04525   0.04559   0.04676
     Eigenvalues ---    0.04680   0.04709   0.04786   0.04801   0.04843
     Eigenvalues ---    0.04874   0.04891   0.04916   0.05130   0.05374
     Eigenvalues ---    0.05451   0.05597   0.05598   0.05656   0.05671
     Eigenvalues ---    0.05794   0.05927   0.06057   0.06223   0.06877
     Eigenvalues ---    0.07022   0.07827   0.07913   0.07928   0.07955
     Eigenvalues ---    0.08009   0.08419   0.08516   0.08585   0.08756
     Eigenvalues ---    0.08823   0.09138   0.10833   0.11186   0.11388
     Eigenvalues ---    0.11735   0.11954   0.12069   0.12160   0.12294
     Eigenvalues ---    0.12377   0.13043   0.13474   0.13682   0.13984
     Eigenvalues ---    0.14182   0.16000   0.16000   0.16000   0.16000
     Eigenvalues ---    0.16000   0.16000   0.16000   0.16335   0.17028
     Eigenvalues ---    0.17947   0.18755   0.20018   0.20152   0.21500
     Eigenvalues ---    0.21852   0.21887   0.21961   0.22010   0.22025
     Eigenvalues ---    0.23457   0.25000   0.25000   0.25900   0.27117
     Eigenvalues ---    0.28269   0.28279   0.28407   0.28618   0.28727
     Eigenvalues ---    0.28999   0.29105   0.29452   0.29557   0.30067
     Eigenvalues ---    0.30161   0.31120   0.33815   0.33843   0.33910
     Eigenvalues ---    0.34000   0.34003   0.34006   0.34016   0.34024
     Eigenvalues ---    0.34048   0.34050   0.34083   0.34126   0.34132
     Eigenvalues ---    0.34136   0.34146   0.34166   0.34173   0.34207
     Eigenvalues ---    0.34221   0.34234   0.34238   0.34278   0.34284
     Eigenvalues ---    0.34322   0.34397   0.34465   0.34484   0.34547
     Eigenvalues ---    0.34571   0.34671   0.34792   0.37197   0.39781
     Eigenvalues ---    0.40063   0.41084   0.41610   0.42486   0.51227
 RFO step:  Lambda=-5.32711151D-02 EMin= 2.30000000D-03
 Linear search not attempted -- first point.
 Maximum step size (   0.300) exceeded in Quadratic search.
    -- Step size scaled by   0.800
 Iteration  1 RMS(Cart)=  0.23230527 RMS(Int)=  0.00859463
 Iteration  2 RMS(Cart)=  0.03413411 RMS(Int)=  0.00068317
 Iteration  3 RMS(Cart)=  0.00073373 RMS(Int)=  0.00064942
 Iteration  4 RMS(Cart)=  0.00000090 RMS(Int)=  0.00064942
 Variable       Old X    -DE/DX   Delta X   Delta X   Delta X     New X
                                 (Linear)    (Quad)   (Total)
    R1        2.85784   0.00481   0.00000   0.01056   0.01056   2.86840
    R2        2.06416   0.00096   0.00000   0.00192   0.00192   2.06609
    R3        2.06521   0.00139   0.00000   0.00280   0.00280   2.06800
    R4        2.06014   0.00035   0.00000   0.00070   0.00070   2.06085
    R5        2.69423  -0.00365   0.00000  -0.00621  -0.00621   2.68802
    R6        2.06376   0.00533   0.00000   0.01068   0.01068   2.07444
    R7        2.07108   0.00179   0.00000   0.00363   0.00363   2.07471
    R8        2.70107   0.00155   0.00000   0.00266   0.00266   2.70373
    R9        2.89906   0.01480   0.00000   0.03828   0.03837   2.93743
   R10        2.90418   0.00690   0.00000   0.01814   0.01814   2.92232
   R11        2.06864   0.00139   0.00000   0.00281   0.00281   2.07145
   R12        2.90757   0.01168   0.00000   0.02950   0.02941   2.93698
   R13        2.07119  -0.00103   0.00000  -0.00209  -0.00209   2.06910
   R14        2.07249  -0.00215   0.00000  -0.00437  -0.00437   2.06811
   R15        2.88716   0.01894   0.00000   0.04415   0.04406   2.93122
   R16        2.06853   0.00139   0.00000   0.00280   0.00280   2.07133
   R17        2.07303  -0.00292   0.00000  -0.00593  -0.00593   2.06711
   R18        2.89679   0.01217   0.00000   0.02662   0.02645   2.92324
   R19        2.06959  -0.00090   0.00000  -0.00182  -0.00182   2.06777
   R20        2.07084   0.00034   0.00000   0.00068   0.00068   2.07152
   R21        2.90975   0.00486   0.00000   0.01083   0.01074   2.92050
   R22        2.07596  -0.00166   0.00000  -0.00340  -0.00340   2.07257
   R23        2.07101  -0.00171   0.00000  -0.00346  -0.00346   2.06755
   R24        2.87644   0.00564   0.00000   0.01270   0.01270   2.88915
   R25        2.71171   0.00164   0.00000   0.00026   0.00012   2.71183
   R26        2.06931   0.00060   0.00000   0.00122   0.00122   2.07052
   R27        2.07050  -0.00083   0.00000  -0.00169  -0.00169   2.06882
   R28        2.06665   0.00137   0.00000   0.00275   0.00275   2.06941
   R29        2.06938   0.00039   0.00000   0.00079   0.00079   2.07016
   R30        2.71054  -0.00610   0.00000  -0.01224  -0.01225   2.69829
   R31        2.89690   0.00190   0.00000   0.00115   0.00118   2.89808
   R32        2.07289   0.00049   0.00000   0.00100   0.00100   2.07389
   R33        2.06553   0.00365   0.00000   0.00734   0.00734   2.07287
   R34        2.87547   0.01030   0.00000   0.02406   0.02423   2.89970
   R35        2.06982   0.00167   0.00000   0.00338   0.00338   2.07319
   R36        2.07320  -0.00053   0.00000  -0.00108  -0.00108   2.07212
   R37        2.88788   0.01221   0.00000   0.02493   0.02498   2.91286
   R38        2.06212   0.00070   0.00000   0.00140   0.00140   2.06352
   R39        2.07245   0.00005   0.00000   0.00010   0.00010   2.07255
   R40        2.93700   0.00766   0.00000   0.01925   0.01936   2.95636
   R41        2.07325  -0.00060   0.00000  -0.00122  -0.00122   2.07203
   R42        2.07482  -0.00107   0.00000  -0.00219  -0.00219   2.07264
   R43        2.91533  -0.00105   0.00000  -0.00250  -0.00250   2.91283
   R44        2.96462   0.01356   0.00000   0.03850   0.03862   3.00324
   R45        2.07643  -0.00180   0.00000  -0.00368  -0.00368   2.07275
   R46        2.68309  -0.00580   0.00000  -0.00969  -0.00969   2.67340
   R47        2.06791   0.00331   0.00000   0.00667   0.00667   2.07457
   R48        2.07039   0.00147   0.00000   0.00297   0.00297   2.07337
   R49        2.75551   0.00458   0.00000   0.00861   0.00861   2.76412
   R50        1.85347  -0.01398   0.00000  -0.01976  -0.01976   1.83371
   R51        2.07329  -0.00329   0.00000  -0.00668  -0.00668   2.06661
   R52        2.07189  -0.00077   0.00000  -0.00156  -0.00156   2.07033
    A1        1.92541   0.00136   0.00000   0.00327   0.00327   1.92868
    A2        1.92216   0.00070   0.00000   0.00322   0.00323   1.92539
    A3        1.95963  -0.00270   0.00000  -0.00888  -0.00888   1.95076
    A4        1.91432  -0.00199   0.00000  -0.00992  -0.00992   1.90440
    A5        1.89952   0.00031   0.00000   0.00016   0.00016   1.89968
    A6        1.84075   0.00229   0.00000   0.01216   0.01218   1.85293
    A7        1.89840  -0.00087   0.00000  -0.00173  -0.00176   1.89665
    A8        1.89431  -0.00203   0.00000  -0.01080  -0.01080   1.88351
    A9        1.93444   0.00216   0.00000   0.00987   0.00986   1.94430
   A10        1.92380   0.00115   0.00000   0.00308   0.00305   1.92685
   A11        1.91559   0.00035   0.00000   0.00427   0.00424   1.91982
   A12        1.89731  -0.00076   0.00000  -0.00476  -0.00474   1.89257
   A13        1.96204   0.01733   0.00000   0.04570   0.04570   2.00775
   A14        1.86284   0.00108   0.00000   0.00099   0.00117   1.86400
   A15        1.89993   0.00310   0.00000   0.01723   0.01771   1.91764
   A16        1.92386   0.00140   0.00000   0.01190   0.01157   1.93543
   A17        1.97641  -0.00047   0.00000  -0.01132  -0.01178   1.96463
   A18        1.92068  -0.00616   0.00000  -0.02992  -0.02975   1.89092
   A19        1.88024   0.00119   0.00000   0.01205   0.01129   1.89152
   A20        1.91821   0.00365   0.00000   0.04476   0.04427   1.96248
   A21        1.95045   0.00100   0.00000  -0.00306  -0.00279   1.94766
   A22        1.91841  -0.00640   0.00000  -0.04046  -0.04094   1.87747
   A23        1.92972  -0.00549   0.00000  -0.02784  -0.02801   1.90171
   A24        1.89592   0.00617   0.00000   0.02212   0.02325   1.91917
   A25        1.84935   0.00105   0.00000   0.00287   0.00264   1.85199
   A26        1.92775   0.01107   0.00000   0.05017   0.04766   1.97540
   A27        1.90075   0.00125   0.00000   0.00691   0.00748   1.90823
   A28        1.93936  -0.00814   0.00000  -0.03413  -0.03330   1.90605
   A29        1.91535  -0.00323   0.00000  -0.01038  -0.01033   1.90502
   A30        1.93360  -0.00310   0.00000  -0.01410  -0.01295   1.92066
   A31        1.84500   0.00171   0.00000  -0.00067  -0.00118   1.84382
   A32        1.97249   0.01195   0.00000   0.04051   0.04089   2.01337
   A33        1.91110  -0.00238   0.00000  -0.00521  -0.00542   1.90568
   A34        1.90232  -0.00323   0.00000  -0.00616  -0.00619   1.89613
   A35        1.91299  -0.00747   0.00000  -0.02551  -0.02579   1.88719
   A36        1.91134  -0.00079   0.00000  -0.00170  -0.00195   1.90939
   A37        1.84953   0.00127   0.00000  -0.00473  -0.00482   1.84471
   A38        1.92607   0.00463   0.00000   0.02236   0.02118   1.94725
   A39        1.89040   0.00372   0.00000   0.01928   0.01991   1.91031
   A40        1.93845  -0.00385   0.00000  -0.01482  -0.01444   1.92401
   A41        1.94138  -0.00442   0.00000  -0.02121  -0.02082   1.92056
   A42        1.91697  -0.00150   0.00000  -0.00993  -0.00993   1.90704
   A43        1.84928   0.00122   0.00000   0.00333   0.00304   1.85232
   A44        1.92839   0.00502   0.00000   0.02467   0.02530   1.95370
   A45        1.89837   0.00483   0.00000   0.02047   0.01942   1.91778
   A46        1.91179  -0.00504   0.00000  -0.02211  -0.02235   1.88944
   A47        1.91781  -0.00229   0.00000   0.00059   0.00031   1.91812
   A48        1.89815   0.00031   0.00000  -0.00374  -0.00370   1.89445
   A49        1.90926  -0.00294   0.00000  -0.02052  -0.02040   1.88886
   A50        1.93728  -0.00286   0.00000  -0.01039  -0.01038   1.92690
   A51        1.93348   0.00168   0.00000   0.00705   0.00705   1.94053
   A52        1.93186   0.00095   0.00000   0.00250   0.00249   1.93435
   A53        1.86788   0.00135   0.00000   0.00713   0.00715   1.87503
   A54        1.89326   0.00049   0.00000   0.00043   0.00042   1.89369
   A55        1.89825  -0.00162   0.00000  -0.00669  -0.00670   1.89156
   A56        1.99137  -0.01203   0.00000  -0.01462  -0.01483   1.97654
   A57        1.93023   0.00868   0.00000   0.01706   0.01475   1.94498
   A58        1.95824  -0.00890   0.00000  -0.03669  -0.03607   1.92217
   A59        1.87828   0.00139   0.00000   0.01708   0.01735   1.89564
   A60        1.91912  -0.00200   0.00000  -0.00894  -0.00861   1.91051
   A61        1.90278   0.00061   0.00000   0.01483   0.01513   1.91791
   A62        1.87314   0.00025   0.00000  -0.00196  -0.00201   1.87113
   A63        1.92385   0.00766   0.00000   0.03147   0.03019   1.95404
   A64        1.92037  -0.00675   0.00000  -0.02455  -0.02431   1.89607
   A65        1.91768  -0.00046   0.00000  -0.00744  -0.00740   1.91028
   A66        1.92022   0.00309   0.00000   0.01462   0.01529   1.93551
   A67        1.89583  -0.00424   0.00000  -0.00948  -0.00912   1.88671
   A68        1.88533   0.00059   0.00000  -0.00522  -0.00561   1.87972
   A69        1.99435   0.00601   0.00000   0.00178   0.00313   1.99748
   A70        1.87278  -0.00462   0.00000  -0.00890  -0.00938   1.86340
   A71        1.90016   0.00028   0.00000   0.00503   0.00466   1.90482
   A72        1.92353   0.00108   0.00000   0.00804   0.00743   1.93096
   A73        1.88919  -0.00260   0.00000   0.00317   0.00298   1.89217
   A74        1.88076  -0.00043   0.00000  -0.00996  -0.00977   1.87099
   A75        1.98273   0.01240   0.00000   0.05366   0.05195   2.03468
   A76        1.90169  -0.00603   0.00000  -0.01299  -0.01282   1.88888
   A77        1.92070  -0.00126   0.00000  -0.01421  -0.01346   1.90724
   A78        1.90013  -0.00048   0.00000  -0.00143  -0.00111   1.89902
   A79        1.91512  -0.00744   0.00000  -0.02924  -0.02862   1.88650
   A80        1.83765   0.00204   0.00000   0.00045  -0.00005   1.83760
   A81        1.86086  -0.01130   0.00000  -0.04537  -0.04537   1.81549
   A82        1.97191  -0.01189   0.00000  -0.02841  -0.02786   1.94405
   A83        1.87072   0.00560   0.00000  -0.00626  -0.00705   1.86367
   A84        2.04302   0.02490   0.00000   0.10068   0.10080   2.14383
   A85        1.86142  -0.00784   0.00000  -0.03284  -0.03470   1.82673
   A86        1.84628  -0.00007   0.00000   0.00531   0.00509   1.85136
   A87        1.96036   0.00615   0.00000   0.01984   0.01939   1.97975
   A88        1.91821  -0.00978   0.00000  -0.04764  -0.04746   1.87075
   A89        1.93551   0.00379   0.00000   0.02379   0.02336   1.95888
   A90        1.84122  -0.00007   0.00000  -0.00649  -0.00639   1.83483
   A91        1.93483  -0.00181   0.00000   0.00783   0.00705   1.94188
   A92        1.86918   0.00107   0.00000  -0.00114  -0.00088   1.86829
   A93        1.82396  -0.00550   0.00000  -0.01449  -0.01449   1.80947
   A94        1.66566   0.01272   0.00000   0.04768   0.04768   1.71334
   A95        2.01483   0.03834   0.00000   0.14008   0.13967   2.15451
   A96        1.89866  -0.01320   0.00000  -0.05937  -0.05720   1.84146
   A97        1.91053  -0.01358   0.00000  -0.03611  -0.04040   1.87013
   A98        1.91046  -0.01851   0.00000  -0.07413  -0.07112   1.83934
   A99        1.89631  -0.00308   0.00000   0.00831   0.00613   1.90244
   A100       1.82338   0.00709   0.00000   0.00868   0.00700   1.83038
    D1       -3.08056  -0.00064   0.00000  -0.00501  -0.00501  -3.08557
    D2        1.10931  -0.00033   0.00000  -0.00139  -0.00141   1.10790
    D3       -0.97307   0.00058   0.00000   0.00529   0.00530  -0.96777
    D4        1.08703   0.00050   0.00000   0.00315   0.00315   1.09017
    D5       -1.00629   0.00081   0.00000   0.00676   0.00674  -0.99955
    D6       -3.08867   0.00172   0.00000   0.01345   0.01346  -3.07521
    D7       -0.95855  -0.00113   0.00000  -0.00858  -0.00858  -0.96712
    D8       -3.05186  -0.00082   0.00000  -0.00497  -0.00498  -3.05684
    D9        1.14894   0.00009   0.00000   0.00172   0.00174   1.15067
   D10        3.13817   0.00570   0.00000   0.05844   0.05845  -3.08657
   D11       -1.07010   0.00338   0.00000   0.04604   0.04604  -1.02407
   D12        1.01912   0.00338   0.00000   0.04477   0.04477   1.06388
   D13        1.46353  -0.00568   0.00000  -0.04555  -0.04549   1.41805
   D14       -2.68070  -0.00382   0.00000  -0.04867  -0.04873  -2.72943
   D15       -0.62194   0.00029   0.00000  -0.01680  -0.01680  -0.63875
   D16       -1.87535  -0.00290   0.00000  -0.01792  -0.01818  -1.89352
   D17        2.25862   0.00084   0.00000  -0.01207  -0.01200   2.24661
   D18        0.21044   0.00300   0.00000   0.01200   0.01158   0.22202
   D19        2.31757  -0.00718   0.00000  -0.03322  -0.03387   2.28371
   D20        0.16835  -0.00344   0.00000  -0.02737  -0.02769   0.14066
   D21       -1.87982  -0.00129   0.00000  -0.00330  -0.00411  -1.88393
   D22        0.21219  -0.00398   0.00000  -0.01960  -0.01992   0.19228
   D23       -1.93703  -0.00025   0.00000  -0.01375  -0.01374  -1.95077
   D24        2.29798   0.00191   0.00000   0.01032   0.00984   2.30782
   D25        1.29977   0.01285   0.00000   0.11361   0.11385   1.41362
   D26       -2.82844   0.00557   0.00000   0.06957   0.06864  -2.75979
   D27       -0.84592  -0.00022   0.00000   0.02915   0.02991  -0.81601
   D28       -2.91450   0.01600   0.00000   0.11943   0.11981  -2.79469
   D29       -0.75952   0.00872   0.00000   0.07539   0.07460  -0.68492
   D30        1.22300   0.00293   0.00000   0.03497   0.03587   1.25887
   D31       -0.78634   0.00875   0.00000   0.08279   0.08273  -0.70361
   D32        1.36864   0.00147   0.00000   0.03875   0.03753   1.40617
   D33       -2.93203  -0.00432   0.00000  -0.00166  -0.00120  -2.93324
   D34       -1.60797   0.00147   0.00000   0.00007   0.00099  -1.60697
   D35        2.57067  -0.00219   0.00000  -0.02253  -0.02198   2.54868
   D36        0.54528  -0.00038   0.00000  -0.00639  -0.00619   0.53909
   D37        0.55339   0.00150   0.00000   0.00813   0.00832   0.56171
   D38       -1.55117  -0.00217   0.00000  -0.01446  -0.01466  -1.56582
   D39        2.70663  -0.00035   0.00000   0.00167   0.00114   2.70777
   D40        2.57575   0.00329   0.00000   0.00894   0.00895   2.58470
   D41        0.47120  -0.00037   0.00000  -0.01365  -0.01403   0.45717
   D42       -1.55418   0.00144   0.00000   0.00248   0.00176  -1.55242
   D43        2.07099  -0.00926   0.00000  -0.05250  -0.05304   2.01794
   D44       -0.06688  -0.00615   0.00000  -0.04382  -0.04399  -0.11086
   D45       -2.08279  -0.00456   0.00000  -0.03188  -0.03192  -2.11472
   D46       -2.11639  -0.00279   0.00000  -0.01893  -0.01952  -2.13591
   D47        2.02893   0.00032   0.00000  -0.01025  -0.01046   2.01847
   D48        0.01301   0.00191   0.00000   0.00170   0.00160   0.01461
   D49       -0.08559  -0.00447   0.00000  -0.03428  -0.03442  -0.12001
   D50       -2.22345  -0.00136   0.00000  -0.02561  -0.02537  -2.24882
   D51        2.04381   0.00024   0.00000  -0.01366  -0.01330   2.03051
   D52       -2.65823   0.00004   0.00000  -0.01840  -0.01709  -2.67531
   D53        1.49594   0.00021   0.00000  -0.01854  -0.01794   1.47800
   D54       -0.52797  -0.00131   0.00000  -0.02569  -0.02515  -0.55312
   D55       -0.52141  -0.00022   0.00000  -0.01570  -0.01520  -0.53661
   D56       -2.65044  -0.00004   0.00000  -0.01584  -0.01606  -2.66649
   D57        1.60884  -0.00156   0.00000  -0.02299  -0.02326   1.58558
   D58        1.50063  -0.00337   0.00000  -0.03680  -0.03624   1.46439
[...]
 ! D79   D(8,9,11,12)         -133.4039         calculate D2E/DX2 analytically  !
 ! D80   D(10,9,11,12)         103.3198         calculate D2E/DX2 analytically  !
 ! D81   D(35,9,11,12)         -15.9751         calculate D2E/DX2 analytically  !
 ! D82   D(9,11,12,13)         158.4638         calculate D2E/DX2 analytically  !
 ! D83   D(9,11,12,39)          39.1867         calculate D2E/DX2 analytically  !
 ! D84   D(9,11,12,40)         -79.1477         calculate D2E/DX2 analytically  !
 ! D85   D(11,12,13,14)        -49.2457         calculate D2E/DX2 analytically  !
 ! D86   D(11,12,13,41)       -171.0296         calculate D2E/DX2 analytically  !
 ! D87   D(11,12,13,42)         73.0621         calculate D2E/DX2 analytically  !
 ! D88   D(39,12,13,14)         70.5581         calculate D2E/DX2 analytically  !
 ! D89   D(39,12,13,41)        -51.2259         calculate D2E/DX2 analytically  !
 ! D90   D(39,12,13,42)       -167.1342         calculate D2E/DX2 analytically  !
 ! D91   D(40,12,13,14)       -171.9547         calculate D2E/DX2 analytically  !
 ! D92   D(40,12,13,41)         66.2614         calculate D2E/DX2 analytically  !
 ! D93   D(40,12,13,42)        -49.6469         calculate D2E/DX2 analytically  !
 ! D94   D(12,13,14,15)       -159.1401         calculate D2E/DX2 analytically  !
 ! D95   D(12,13,14,43)         75.4658         calculate D2E/DX2 analytically  !
 ! D96   D(12,13,14,44)        -38.5276         calculate D2E/DX2 analytically  !
 ! D97   D(41,13,14,15)        -39.3757         calculate D2E/DX2 analytically  !
 ! D98   D(41,13,14,43)       -164.7697         calculate D2E/DX2 analytically  !
 ! D99   D(41,13,14,44)         81.2368         calculate D2E/DX2 analytically  !
 ! D100  D(42,13,14,15)         78.539          calculate D2E/DX2 analytically  !
 ! D101  D(42,13,14,43)        -46.855          calculate D2E/DX2 analytically  !
 ! D102  D(42,13,14,44)       -160.8485         calculate D2E/DX2 analytically  !
 ! D103  D(13,14,15,16)       -173.3634         calculate D2E/DX2 analytically  !
 ! D104  D(13,14,15,45)         65.576          calculate D2E/DX2 analytically  !
 ! D105  D(13,14,15,46)        -49.6957         calculate D2E/DX2 analytically  !
 ! D106  D(43,14,15,16)        -49.5335         calculate D2E/DX2 analytically  !
 ! D107  D(43,14,15,45)       -170.594          calculate D2E/DX2 analytically  !
 ! D108  D(43,14,15,46)         74.1343         calculate D2E/DX2 analytically  !
 ! D109  D(44,14,15,16)         65.7582         calculate D2E/DX2 analytically  !
 ! D110  D(44,14,15,45)        -55.3024         calculate D2E/DX2 analytically  !
 ! D111  D(44,14,15,46)       -170.574          calculate D2E/DX2 analytically  !
 ! D112  D(14,15,16,17)         85.8879         calculate D2E/DX2 analytically  !
 ! D113  D(14,15,16,20)        -45.0117         calculate D2E/DX2 analytically  !
 ! D114  D(14,15,16,47)       -161.1697         calculate D2E/DX2 analytically  !
 ! D115  D(45,15,16,17)       -153.0391         calculate D2E/DX2 analytically  !
 ! D116  D(45,15,16,20)         76.0613         calculate D2E/DX2 analytically  !
 ! D117  D(45,15,16,47)        -40.0967         calculate D2E/DX2 analytically  !
 ! D118  D(46,15,16,17)        -38.7137         calculate D2E/DX2 analytically  !
 ! D119  D(46,15,16,20)       -169.6133         calculate D2E/DX2 analytically  !
 ! D120  D(46,15,16,47)         74.2287         calculate D2E/DX2 analytically  !
 ! D121  D(15,16,17,18)        158.6241         calculate D2E/DX2 analytically  !
 ! D122  D(15,16,17,48)         39.8531         calculate D2E/DX2 analytically  !
 ! D123  D(15,16,17,49)        -81.0408         calculate D2E/DX2 analytically  !
 ! D124  D(20,16,17,18)        -70.4727         calculate D2E/DX2 analytically  !
 ! D125  D(20,16,17,48)        170.7562         calculate D2E/DX2 analytically  !
 ! D126  D(20,16,17,49)         49.8623         calculate D2E/DX2 analytically  !
 ! D127  D(47,16,17,18)         45.2708         calculate D2E/DX2 analytically  !
 ! D128  D(47,16,17,48)        -73.5002         calculate D2E/DX2 analytically  !
 ! D129  D(47,16,17,49)        165.6059         calculate D2E/DX2 analytically  !
 ! D130  D(15,16,20,4)          88.8735         calculate D2E/DX2 analytically  !
 ! D131  D(15,16,20,51)        -35.8185         calculate D2E/DX2 analytically  !
 ! D132  D(15,16,20,52)       -150.9587         calculate D2E/DX2 analytically  !
 ! D133  D(17,16,20,4)         -40.3427         calculate D2E/DX2 analytically  !
 ! D134  D(17,16,20,51)       -165.0347         calculate D2E/DX2 analytically  !
 ! D135  D(17,16,20,52)         79.8251         calculate D2E/DX2 analytically  !
 ! D136  D(47,16,20,4)        -155.3371         calculate D2E/DX2 analytically  !
 ! D137  D(47,16,20,51)         79.9709         calculate D2E/DX2 analytically  !
 ! D138  D(47,16,20,52)        -35.1693         calculate D2E/DX2 analytically  !
 ! D139  D(16,17,18,19)        173.893          calculate D2E/DX2 analytically  !
 ! D140  D(48,17,18,19)        -66.8957         calculate D2E/DX2 analytically  !
 ! D141  D(49,17,18,19)         51.6425         calculate D2E/DX2 analytically  !
 ! D142  D(17,18,19,50)        116.8106         calculate D2E/DX2 analytically  !
 --------------------------------------------------------------------------------
 Trust Radius=3.00D-01 FncErr=1.00D-07 GrdErr=1.00D-07 EigMax=2.50D+02 EigMin=1.00D-04
 Number of steps in this run=      2 maximum allowed number of steps=      2.
 GradGradGradGradGradGradGradGradGradGradGradGradGradGradGradGradGradGrad

 Stoichiometry    C16H32O4
 Framework group  C1[X(C16H32O4)]
 Deg. of freedom   150
 Full point group                 C1      NOp   1
 Largest Abelian subgroup         C1      NOp   1
 Largest concise Abelian subgroup C1      NOp   1
                         Standard orientation:                         
 ---------------------------------------------------------------------
 Center     Atomic      Atomic             Coordinates (Angstroms)
 Number     Number       Type             X           Y           Z
 ---------------------------------------------------------------------
      1          6           0        3.653150   -2.516967   -1.255074
      2          6           0        2.245067   -2.221596   -0.761223
      3          8           0        2.340647   -1.300737    0.306131
      4          6           0        1.110415   -0.792458    0.814942
      5          6           0        0.351961   -1.875815    1.638642
      6          6           0       -0.853402   -2.497010    0.898013
      7          6           0       -2.073495   -1.559598    0.898405
      8          6           0       -3.069601   -1.718066   -0.258055
      9          6           0       -3.971575   -0.481018   -0.405670
     10          6           0       -5.060397   -0.659709   -1.462931
     11          8           0       -3.131774    0.623551   -0.754245
     12          6           0       -3.329229    1.832280   -0.043789
     13          6           0       -2.061143    2.688856   -0.140168
     14          6           0       -0.813140    1.865749    0.208939
     15          6           0        0.429932    2.649092    0.635697
     16          6           0        1.718489    1.796293    0.825283
     17          6           0        2.459124    1.620569   -0.507845
     18          8           0        3.805495    1.298953   -0.190787
     19          8           0        4.463057    0.991308   -1.442725
     20          6           0        1.499385    0.470246    1.616796
     21          1           0        3.622223   -3.209675   -2.102124
     22          1           0        4.247092   -2.972976   -0.457371
     23          1           0        4.147611   -1.592601   -1.563894
     24          1           0        1.752319   -3.152732   -0.438398
     25          1           0        1.630154   -1.797395   -1.574314
     26          1           0        0.476743   -0.511764   -0.039030
     27          1           0        0.003292   -1.454754    2.589385
     28          1           0        1.082778   -2.648983    1.899314
     29          1           0       -1.113324   -3.460904    1.351899
     30          1           0       -0.563778   -2.718674   -0.136570
     31          1           0       -1.708124   -0.534939    0.846006
     32          1           0       -2.599444   -1.645688    1.858857
     33          1           0       -3.694163   -2.610966   -0.131320
     34          1           0       -2.524247   -1.844530   -1.202479
     35          1           0       -4.446026   -0.273879    0.566799
     36          1           0       -4.611091   -0.869631   -2.438775
     37          1           0       -5.665394    0.247367   -1.555361
     38          1           0       -5.726780   -1.488973   -1.203674
     39          1           0       -3.530203    1.611309    1.017363
     40          1           0       -4.200963    2.384008   -0.431604
     41          1           0       -2.179353    3.537504    0.546371
     42          1           0       -1.965621    3.111241   -1.147485
     43          1           0       -0.591327    1.218826   -0.643585
     44          1           0       -1.074631    1.197909    1.034530
     45          1           0        0.208559    3.149489    1.587582
     46          1           0        0.642129    3.453209   -0.080907
     47          1           0        2.388737    2.410923    1.440164
     48          1           0        2.432071    2.558312   -1.082393
     49          1           0        2.028465    0.827123   -1.126865
     50          1           0        5.124651    1.696319   -1.471105
     51          1           0        0.747859    0.659130    2.391021
     52          1           0        2.427126    0.216711    2.139209
 ---------------------------------------------------------------------
 Rotational constants (GHZ):           0.4373511           0.1956769           0.1578677
 Standard basis: 6-31G(2df,p) (6D, 7F)
 There are   780 symmetry adapted cartesian basis functions of A   symmetry.
 There are   720 symmetry adapted basis functions of A   symmetry.
   720 basis functions,  1104 primitive gaussians,   780 cartesian basis functions
    80 alpha electrons       80 beta electrons
       nuclear repulsion energy      1790.2550630059 Hartrees.
 NAtoms=   52 NActive=   52 NUniq=   52 SFac= 1.00D+00 NAtFMM=   60 NAOKFM=F Big=F
 Integral buffers will be    131072 words long.
 Raffenetti 2 integral format.
 Two-electron integral symmetry is turned on.
 One-electron integrals computed using PRISM.
 PrsmSu:  requested number of processors reduced to:  11 ShMem   1 Linda.
 NBasis=   720 RedAO= T EigKep=  5.44D-04  NBF=   720
 NBsUse=   720 1.00D-06 EigRej= -1.00D+00 NBFU=   720
 Initial guess from the checkpoint file:  "CCOC1CCCCCqCrOCCCCCqCOOrC1.chk"
 B after Tr=    -0.000000    0.000000    0.000000
         Rot=    1.000000   -0.000000    0.000000   -0.000000 Ang=   0.00 deg.
 Requested convergence on RMS density matrix=1.00D-08 within 128 cycles.
 Requested convergence on MAX density matrix=1.00D-06.
 Requested convergence on             energy=1.00D-06.
 No special actions if energy rises.
 SCF Done:  E(RB3LYP) =  -929.819871593     A.U. after    1 cycles
            NFock=  1  Conv=0.24D-08     -V/T= 2.0078
 DoSCS=F DFT=T ScalE2(SS,OS)=  1.000000  1.000000
 Range of M.O.s used for correlation:     1   720
 NBasis=   720 NAE=    80 NBE=    80 NFC=     0 NFV=     0
 NROrb=    720 NOA=    80 NOB=    80 NVA=   640 NVB=   640

 **** Warning!!: The largest alpha MO coefficient is  0.19393529D+02

 PrsmSu:  requested number of processors reduced to:  10 ShMem   1 Linda.
 PrsmSu:  requested number of processors reduced to:   1 ShMem   1 Linda.
 Symmetrizing basis deriv contribution to polar:
 IMax=3 JMax=2 DiffMx= 0.00D+00
 G2DrvN: will do     1 centers at a time, making   53 passes.
 Estimated number of processors is:   18
 Calling FoFCou, ICntrl=  3107 FMM=F I1Cent=   0 AccDes= 0.00D+00.
 Calling FoFCou, ICntrl=  3107 FMM=F I1Cent=   0 AccDes= 0.00D+00.
 CoulSu:  requested number of processors reduced to:  17 ShMem   1 Linda.
 Calling FoFCou, ICntrl=  3107 FMM=F I1Cent=   0 AccDes= 0.00D+00.
 CoulSu:  requested number of processors reduced to:  17 ShMem   1 Linda.
 Calling FoFCou, ICntrl=  3107 FMM=F I1Cent=   0 AccDes= 0.00D+00.
 CoulSu:  requested number of processors reduced to:  17 ShMem   1 Linda.
 Calling FoFCou, ICntrl=  3107 FMM=F I1Cent=   0 AccDes= 0.00D+00.
 CoulSu:  requested number of processors reduced to:  17 ShMem   1 Linda.
 Calling FoFCou, ICntrl=  3107 FMM=F I1Cent=   0 AccDes= 0.00D+00.
 CoulSu:  requested number of processors reduced to:  17 ShMem   1 Linda.
 Calling FoFCou, ICntrl=  3107 FMM=F I1Cent=   0 AccDes= 0.00D+00.
 CoulSu:  requested number of processors reduced to:  17 ShMem   1 Linda.
 Calling FoFCou, ICntrl=  3107 FMM=F I1Cent=   0 AccDes= 0.00D+00.
 CoulSu:  requested number of processors reduced to:  17 ShMem   1 Linda.
 Calling FoFCou, ICntrl=  3107 FMM=F I1Cent=   0 AccDes= 0.00D+00.
 CoulSu:  requested number of processors reduced to:  17 ShMem   1 Linda.
 Calling FoFCou, ICntrl=  3107 FMM=F I1Cent=   0 AccDes= 0.00D+00.
 CoulSu:  requested number of processors reduced to:  17 ShMem   1 Linda.
 Calling FoFCou, ICntrl=  3107 FMM=F I1Cent=   0 AccDes= 0.00D+00.
 CoulSu:  requested number of processors reduced to:  17 ShMem   1 Linda.
 Calling FoFCou, ICntrl=  3107 FMM=F I1Cent=   0 AccDes= 0.00D+00.
 CoulSu:  requested number of processors reduced to:  17 ShMem   1 Linda.
 Calling FoFCou, ICntrl=  3107 FMM=F I1Cent=   0 AccDes= 0.00D+00.
 CoulSu:  requested number of processors reduced to:  17 ShMem   1 Linda.
 Calling FoFCou, ICntrl=  3107 FMM=F I1Cent=   0 AccDes= 0.00D+00.
 CoulSu:  requested number of processors reduced to:  17 ShMem   1 Linda.
 Calling FoFCou, ICntrl=  3107 FMM=F I1Cent=   0 AccDes= 0.00D+00.
 CoulSu:  requested number of processors reduced to:  17 ShMem   1 Linda.
 Calling FoFCou, ICntrl=  3107 FMM=F I1Cent=   0 AccDes= 0.00D+00.
 CoulSu:  requested number of processors reduced to:  17 ShMem   1 Linda.
 Calling FoFCou, ICntrl=  3107 FMM=F I1Cent=   0 AccDes= 0.00D+00.
 CoulSu:  requested number of processors reduced to:  17 ShMem   1 Linda.
 Calling FoFCou, ICntrl=  3107 FMM=F I1Cent=   0 AccDes= 0.00D+00.
 CoulSu:  requested number of processors reduced to:  17 ShMem   1 Linda.
 Calling FoFCou, ICntrl=  3107 FMM=F I1Cent=   0 AccDes= 0.00D+00.
 CoulSu:  requested number of processors reduced to:  17 ShMem   1 Linda.
 Calling FoFCou, ICntrl=  3107 FMM=F I1Cent=   0 AccDes= 0.00D+00.
 CoulSu:  requested number of processors reduced to:  17 ShMem   1 Linda.
 Calling FoFCou, ICntrl=  3107 FMM=F I1Cent=   0 AccDes= 0.00D+00.
 CoulSu:  requested number of processors reduced to:  17 ShMem   1 Linda.
 Calling FoFCou, ICntrl=  3107 FMM=F I1Cent=   0 AccDes= 0.00D+00.
 CoulSu:  requested number of processors reduced to:  17 ShMem   1 Linda.
 Calling FoFCou, ICntrl=  3107 FMM=F I1Cent=   0 AccDes= 0.00D+00.
 CoulSu:  requested number of processors reduced to:  17 ShMem   1 Linda.
 Calling FoFCou, ICntrl=  3107 FMM=F I1Cent=   0 AccDes= 0.00D+00.
 CoulSu:  requested number of processors reduced to:  17 ShMem   1 Linda.
 Calling FoFCou, ICntrl=  3107 FMM=F I1Cent=   0 AccDes= 0.00D+00.
 CoulSu:  requested number of processors reduced to:  17 ShMem   1 Linda.
 Calling FoFCou, ICntrl=  3107 FMM=F I1Cent=   0 AccDes= 0.00D+00.
 CoulSu:  requested number of processors reduced to:  17 ShMem   1 Linda.
 Calling FoFCou, ICntrl=  3107 FMM=F I1Cent=   0 AccDes= 0.00D+00.
 CoulSu:  requested number of processors reduced to:  17 ShMem   1 Linda.
 Calling FoFCou, ICntrl=  3107 FMM=F I1Cent=   0 AccDes= 0.00D+00.
 CoulSu:  requested number of processors reduced to:  17 ShMem   1 Linda.
 Calling FoFCou, ICntrl=  3107 FMM=F I1Cent=   0 AccDes= 0.00D+00.
 CoulSu:  requested number of processors reduced to:  17 ShMem   1 Linda.
 Calling FoFCou, ICntrl=  3107 FMM=F I1Cent=   0 AccDes= 0.00D+00.
 CoulSu:  requested number of processors reduced to:  17 ShMem   1 Linda.
 Calling FoFCou, ICntrl=  3107 FMM=F I1Cent=   0 AccDes= 0.00D+00.
 CoulSu:  requested number of processors reduced to:  17 ShMem   1 Linda.
 Calling FoFCou, ICntrl=  3107 FMM=F I1Cent=   0 AccDes= 0.00D+00.
 CoulSu:  requested number of processors reduced to:  17 ShMem   1 Linda.
 Calling FoFCou, ICntrl=  3107 FMM=F I1Cent=   0 AccDes= 0.00D+00.
 CoulSu:  requested number of processors reduced to:  17 ShMem   1 Linda.
 Calling FoFCou, ICntrl=  3107 FMM=F I1Cent=   0 AccDes= 0.00D+00.
 CoulSu:  requested number of processors reduced to:  17 ShMem   1 Linda.
 Calling FoFCou, ICntrl=  3107 FMM=F I1Cent=   0 AccDes= 0.00D+00.
 CoulSu:  requested number of processors reduced to:  17 ShMem   1 Linda.
 Calling FoFCou, ICntrl=  3107 FMM=F I1Cent=   0 AccDes= 0.00D+00.
 CoulSu:  requested number of processors reduced to:  17 ShMem   1 Linda.
 Calling FoFCou, ICntrl=  3107 FMM=F I1Cent=   0 AccDes= 0.00D+00.
 CoulSu:  requested number of processors reduced to:  17 ShMem   1 Linda.
 Calling FoFCou, ICntrl=  3107 FMM=F I1Cent=   0 AccDes= 0.00D+00.
 CoulSu:  requested number of processors reduced to:  17 ShMem   1 Linda.
 Calling FoFCou, ICntrl=  3107 FMM=F I1Cent=   0 AccDes= 0.00D+00.
 CoulSu:  requested number of processors reduced to:  17 ShMem   1 Linda.
 Calling FoFCou, ICntrl=  3107 FMM=F I1Cent=   0 AccDes= 0.00D+00.
 CoulSu:  requested number of processors reduced to:  17 ShMem   1 Linda.
 Calling FoFCou, ICntrl=  3107 FMM=F I1Cent=   0 AccDes= 0.00D+00.
 CoulSu:  requested number of processors reduced to:  17 ShMem   1 Linda.
 Calling FoFCou, ICntrl=  3107 FMM=F I1Cent=   0 AccDes= 0.00D+00.
 CoulSu:  requested number of processors reduced to:  17 ShMem   1 Linda.
 Calling FoFCou, ICntrl=  3107 FMM=F I1Cent=   0 AccDes= 0.00D+00.
 CoulSu:  requested number of processors reduced to:  17 ShMem   1 Linda.
 Calling FoFCou, ICntrl=  3107 FMM=F I1Cent=   0 AccDes= 0.00D+00.
 CoulSu:  requested number of processors reduced to:  17 ShMem   1 Linda.
 Calling FoFCou, ICntrl=  3107 FMM=F I1Cent=   0 AccDes= 0.00D+00.
 CoulSu:  requested number of processors reduced to:  17 ShMem   1 Linda.
 Calling FoFCou, ICntrl=  3107 FMM=F I1Cent=   0 AccDes= 0.00D+00.
 CoulSu:  requested number of processors reduced to:  17 ShMem   1 Linda.
 Calling FoFCou, ICntrl=  3107 FMM=F I1Cent=   0 AccDes= 0.00D+00.
 CoulSu:  requested number of processors reduced to:  17 ShMem   1 Linda.
 Calling FoFCou, ICntrl=  3107 FMM=F I1Cent=   0 AccDes= 0.00D+00.
 CoulSu:  requested number of processors reduced to:  17 ShMem   1 Linda.
 Calling FoFCou, ICntrl=  3107 FMM=F I1Cent=   0 AccDes= 0.00D+00.
 CoulSu:  requested number of processors reduced to:  17 ShMem   1 Linda.
 Calling FoFCou, ICntrl=  3107 FMM=F I1Cent=   0 AccDes= 0.00D+00.
 CoulSu:  requested number of processors reduced to:  17 ShMem   1 Linda.
 Calling FoFCou, ICntrl=  3107 FMM=F I1Cent=   0 AccDes= 0.00D+00.
 CoulSu:  requested number of processors reduced to:  17 ShMem   1 Linda.
 Calling FoFCou, ICntrl=  3107 FMM=F I1Cent=   0 AccDes= 0.00D+00.
 CoulSu:  requested number of processors reduced to:  17 ShMem   1 Linda.
 Calling FoFCou, ICntrl=  3107 FMM=F I1Cent=   0 AccDes= 0.00D+00.
 CoulSu:  requested number of processors reduced to:  17 ShMem   1 Linda.
 End of G2Drv F.D. properties file   721 does not exist.
 End of G2Drv F.D. properties file   722 does not exist.
 End of G2Drv F.D. properties file   788 does not exist.
          IDoAtm=11111111111111111111111111111111111111111111111111
          IDoAtm=11
          Differentiating once with respect to electric field.
                with respect to dipole field.
          Differentiating once with respect to nuclear coordinates.
 CalDSu exits because no D1Ps are significant.
slurmstepd: error: *** JOB 27470333 ON lewis4-r630-hpc4-node225 CANCELLED AT 2023-05-23T00:04:20 DUE TO TIME LIMIT ***
