### Starting Gaussian ###
 Entering Gaussian System, Link 0=g16
 Initial command:
 /cluster/software/gaussian/gaussian-16-A.03/avx2/g16/l1.exe "/local/scratch/ks29c/Gau-27049.inp" -scrdir="/local/scratch/ks29c/"
 Entering Link 1 = /cluster/software/gaussian/gaussian-16-A.03/avx2/g16/l1.exe PID=     27050.
  
 Copyright (c) 1988,1990,1992,1993,1995,1998,2003,2009,2016,
            Gaussian, Inc.  All Rights Reserved.
  
 This is part of the Gaussian(R) 16 program.  It is based on
 the Gaussian(R) 09 system (copyright 2009, Gaussian, Inc.),
 the Gaussian(R) 03 system (copyright 2003, Gaussian, Inc.),
 the Gaussian(R) 98 system (copyright 1998, Gaussian, Inc.),
 the Gaussian(R) 94 system (copyright 1995, Gaussian, Inc.),
 the Gaussian 92(TM) system (copyright 1992, Gaussian, Inc.),
 the Gaussian 90(TM) system (copyright 1990, Gaussian, Inc.),
 the Gaussian 88(TM) system (copyright 1988, Gaussian, Inc.),
 the Gaussian 86(TM) system (copyright 1986, Carnegie Mellon
 University), and the Gaussian 82(TM) system (copyright 1983,
 Carnegie Mellon University). Gaussian is a federally registered
 trademark of Gaussian, Inc.
  
 This software contains proprietary and confidential information,
 including trade secrets, belonging to Gaussian, Inc.
  
 This software is provided under written license and may be
 used, copied, transmitted, or stored only in accord with that
 written license.
  
 The following legend is applicable only to US Government
 contracts under FAR:
  
                    RESTRICTED RIGHTS LEGEND
  
 Use, reproduction and disclosure by the US Government is
 subject to restrictions as set forth in subparagraphs (a)
 and (c) of the Commercial Computer Software - Restricted
 Rights clause in FAR 52.227-19.
  
 Gaussian, Inc.
 340 Quinnipiac St., Bldg. 40, Wallingford CT 06492
  
  
 ---------------------------------------------------------------
 Warning -- This program may not be used in any manner that
 competes with the business of Gaussian, Inc. or will provide
 assistance to any competitor of Gaussian, Inc.  The licensee
 of this program is prohibited from giving any competitor of
 Gaussian, Inc. access to this program.  By using this program,
 the user acknowledges that Gaussian, Inc. is engaged in the
 business of creating and licensing software in the field of
 computational chemistry and represents and warrants to the
 licensee that it is not a competitor of Gaussian, Inc. and that
 it will not use this program in any manner prohibited above.
 ---------------------------------------------------------------
  

 Cite this work as:
 Gaussian 16, Revision A.03,
 M. J. Frisch, G. W. Trucks, H. B. Schlegel, G. E. Scuseria, 
 M. A. Robb, J. R. Cheeseman, G. Scalmani, V. Barone, 
 G. A. Petersson, H. Nakatsuji, X. Li, M. Caricato, A. V. Marenich, 
 J. Bloino, B. G. Janesko, R. Gomperts, B. Mennucci, H. P. Hratchian, 
 J. V. Ortiz, A. F. Izmaylov, J. L. Sonnenberg, D. Williams-Young, 
 F. Ding, F. Lipparini, F. Egidi, J. Goings, B. Peng, A. Petrone, 
 T. Henderson, D. Ranasinghe, V. G. Zakrzewski, J. Gao, N. Rega, 
 G. Zheng, W. Liang, M. Hada, M. Ehara, K. Toyota, R. Fukuda, 
 J. Hasegawa, M. Ishida, T. Nakajima, Y. Honda, O. Kitao, H. Nakai, 
 T. Vreven, K. Throssell, J. A. Montgomery, Jr., J. E. Peralta, 
 F. Ogliaro, M. J. Bearpark, J. J. Heyd, E. N. Brothers, K. N. Kudin, 
 V. N. Staroverov, T. A. Keith, R. Kobayashi, J. Normand, 
 K. Raghavachari, A. P. Rendell, J. C. Burant, S. S. Iyengar, 
 J. Tomasi, M. Cossi, J. M. Millam, M. Klene, C. Adamo, R. Cammi, 
 J. W. Ochterski, R. L. Martin, K. Morokuma, O. Farkas, 
 J. B. Foresman, and D. J. Fox, Gaussian, Inc., Wallingford CT, 2016.
 
 ******************************************
 Gaussian 16:  ES64L-G16RevA.03 25-Dec-2016
                27-May-2023 
 ******************************************
 %chk=CCOC1dCNCCdCdCCCCqCrdC1O.chk
 %NProcShared=20
 Will use up to   20 processors via shared memory.
 -----------------------------
 # opt freq b3lyp/6-31g(2df,p)
 -----------------------------
 1/18=20,19=15,26=3,38=1/1,3;
 2/9=110,12=2,17=6,18=5,40=1/2;
 3/5=1,6=6,7=104,11=2,25=1,30=1,71=1,74=-5/1,2,3;
 4//1;
 5/5=2,38=5/2;
 6/7=2,8=2,9=2,10=2,28=1/1;
 7//1,2,3,16;
 1/18=20,19=15,26=3/3(2);
 2/9=110/2;
 99//99;
 2/9=110/2;
 3/5=1,6=6,7=104,11=2,25=1,30=1,71=1,74=-5/1,2,3;
 4/5=5,16=3,69=1/1;
 5/5=2,38=5/2;
 7//1,2,3,16;
 1/18=20,19=15,26=3/3(-5);
 2/9=110/2;
 6/7=2,8=2,9=2,10=2,19=2,28=1/1;
 99/9=1/99;
 -------------------
 Title Card Required
 -------------------
 Symbolic Z-matrix:
 Charge =  0 Multiplicity = 1
 C                     1.1523   -0.05287   0.09154 
 C                     3.04811  -0.26607   0.23511 
 O                     4.59321  -1.48774   0.91401 
 C                     6.2876   -2.37411   1.8431 
 C                     5.16846  -2.95202   1.0397 
 N                     6.37341  -3.33522   0.78726 
 C                     6.81028  -4.50147   1.41607 
 C                     8.31359  -4.78001   0.96177 
 C                     8.74644  -5.87711   1.45415 
 C                     9.61448  -6.63082   1.97654 
 C                     10.75233  -5.54836   2.57965 
 C                     10.57749  -6.92324   3.02619 
 C                     9.80874  -4.82864   2.94673 
 C                     11.4957  -6.59436   3.67619 
 C                     8.33451  -3.42749   2.37965 
 O                     7.69685  -1.68158   1.35369 
 H                     0.74672   0.96734  -0.25922 
 H                     0.71966  -0.1964    1.06737 
 H                     0.72499  -0.75803  -0.61888 
 H                     3.02373   0.74727   0.76102 
 H                     3.03803   0.16484  -0.91181 
 H                     4.25367  -3.55461   1.25878 
 H                     7.20159  -2.5003    0.48766 
 H                     6.41555  -5.15117   0.76568 
 H                     6.49155  -4.53659   2.49504 
 H                     9.1669   -3.73283   0.86623 
 H                     9.33409  -7.63189   1.93232 
 H                     10.61838  -5.57203   4.13098 
 H                     11.83935  -5.69468   2.30435 
 H                     11.56872  -7.97443   2.367 
 H                     10.6728  -8.1609    3.86899 
 H                     12.8783  -7.30654   4.21505 
 H                     12.53985  -7.88646   3.48286 
 H                     12.09054  -7.93024   4.43162 
 H                     6.77059  -0.69125   0.7071 
 
 Add virtual bond connecting atoms H33        and H32        Dist= 1.88D+00.
 Add virtual bond connecting atoms H34        and H32        Dist= 1.94D+00.
 Add virtual bond connecting atoms H34        and H33        Dist= 1.99D+00.
 Add virtual bond connecting atoms H23        and N6         Dist= 2.29D+00.
 Add virtual bond connecting atoms H23        and O16        Dist= 2.44D+00.
 Add virtual bond connecting atoms H26        and C8         Dist= 2.56D+00.
 Add virtual bond connecting atoms H28        and C11        Dist= 2.94D+00.
 Add virtual bond connecting atoms H28        and C14        Dist= 2.69D+00.
 Add virtual bond connecting atoms H33        and H30        Dist= 2.80D+00.
 Add virtual bond connecting atoms H31        and C12        Dist= 2.84D+00.
 Add virtual bond connecting atoms H35        and O16        Dist= 2.84D+00.
 Add virtual bond connecting atoms H30        and C12        Dist= 3.00D+00.
 Add virtual bond connecting atoms H32        and C14        Dist= 3.11D+00.
 Add virtual bond connecting atoms H33        and C14        Dist= 3.16D+00.
 Add virtual bond connecting atoms H34        and C14        Dist= 3.11D+00.
 Add virtual bond connecting atoms H34        and H31        Dist= 2.92D+00.
 Add virtual bond connecting atoms H26        and C15        Dist= 3.31D+00.
 Add virtual bond connecting atoms C2         and C1         Dist= 3.62D+00.
 Add virtual bond connecting atoms O3         and C2         Dist= 3.94D+00.

 GradGradGradGradGradGradGradGradGradGradGradGradGradGradGradGradGradGrad
 Berny optimization.
 Initialization pass.
                           ----------------------------
                           !    Initial Parameters    !
                           ! (Angstroms and Degrees)  !
 --------------------------                            --------------------------
 ! Name  Definition              Value          Derivative Info.                !
 --------------------------------------------------------------------------------
 ! R1    R(1,2)                  1.9132         estimate D2E/DX2                !
 ! R2    R(1,17)                 1.1525         estimate D2E/DX2                !
 ! R3    R(1,18)                 1.077          estimate D2E/DX2                !
 ! R4    R(1,19)                 1.0884         estimate D2E/DX2                !
 ! R5    R(2,3)                  2.0834         estimate D2E/DX2                !
 ! R6    R(2,20)                 1.1419         estimate D2E/DX2                !
 ! R7    R(2,21)                 1.2252         estimate D2E/DX2                !
 ! R8    R(3,5)                  1.5782         estimate D2E/DX2                !
 ! R9    R(4,5)                  1.494          estimate D2E/DX2                !
 ! R10   R(4,6)                  1.4303         estimate D2E/DX2                !
 ! R11   R(4,16)                 1.6447         estimate D2E/DX2                !
 ! R12   R(5,6)                  1.2894         estimate D2E/DX2                !
 ! R13   R(5,22)                 1.1171         estimate D2E/DX2                !
 ! R14   R(6,7)                  1.3951         estimate D2E/DX2                !
 ! R15   R(6,23)                 1.2136         estimate D2E/DX2                !
 ! R16   R(7,8)                  1.595          estimate D2E/DX2                !
 ! R17   R(7,24)                 1.0005         estimate D2E/DX2                !
 ! R18   R(7,25)                 1.1256         estimate D2E/DX2                !
 ! R19   R(8,9)                  1.2781         estimate D2E/DX2                !
 ! R20   R(8,26)                 1.3542         estimate D2E/DX2                !
 ! R21   R(9,10)                 1.2627         estimate D2E/DX2                !
 ! R22   R(10,11)                1.6823         estimate D2E/DX2                !
 ! R23   R(10,12)                1.4542         estimate D2E/DX2                !
 ! R24   R(10,27)                1.0405         estimate D2E/DX2                !
 ! R25   R(11,12)                1.4561         estimate D2E/DX2                !
 ! R26   R(11,13)                1.2422         estimate D2E/DX2                !
 ! R27   R(11,14)                1.6879         estimate D2E/DX2                !
 ! R28   R(11,28)                1.5573         estimate D2E/DX2                !
 ! R29   R(11,29)                1.1308         estimate D2E/DX2                !
 ! R30   R(12,14)                1.1721         estimate D2E/DX2                !
 ! R31   R(12,30)                1.5881         estimate D2E/DX2                !
 ! R32   R(12,31)                1.5004         estimate D2E/DX2                !
 ! R33   R(14,28)                1.4219         estimate D2E/DX2                !
 ! R34   R(14,32)                1.646          estimate D2E/DX2                !
 ! R35   R(14,33)                1.6725         estimate D2E/DX2                !
 ! R36   R(14,34)                1.6459         estimate D2E/DX2                !
 ! R37   R(15,26)                1.754          estimate D2E/DX2                !
 ! R38   R(16,23)                1.2906         estimate D2E/DX2                !
 ! R39   R(16,35)                1.5023         estimate D2E/DX2                !
 ! R40   R(30,33)                1.4819         estimate D2E/DX2                !
 ! R41   R(31,34)                1.5426         estimate D2E/DX2                !
 ! R42   R(32,33)                0.9935         estimate D2E/DX2                !
 ! R43   R(32,34)                1.0278         estimate D2E/DX2                !
 ! R44   R(33,34)                1.0507         estimate D2E/DX2                !
 ! A1    A(2,1,17)             118.0467         estimate D2E/DX2                !
 ! A2    A(2,1,18)             108.3734         estimate D2E/DX2                !
 ! A3    A(2,1,19)             111.4592         estimate D2E/DX2                !
 ! A4    A(17,1,18)            104.6162         estimate D2E/DX2                !
 ! A5    A(17,1,19)            103.6919         estimate D2E/DX2                !
 ! A6    A(18,1,19)            110.3251         estimate D2E/DX2                !
 ! A7    A(1,2,3)              145.5566         estimate D2E/DX2                !
 ! A8    A(1,2,20)              85.0961         estimate D2E/DX2                !
 ! A9    A(1,2,21)              83.2469         estimate D2E/DX2                !
 ! A10   A(3,2,20)             112.712          estimate D2E/DX2                !
 ! A11   A(3,2,21)             121.1548         estimate D2E/DX2                !
 ! A12   A(20,2,21)             96.825          estimate D2E/DX2                !
 ! A13   A(2,3,5)              147.1711         estimate D2E/DX2                !
 ! A14   A(5,4,16)             130.1449         estimate D2E/DX2                !
 ! A15   A(6,4,16)              90.6803         estimate D2E/DX2                !
 ! A16   A(3,5,4)               87.5338         estimate D2E/DX2                !
 ! A17   A(3,5,6)              126.9253         estimate D2E/DX2                !
 ! A18   A(3,5,22)             102.5687         estimate D2E/DX2                !
 ! A19   A(4,5,22)             135.7775         estimate D2E/DX2                !
 ! A20   A(6,5,22)             130.0422         estimate D2E/DX2                !
 ! A21   A(4,6,7)              104.3464         estimate D2E/DX2                !
 ! A22   A(4,6,23)              76.1659         estimate D2E/DX2                !
 ! A23   A(5,6,7)              116.9257         estimate D2E/DX2                !
 ! A24   A(5,6,23)             118.7913         estimate D2E/DX2                !
 ! A25   A(7,6,23)             118.2093         estimate D2E/DX2                !
 ! A26   A(6,7,8)              108.2251         estimate D2E/DX2                !
 ! A27   A(6,7,24)              97.2562         estimate D2E/DX2                !
 ! A28   A(6,7,25)             111.682          estimate D2E/DX2                !
 ! A29   A(8,7,24)              94.2034         estimate D2E/DX2                !
 ! A30   A(8,7,25)             122.3082         estimate D2E/DX2                !
 ! A31   A(24,7,25)            119.4174         estimate D2E/DX2                !
 ! A32   A(7,8,9)              111.0629         estimate D2E/DX2                !
 ! A33   A(7,8,26)             118.6177         estimate D2E/DX2                !
 ! A34   A(9,8,26)             118.5268         estimate D2E/DX2                !
 ! A35   A(8,9,10)             154.7672         estimate D2E/DX2                !
 ! A36   A(9,10,11)            103.2503         estimate D2E/DX2                !
 ! A37   A(9,10,12)            150.9134         estimate D2E/DX2                !
 ! A38   A(9,10,27)            111.804          estimate D2E/DX2                !
 ! A39   A(11,10,27)           144.7384         estimate D2E/DX2                !
 ! A40   A(12,10,27)            90.8975         estimate D2E/DX2                !
 ! A41   A(10,11,13)            87.9925         estimate D2E/DX2                !
 ! A42   A(10,11,14)            97.5871         estimate D2E/DX2                !
 ! A43   A(10,11,28)           106.8085         estimate D2E/DX2                !
 ! A44   A(10,11,29)           118.6606         estimate D2E/DX2                !
 ! A45   A(12,11,13)           111.4219         estimate D2E/DX2                !
 ! A46   A(12,11,28)            70.7207         estimate D2E/DX2                !
 ! A47   A(12,11,29)            93.8937         estimate D2E/DX2                !
 ! A48   A(13,11,14)           120.1059         estimate D2E/DX2                !
 ! A49   A(13,11,28)            69.4573         estimate D2E/DX2                !
 ! A50   A(13,11,29)           151.2907         estimate D2E/DX2                !
 ! A51   A(14,11,29)            69.7959         estimate D2E/DX2                !
 ! A52   A(28,11,29)           108.8584         estimate D2E/DX2                !
 ! A53   A(10,12,14)           149.6171         estimate D2E/DX2                !
 ! A54   A(10,12,30)           104.2901         estimate D2E/DX2                !
 ! A55   A(10,12,31)           127.8355         estimate D2E/DX2                !
 ! A56   A(11,12,30)           115.0086         estimate D2E/DX2                !
 ! A57   A(11,12,31)           160.6481         estimate D2E/DX2                !
 ! A58   A(14,12,30)            85.811          estimate D2E/DX2                !
 ! A59   A(14,12,31)            82.541          estimate D2E/DX2                !
 ! A60   A(30,12,31)            69.3599         estimate D2E/DX2                !
 ! A61   A(11,14,32)           148.2936         estimate D2E/DX2                !
 ! A62   A(11,14,33)           132.7353         estimate D2E/DX2                !
 ! A63   A(11,14,34)           163.7979         estimate D2E/DX2                !
 ! A64   A(12,14,28)            84.0164         estimate D2E/DX2                !
 ! A65   A(12,14,32)           135.9066         estimate D2E/DX2                !
 ! A66   A(12,14,33)           102.0172         estimate D2E/DX2                !
 ! A67   A(12,14,34)           108.054          estimate D2E/DX2                !
 ! A68   A(28,14,32)           136.443          estimate D2E/DX2                !
 ! A69   A(28,14,34)           131.2813         estimate D2E/DX2                !
 ! A70   A(4,16,23)             66.6562         estimate D2E/DX2                !
 ! A71   A(4,16,35)             82.9548         estimate D2E/DX2                !
 ! A72   A(23,16,35)            83.8441         estimate D2E/DX2                !
 ! A73   A(6,23,16)            122.1861         estimate D2E/DX2                !
 ! A74   A(8,26,15)             76.9799         estimate D2E/DX2                !
 ! A75   A(12,30,33)            93.2782         estimate D2E/DX2                !
 ! A76   A(12,31,34)            98.0426         estimate D2E/DX2                !
 ! A77   A(14,33,30)            73.9646         estimate D2E/DX2                !
 ! A78   A(30,33,32)           144.3786         estimate D2E/DX2                !
 ! A79   A(30,33,34)           113.4055         estimate D2E/DX2                !
 ! A80   A(14,34,31)            67.7792         estimate D2E/DX2                !
 ! A81   A(31,34,32)           135.91           estimate D2E/DX2                !
 ! A82   A(31,34,33)            94.0085         estimate D2E/DX2                !
 ! A83   L(28,14,33,12,-1)     186.0336         estimate D2E/DX2                !
 ! A84   L(28,14,33,12,-2)     190.6584         estimate D2E/DX2                !
 ! D1    D(17,1,2,3)           169.8945         estimate D2E/DX2                !
 ! D2    D(17,1,2,20)           45.8351         estimate D2E/DX2                !
 ! D3    D(17,1,2,21)          -51.65           estimate D2E/DX2                !
 ! D4    D(18,1,2,3)            51.3248         estimate D2E/DX2                !
 ! D5    D(18,1,2,20)          -72.7346         estimate D2E/DX2                !
 ! D6    D(18,1,2,21)         -170.2197         estimate D2E/DX2                !
 ! D7    D(19,1,2,3)           -70.2645         estimate D2E/DX2                !
 ! D8    D(19,1,2,20)          165.6761         estimate D2E/DX2                !
 ! D9    D(19,1,2,21)           68.191          estimate D2E/DX2                !
 ! D10   D(1,2,3,5)             43.4986         estimate D2E/DX2                !
 ! D11   D(20,2,3,5)           160.0144         estimate D2E/DX2                !
 ! D12   D(21,2,3,5)           -86.1837         estimate D2E/DX2                !
 ! D13   D(2,3,5,4)           -175.7128         estimate D2E/DX2                !
 ! D14   D(2,3,5,6)            133.5682         estimate D2E/DX2                !
 ! D15   D(2,3,5,22)           -39.2181         estimate D2E/DX2                !
 ! D16   D(16,4,5,3)           -84.4163         estimate D2E/DX2                !
 ! D17   D(16,4,5,22)          170.0358         estimate D2E/DX2                !
 ! D18   D(16,4,6,7)           102.8138         estimate D2E/DX2                !
 ! D19   D(16,4,6,23)          -13.2584         estimate D2E/DX2                !
 ! D20   D(5,4,16,23)          -24.5759         estimate D2E/DX2                !
 ! D21   D(5,4,16,35)           61.7348         estimate D2E/DX2                !
 ! D22   D(6,4,16,23)           13.1835         estimate D2E/DX2                !
 ! D23   D(6,4,16,35)           99.4942         estimate D2E/DX2                !
 ! D24   D(3,5,6,7)            156.4841         estimate D2E/DX2                !
 ! D25   D(3,5,6,23)             4.3472         estimate D2E/DX2                !
 ! D26   D(22,5,6,7)           -32.728          estimate D2E/DX2                !
 ! D27   D(22,5,6,23)          175.1352         estimate D2E/DX2                !
 ! D28   D(4,6,7,8)           -109.4655         estimate D2E/DX2                !
 ! D29   D(4,6,7,24)           153.6587         estimate D2E/DX2                !
 ! D30   D(4,6,7,25)            27.9648         estimate D2E/DX2                !
 ! D31   D(5,6,7,8)           -179.9835         estimate D2E/DX2                !
 ! D32   D(5,6,7,24)            83.1407         estimate D2E/DX2                !
 ! D33   D(5,6,7,25)           -42.5532         estimate D2E/DX2                !
 ! D34   D(23,6,7,8)           -27.6802         estimate D2E/DX2                !
 ! D35   D(23,6,7,24)         -124.556          estimate D2E/DX2                !
 ! D36   D(23,6,7,25)          109.7501         estimate D2E/DX2                !
 ! D37   D(4,6,23,16)           20.2016         estimate D2E/DX2                !
 ! D38   D(5,6,23,16)           72.9203         estimate D2E/DX2                !
 ! D39   D(7,6,23,16)          -78.8595         estimate D2E/DX2                !
 ! D40   D(6,7,8,9)           -176.672          estimate D2E/DX2                !
 ! D41   D(6,7,8,26)            40.8506         estimate D2E/DX2                !
 ! D42   D(24,7,8,9)           -77.6082         estimate D2E/DX2                !
 ! D43   D(24,7,8,26)          139.9145         estimate D2E/DX2                !
 ! D44   D(25,7,8,9)            51.3816         estimate D2E/DX2                !
 ! D45   D(25,7,8,26)          -91.0958         estimate D2E/DX2                !
 ! D46   D(7,8,9,10)          -141.0172         estimate D2E/DX2                !
 ! D47   D(26,8,9,10)            1.4982         estimate D2E/DX2                !
 ! D48   D(7,8,26,15)           43.9687         estimate D2E/DX2                !
 ! D49   D(9,8,26,15)          -95.7215         estimate D2E/DX2                !
 ! D50   D(8,9,10,11)           18.9388         estimate D2E/DX2                !
 ! D51   D(8,9,10,12)           56.1222         estimate D2E/DX2                !
 ! D52   D(8,9,10,27)         -164.9529         estimate D2E/DX2                !
 ! D53   D(9,10,11,13)          40.6793         estimate D2E/DX2                !
 ! D54   D(9,10,11,14)         160.79           estimate D2E/DX2                !
 ! D55   D(9,10,11,28)         108.5079         estimate D2E/DX2                !
 ! D56   D(9,10,11,29)        -128.1308         estimate D2E/DX2                !
 ! D57   D(27,10,11,13)       -133.0542         estimate D2E/DX2                !
 ! D58   D(27,10,11,14)        -12.9435         estimate D2E/DX2                !
 ! D59   D(27,10,11,28)        -65.2256         estimate D2E/DX2                !
 ! D60   D(27,10,11,29)         58.1357         estimate D2E/DX2                !
 ! D61   D(9,10,12,14)         -51.4017         estimate D2E/DX2                !
 ! D62   D(9,10,12,30)        -157.985          estimate D2E/DX2                !
 ! D63   D(9,10,12,31)         127.2481         estimate D2E/DX2                !
 ! D64   D(27,10,12,14)        166.1963         estimate D2E/DX2                !
 ! D65   D(27,10,12,30)         59.613          estimate D2E/DX2                !
 ! D66   D(27,10,12,31)        -15.1538         estimate D2E/DX2                !
 ! D67   D(13,11,12,30)        168.2199         estimate D2E/DX2                !
 ! D68   D(13,11,12,31)        -92.8971         estimate D2E/DX2                !
 ! D69   D(28,11,12,30)       -134.231          estimate D2E/DX2                !
 ! D70   D(28,11,12,31)        -35.3479         estimate D2E/DX2                !
 ! D71   D(29,11,12,30)        -25.6032         estimate D2E/DX2                !
 ! D72   D(29,11,12,31)         73.2799         estimate D2E/DX2                !
 ! D73   D(10,11,14,32)        124.4601         estimate D2E/DX2                !
 ! D74   D(10,11,14,33)         73.5742         estimate D2E/DX2                !
 ! D75   D(10,11,14,34)         29.787          estimate D2E/DX2                !
 ! D76   D(13,11,14,32)       -143.455          estimate D2E/DX2                !
 ! D77   D(13,11,14,33)        165.6592         estimate D2E/DX2                !
 ! D78   D(13,11,14,34)        121.8719         estimate D2E/DX2                !
 ! D79   D(29,11,14,32)          6.6487         estimate D2E/DX2                !
 ! D80   D(29,11,14,33)        -44.2371         estimate D2E/DX2                !
 ! D81   D(29,11,14,34)        -88.0243         estimate D2E/DX2                !
 ! D82   D(10,12,14,28)         62.4841         estimate D2E/DX2                !
 ! D83   D(10,12,14,32)       -137.6326         estimate D2E/DX2                !
 ! D84   D(10,12,14,33)       -128.1743         estimate D2E/DX2                !
 ! D85   D(10,12,14,34)       -165.9442         estimate D2E/DX2                !
 ! D86   D(30,12,14,28)        173.8553         estimate D2E/DX2                !
 ! D87   D(30,12,14,32)        -26.2613         estimate D2E/DX2                !
 ! D88   D(30,12,14,33)        -16.8031         estimate D2E/DX2                !
 ! D89   D(30,12,14,34)        -54.573          estimate D2E/DX2                !
 ! D90   D(31,12,14,28)       -116.4405         estimate D2E/DX2                !
 ! D91   D(31,12,14,32)         43.4428         estimate D2E/DX2                !
 ! D92   D(31,12,14,33)         52.9011         estimate D2E/DX2                !
 ! D93   D(31,12,14,34)         15.1311         estimate D2E/DX2                !
 ! D94   D(10,12,30,33)        169.5604         estimate D2E/DX2                !
 ! D95   D(11,12,30,33)         94.5647         estimate D2E/DX2                !
 ! D96   D(14,12,30,33)         18.6409         estimate D2E/DX2                !
 ! D97   D(31,12,30,33)        -64.9572         estimate D2E/DX2                !
 ! D98   D(10,12,31,34)        165.1776         estimate D2E/DX2                !
 ! D99   D(11,12,31,34)        -34.1013         estimate D2E/DX2                !
 ! D100  D(14,12,31,34)        -15.5111         estimate D2E/DX2                !
 ! D101  D(30,12,31,34)         72.8037         estimate D2E/DX2                !
 ! D102  D(11,14,33,30)        -38.3577         estimate D2E/DX2                !
 ! D103  D(12,14,33,30)         18.7528         estimate D2E/DX2                !
 ! D104  D(11,14,34,31)        -43.9825         estimate D2E/DX2                !
 ! D105  D(12,14,34,31)        -15.7791         estimate D2E/DX2                !
 ! D106  D(28,14,34,31)         82.2846         estimate D2E/DX2                !
 ! D107  D(4,16,23,6)          -18.5179         estimate D2E/DX2                !
 ! D108  D(35,16,23,6)        -103.48           estimate D2E/DX2                !
 ! D109  D(12,30,33,14)        -13.4413         estimate D2E/DX2                !
 ! D110  D(12,30,33,32)        -25.1959         estimate D2E/DX2                !
 ! D111  D(12,30,33,34)         45.9648         estimate D2E/DX2                !
 ! D112  D(12,31,34,14)         11.7693         estimate D2E/DX2                !
 ! D113  D(12,31,34,32)        -13.2143         estimate D2E/DX2                !
 ! D114  D(12,31,34,33)        -57.946          estimate D2E/DX2                !
 ! D115  D(14,32,33,34)        -77.4293         estimate D2E/DX2                !
 ! D116  D(30,33,34,31)          3.7095         estimate D2E/DX2                !
 --------------------------------------------------------------------------------
 Trust Radius=3.00D-01 FncErr=1.00D-07 GrdErr=1.00D-06 EigMax=2.50D+02 EigMin=1.00D-04
 Number of steps in this run=    210 maximum allowed number of steps=    210.
 GradGradGradGradGradGradGradGradGradGradGradGradGradGradGradGradGradGrad

                          Input orientation:                          
 ---------------------------------------------------------------------
 Center     Atomic      Atomic             Coordinates (Angstroms)
 Number     Number       Type             X           Y           Z
 ---------------------------------------------------------------------
      1          6           0        1.152300   -0.052870    0.091540
      2          6           0        3.048110   -0.266070    0.235110
      3          8           0        4.593210   -1.487740    0.914010
      4          6           0        6.287600   -2.374110    1.843100
      5          6           0        5.168460   -2.952020    1.039700
      6          7           0        6.373410   -3.335220    0.787260
      7          6           0        6.810280   -4.501470    1.416070
      8          6           0        8.313590   -4.780010    0.961770
      9          6           0        8.746440   -5.877110    1.454150
     10          6           0        9.614480   -6.630820    1.976540
     11          6           0       10.752330   -5.548360    2.579650
     12          6           0       10.577490   -6.923240    3.026190
     13          6           0        9.808740   -4.828640    2.946730
     14          6           0       11.495700   -6.594360    3.676190
     15          6           0        8.334510   -3.427490    2.379650
     16          8           0        7.696850   -1.681580    1.353690
     17          1           0        0.746720    0.967340   -0.259220
     18          1           0        0.719660   -0.196400    1.067370
     19          1           0        0.724990   -0.758030   -0.618880
     20          1           0        3.023730    0.747270    0.761020
     21          1           0        3.038030    0.164840   -0.911810
     22          1           0        4.253670   -3.554610    1.258780
     23          1           0        7.201590   -2.500300    0.487660
     24          1           0        6.415550   -5.151170    0.765680
     25          1           0        6.491550   -4.536590    2.495040
     26          1           0        9.166900   -3.732830    0.866230
     27          1           0        9.334090   -7.631890    1.932320
     28          1           0       10.618380   -5.572030    4.130980
     29          1           0       11.839350   -5.694680    2.304350
     30          1           0       11.568720   -7.974430    2.367000
     31          1           0       10.672800   -8.160900    3.868990
     32          1           0       12.878300   -7.306540    4.215050
     33          1           0       12.539850   -7.886460    3.482860
     34          1           0       12.090540   -7.930240    4.431620
     35          1           0        6.770590   -0.691250    0.707100
 ---------------------------------------------------------------------
                    Distance matrix (angstroms):
                    1          2          3          4          5
     1  C    0.000000
     2  C    1.913155   0.000000
     3  O    3.817744   2.083439   0.000000
     4  C    5.901476   4.186139   2.125986   0.000000
     5  C    5.043176   3.515334   1.578235   1.493956   0.000000
     6  N    6.206274   4.558747   2.568727   1.430347   1.289369
     7  C    7.318276   5.786813   3.774921   2.231862   2.288673
     8  C    8.624803   6.973447   4.968154   3.266456   3.638607
     9  C    9.666925   8.089548   6.066930   4.297463   4.640028
    10  C   10.882607   9.309126   7.265906   5.404213   5.846224
    11  C   11.338063   9.630912   7.562919   5.527403   6.347600
    12  C   12.026985  10.430705   8.355691   6.363760   6.998167
    13  C   10.290483   8.595118   6.518843   4.431833   5.356367
    14  C   12.752519  11.101804   9.019511   6.949463   7.762196
    15  C    8.258792   6.522243   4.461845   2.363755   3.470650
    16  O    6.861257   4.986549   3.140617   1.644720   2.846992
    17  H    1.152543   2.657453   4.711621   6.803410   6.049823
    18  H    1.077043   2.473700   4.086009   6.028775   5.233166
    19  H    1.088366   2.523531   4.224376   6.294100   5.225792
    20  H    2.142587   1.141943   2.735314   4.644002   4.285123
    21  H    2.147111   1.225239   2.912597   4.959385   4.249934
    22  H    4.821113   3.649078   2.122759   2.423197   1.117117
    23  H    6.537640   4.723025   2.830318   1.639670   2.154627
    24  H    7.358596   5.956959   4.094343   2.981487   2.542947
    25  H    7.374832   5.933119   3.924135   2.267805   2.525756
    26  H    8.853026   7.060901   5.095228   3.330280   4.077656
    27  H   11.303615   9.831041   7.827099   6.077278   6.328541
    28  H   11.678393  10.031949   7.958203   5.849508   6.791325
    29  H   12.285747  10.537431   8.493405   6.485435   7.322725
    30  H   13.282719  11.686084   9.635666   7.715457   8.243158
    31  H   13.063277  11.561545   9.498652   7.537980   8.089195
    32  H   14.391600  12.729524  10.648850   8.566933   9.406717
    33  H   14.231742  12.598069  10.521012   8.495025   9.200822
    34  H   14.161015  12.574408  10.492347   8.440683   9.176219
    35  H    5.687849   3.776296   2.327701   2.087054   2.790793
                    6          7          8          9         10
     6  N    0.000000
     7  C    1.395133   0.000000
     8  C    2.425319   1.594965   0.000000
     9  C    3.540793   2.375405   1.278055   0.000000
    10  C    4.772829   3.565361   2.479429   1.262721   0.000000
    11  C    5.223561   4.241421   3.025781   2.323450   1.682309
    12  C    5.963303   4.759131   3.739052   2.630293   1.454188
    13  C    4.323784   3.382414   2.485539   2.110821   2.055932
    14  C    6.723523   5.607271   4.559141   3.606985   2.535573
    15  C    2.527871   2.098856   1.959625   2.650825   3.473060
    16  O    2.192456   2.956633   3.183432   4.325992   5.344177
    17  H    7.160083   8.335541   9.580207  10.666661  11.889820
    18  H    6.472677   7.466651   8.870649   9.841202  11.015724
    19  H    6.365830   7.428669   8.732790   9.738896  10.965806
    20  H    5.280887   6.505100   7.653349   8.781358   9.967532
    21  H    5.124648   6.436097   7.469496   8.642272   9.888036
    22  H    2.182604   2.730849   4.251208   5.061340   6.222261
    23  H    1.213562   2.240480   2.580388   3.837123   5.009990
    24  H    1.816567   1.000464   1.943905   2.536539   3.726755
    25  H    2.091354   1.125610   2.393742   2.822229   3.795699
    26  H    2.822750   2.539053   1.354198   2.262824   3.135516
    27  H    5.342112   4.054092   3.180661   1.911343   1.040536
    28  H    5.848380   4.797756   3.997905   3.280648   2.602011
    29  H    6.143705   5.244458   3.882026   3.212820   2.435952
    30  H    7.142065   5.967283   4.772302   3.632810   2.403498
    31  H    7.160238   5.858951   5.044623   3.841616   2.653781
    32  H    8.356717   7.247315   6.148476   5.170890   4.014978
    33  H    8.124348   6.968339   5.819553   4.747959   3.521849
    34  H    8.190308   6.980770   6.019066   4.925817   3.721127
    35  H    2.674837   3.875821   4.377632   5.599572   6.706540
                   11         12         13         14         15
    11  C    0.000000
    12  C    1.456112   0.000000
    13  C    1.242218   2.232631   0.000000
    14  C    1.687932   1.172080   2.548669   0.000000
    15  C    3.222413   4.203480   2.111434   4.658670   0.000000
    16  O    5.078476   6.210503   4.111185   6.630285   2.123065
    17  H   12.272969  13.026865  11.224603  13.718868   9.157113
    18  H   11.471048  12.093972  10.373091  12.800893   8.375438
    19  H   11.563970  12.180645  10.573455  12.981470   8.603604
    20  H   10.132800  11.001228   9.050108  11.583265   6.946436
    21  H   10.214762  11.072135   9.255576  11.758772   7.196613
    22  H    6.924761   7.379845   5.944000   8.217722   4.233883
    23  H    5.125900   6.115818   4.273807   6.735535   2.392241
    24  H    4.717617   5.056865   4.046572   6.030074   3.042759
    25  H    4.380078   4.761630   3.360516   5.538145   2.154047
    26  H    2.957287   4.102914   2.437466   4.637622   1.754008
    27  H    2.602218   1.801327   3.018697   2.964812   4.344680
    28  H    1.557282   1.745853   1.615733   1.421859   3.589188
    29  H    1.130846   1.903340   2.299142   1.676146   4.174892
    30  H    2.568565   1.588102   3.650974   1.903655   5.579869
    31  H    2.914462   1.500399   3.563863   1.779995   5.485518
    32  H    3.207098   2.618021   4.143769   1.645951   6.249940
    33  H    3.078592   2.233203   4.134811   1.672468   6.227710
    34  H    3.300599   2.297521   4.126916   1.645930   6.212334
    35  H    6.553794   7.662138   5.600383   8.123353   3.567952
                   16         17         18         19         20
    16  O    0.000000
    17  H    7.610687   0.000000
    18  H    7.139252   1.764898   0.000000
    19  H    7.304164   1.762592   1.777328   0.000000
    20  H    5.299870   2.504814   2.508606   3.074778   0.000000
    21  H    5.499669   2.513957   3.069607   2.507519   1.771381
    22  H    3.920808   5.920393   4.878877   4.878324   4.501854
    23  H    1.290579   7.365304   6.903581   6.797520   5.298674
    24  H    3.745069   8.403703   7.555390   7.321145   6.804121
    25  H    3.302501   8.419161   7.361400   7.564868   6.553761
    26  H    2.570271   9.708639   9.159839   9.073083   7.604006
    27  H    6.198512  12.348786  11.412408  11.308191  10.554758
    28  H    5.602167  12.628812  11.673378  11.983945  10.438817
    29  H    5.845428  13.190938  12.466303  12.507789  11.027046
    30  H    7.457757  14.281735  13.412266  13.363323  12.315197
    31  H    7.560727  14.102977  13.051718  13.187205  12.145915
    32  H    8.165475  15.350942  14.432412  14.627126  13.187370
    33  H    8.154051  15.214166  14.306939  14.395475  13.134163
    34  H    8.235528  15.160909  14.157237  14.357015  13.075914
    35  H    1.502262   6.322318   6.081811   6.189666   4.013877
                   21         22         23         24         25
    21  H    0.000000
    22  H    4.474768   0.000000
    23  H    5.137774   3.224349   0.000000
    24  H    6.517789   2.732376   2.778897   0.000000
    25  H    6.755507   2.738746   2.946219   1.836892   0.000000
    26  H    7.477721   4.932108   2.350508   3.097051   3.233659
    27  H   10.417219   6.548934   5.741761   4.004110   4.239996
    28  H   10.761186   7.268359   5.863767   5.400569   4.558417
    29  H   11.051737   7.950827   5.917199   5.663966   5.475080
    30  H   12.238096   8.618174   7.250506   6.090171   6.132927
    31  H   12.266365   8.320837   7.451516   6.067387   5.701422
    32  H   13.376738   9.859044   8.319761   7.636158   7.170888
    33  H   13.206860   9.611048   8.153463   7.236845   6.984222
    34  H   13.267649   9.519957   8.303066   7.305331   6.827583
    35  H    4.157615   3.852021   1.872586   4.474413   4.249851
                   26         27         28         29         30
    26  H    0.000000
    27  H    4.045636   0.000000
    28  H    4.018463   3.275138   0.000000
    29  H    3.613728   3.188654   2.200543   0.000000
    30  H    5.100218   2.302141   3.128306   2.296612   0.000000
    31  H    5.558067   2.413024   2.602662   3.145024   1.758811
    32  H    6.144956   4.228254   2.850058   2.707080   2.361433
    33  H    5.956189   3.570137   3.077124   2.585244   1.481882
    34  H    6.235217   3.732764   2.796211   3.096143   2.130001
    35  H    3.875414   7.499679   7.095805   7.299168   8.878177
                   31         32         33         34         35
    31  H    0.000000
    32  H    2.390380   0.000000
    33  H    1.926211   0.993458   0.000000
    34  H    1.542642   1.027847   1.050686   0.000000
    35  H    9.001137   9.662913   9.631212   9.725065   0.000000
 Stoichiometry    C13H19NO2
 Framework group  C1[X(C13H19NO2)]
 Deg. of freedom    99
 Full point group                 C1      NOp   1
 Largest Abelian subgroup         C1      NOp   1
 Largest concise Abelian subgroup C1      NOp   1
                         Standard orientation:                         
 ---------------------------------------------------------------------
 Center     Atomic      Atomic             Coordinates (Angstroms)
 Number     Number       Type             X           Y           Z
 ---------------------------------------------------------------------
      1          6           0       -7.371091   -0.663873    0.466137
      2          6           0       -5.745377    0.214340   -0.029805
      3          8           0       -3.668807    0.208665    0.139128
      4          6           0       -1.609373    0.612789    0.478588
      5          6           0       -2.339469   -0.641928    0.125672
      6          7           0       -1.248167   -0.363738   -0.502136
      7          6           0       -0.073119   -0.931187   -0.008517
      8          6           0        1.137158   -0.454172   -0.931339
      9          6           0        2.234558   -0.998998   -0.567605
     10          6           0        3.475829   -1.024480   -0.337251
     11          6           0        3.876143    0.603778   -0.200546
     12          6           0        4.654131   -0.503432    0.337119
     13          6           0        2.819590    0.765431    0.432441
     14          6           0        5.335485    0.406004    0.624269
     15          6           0        0.721308    0.980530    0.337058
     16          8           0       -1.046381    1.819360   -0.486985
     17          1           0       -8.367059   -0.134270    0.229649
     18          1           0       -7.376901   -0.788565    1.535922
     19          1           0       -7.468924   -1.628916   -0.027484
     20          1           0       -6.222575    1.144512    0.429647
     21          1           0       -6.292176    0.295180   -1.123279
     22          1           0       -2.640516   -1.572022    0.666270
     23          1           0       -1.169644    0.689904   -1.099135
     24          1           0       -0.163007   -1.819927   -0.459060
     25          1           0       -0.028143   -0.883014    1.115162
     26          1           0        1.162672    0.832121   -1.354012
     27          1           0        3.831226   -1.997732   -0.241393
     28          1           0        4.175875    0.869007    1.304426
     29          1           0        4.732536    1.005631   -0.820156
     30          1           0        5.867290   -0.975632   -0.572464
     31          1           0        5.660485   -1.263136    1.150322
     32          1           0        6.954447    0.694390    0.694612
     33          1           0        6.846871   -0.126279    0.145169
     34          1           0        6.763263   -0.185185    1.190866
     35          1           0       -2.501696    1.977085   -0.824581
 ---------------------------------------------------------------------
 Rotational constants (GHZ):           2.3395288           0.1631148           0.1576421
 Standard basis: 6-31G(2df,p) (6D, 7F)
 There are   591 symmetry adapted cartesian basis functions of A   symmetry.
 There are   543 symmetry adapted basis functions of A   symmetry.
   543 basis functions,   837 primitive gaussians,   591 cartesian basis functions
    60 alpha electrons       60 beta electrons
       nuclear repulsion energy      1061.0570427885 Hartrees.
 NAtoms=   35 NActive=   35 NUniq=   35 SFac= 1.00D+00 NAtFMM=   60 NAOKFM=F Big=F
 Integral buffers will be    131072 words long.
 Raffenetti 2 integral format.
 Two-electron integral symmetry is turned on.
 One-electron integrals computed using PRISM.
 PrsmSu:  requested number of processors reduced to:  12 ShMem   1 Linda.
 NBasis=   543 RedAO= T EigKep=  1.72D-04  NBF=   543
 NBsUse=   543 1.00D-06 EigRej= -1.00D+00 NBFU=   543
 ExpMin= 1.61D-01 ExpMax= 5.48D+03 ExpMxC= 8.25D+02 IAcc=3 IRadAn=         5 AccDes= 0.00D+00
 Harris functional with IExCor=  402 and IRadAn=       5 diagonalized for initial guess.
 HarFok:  IExCor=  402 AccDes= 0.00D+00 IRadAn=         5 IDoV= 1 UseB2=F ITyADJ=14
 ICtDFT=  3500011 ScaDFX=  1.000000  1.000000  1.000000  1.000000
 FoFCou: FMM=F IPFlag=           0 FMFlag=      100000 FMFlg1=           0
         NFxFlg=           0 DoJE=T BraDBF=F KetDBF=T FulRan=T
         wScrn=  0.000000 ICntrl=       500 IOpCl=  0 I1Cent=   200000004 NGrid=           0
         NMat0=    1 NMatS0=      1 NMatT0=    0 NMatD0=    1 NMtDS0=    0 NMtDT0=    0
 Petite list used in FoFCou.
 Requested convergence on RMS density matrix=1.00D-08 within 128 cycles.
 Requested convergence on MAX density matrix=1.00D-06.
 Requested convergence on             energy=1.00D-06.
 No special actions if energy rises.
 Integral accuracy reduced to 1.0D-05 until final iterations.
 EnCoef did     6 forward-backward iterations
 EnCoef did   100 forward-backward iterations
 EnCoef did   100 forward-backward iterations
 EnCoef did     6 forward-backward iterations
 EnCoef did     3 forward-backward iterations
 EnCoef did     2 forward-backward iterations
 Initial convergence to 1.0D-05 achieved.  Increase integral accuracy.
 SCF Done:  E(RB3LYP) =  -709.850460553     A.U. after   34 cycles
            NFock= 34  Conv=0.64D-08     -V/T= 2.0034

 **********************************************************************

            Population analysis using the SCF density.

 **********************************************************************

 Orbital symmetries:
       Occupied  (A) (A) (A) (A) (A) (A) (A) (A) (A) (A) (A) (A)
                 (A) (A) (A) (A) (A) (A) (A) (A) (A) (A) (A) (A)
                 (A) (A) (A) (A) (A) (A) (A) (A) (A) (A) (A) (A)
                 (A) (A) (A) (A) (A) (A) (A) (A) (A) (A) (A) (A)
                 (A) (A) (A) (A) (A) (A) (A) (A) (A) (A) (A) (A)
       Virtual   (A) (A) (A) (A) (A) (A) (A) (A) (A) (A) (A) (A)
                 (A) (A) (A) (A) (A) (A) (A) (A) (A) (A) (A) (A)
                 (A) (A) (A) (A) (A) (A) (A) (A) (A) (A) (A) (A)
                 (A) (A) (A) (A) (A) (A) (A) (A) (A) (A) (A) (A)
                 (A) (A) (A) (A) (A) (A) (A) (A) (A) (A) (A) (A)
                 (A) (A) (A) (A) (A) (A) (A) (A) (A) (A) (A) (A)
                 (A) (A) (A) (A) (A) (A) (A) (A) (A) (A) (A) (A)
                 (A) (A) (A) (A) (A) (A) (A) (A) (A) (A) (A) (A)
                 (A) (A) (A) (A) (A) (A) (A) (A) (A) (A) (A) (A)
                 (A) (A) (A) (A) (A) (A) (A) (A) (A) (A) (A) (A)
                 (A) (A) (A) (A) (A) (A) (A) (A) (A) (A) (A) (A)
                 (A) (A) (A) (A) (A) (A) (A) (A) (A) (A) (A) (A)
                 (A) (A) (A) (A) (A) (A) (A) (A) (A) (A) (A) (A)
                 (A) (A) (A) (A) (A) (A) (A) (A) (A) (A) (A) (A)
                 (A) (A) (A) (A) (A) (A) (A) (A) (A) (A) (A) (A)
                 (A) (A) (A) (A) (A) (A) (A) (A) (A) (A) (A) (A)
                 (A) (A) (A) (A) (A) (A) (A) (A) (A) (A) (A) (A)
                 (A) (A) (A) (A) (A) (A) (A) (A) (A) (A) (A) (A)
                 (A) (A) (A) (A) (A) (A) (A) (A) (A) (A) (A) (A)
                 (A) (A) (A) (A) (A) (A) (A) (A) (A) (A) (A) (A)
                 (A) (A) (A) (A) (A) (A) (A) (A) (A) (A) (A) (A)
                 (A) (A) (A) (A) (A) (A) (A) (A) (A) (A) (A) (A)
                 (A) (A) (A) (A) (A) (A) (A) (A) (A) (A) (A) (A)
                 (A) (A) (A) (A) (A) (A) (A) (A) (A) (A) (A) (A)
                 (A) (A) (A) (A) (A) (A) (A) (A) (A) (A) (A) (A)
                 (A) (A) (A) (A) (A) (A) (A) (A) (A) (A) (A) (A)
                 (A) (A) (A) (A) (A) (A) (A) (A) (A) (A) (A) (A)
                 (A) (A) (A) (A) (A) (A) (A) (A) (A) (A) (A) (A)
                 (A) (A) (A) (A) (A) (A) (A) (A) (A) (A) (A) (A)
                 (A) (A) (A) (A) (A) (A) (A) (A) (A) (A) (A) (A)
                 (A) (A) (A) (A) (A) (A) (A) (A) (A) (A) (A) (A)
                 (A) (A) (A) (A) (A) (A) (A) (A) (A) (A) (A) (A)
                 (A) (A) (A) (A) (A) (A) (A) (A) (A) (A) (A) (A)
                 (A) (A) (A) (A) (A) (A) (A) (A) (A) (A) (A) (A)
                 (A) (A) (A) (A) (A) (A) (A) (A) (A) (A) (A) (A)
                 (A) (A) (A) (A) (A) (A) (A) (A) (A) (A) (A) (A)
                 (A) (A) (A) (A) (A) (A) (A) (A) (A) (A) (A) (A)
                 (A) (A) (A) (A) (A) (A) (A) (A) (A) (A) (A) (A)
                 (A) (A) (A) (A) (A) (A) (A) (A) (A) (A) (A) (A)
                 (A) (A) (A) (A) (A) (A) (A) (A) (A) (A) (A) (A)
                 (A) (A) (A)
 The electronic state is 1-A.
 Alpha  occ. eigenvalues --  -19.23841 -19.17833 -14.42845 -10.33853 -10.32833
 Alpha  occ. eigenvalues --  -10.27579 -10.27095 -10.25248 -10.24154 -10.24107
 Alpha  occ. eigenvalues --  -10.23503 -10.22025 -10.21684 -10.21055 -10.20594
 Alpha  occ. eigenvalues --  -10.17869  -1.15173  -1.03462  -1.00760  -0.94133
 Alpha  occ. eigenvalues --   -0.88287  -0.83946  -0.76968  -0.75156  -0.69266
 Alpha  occ. eigenvalues --   -0.67857  -0.67034  -0.65228  -0.62591  -0.60588
 Alpha  occ. eigenvalues --   -0.60160  -0.58524  -0.55457  -0.54908  -0.52508
 Alpha  occ. eigenvalues --   -0.50987  -0.49957  -0.47387  -0.45810  -0.43721
 Alpha  occ. eigenvalues --   -0.42909  -0.41745  -0.39263  -0.38159  -0.36569
 Alpha  occ. eigenvalues --   -0.35986  -0.34802  -0.34390  -0.31920  -0.31481
 Alpha  occ. eigenvalues --   -0.30609  -0.29783  -0.28330  -0.26894  -0.25754
 Alpha  occ. eigenvalues --   -0.25199  -0.21737  -0.18663  -0.18204  -0.17047
 Alpha virt. eigenvalues --   -0.13501  -0.11373  -0.10870  -0.09987  -0.07581
 Alpha virt. eigenvalues --   -0.04984  -0.03919  -0.02520  -0.00771   0.02149
 Alpha virt. eigenvalues --    0.03478   0.03844   0.05278   0.06383   0.08493
 Alpha virt. eigenvalues --    0.09264   0.10411   0.11250   0.12347   0.13018
 Alpha virt. eigenvalues --    0.14005   0.14625   0.15690   0.16042   0.17215
 Alpha virt. eigenvalues --    0.17688   0.17859   0.18422   0.20149   0.20247
 Alpha virt. eigenvalues --    0.20618   0.21447   0.24656   0.27807   0.29198
 Alpha virt. eigenvalues --    0.30067   0.33310   0.36256   0.38398   0.40352
 Alpha virt. eigenvalues --    0.40748   0.42854   0.43164   0.43545   0.44922
 Alpha virt. eigenvalues --    0.45301   0.45884   0.46747   0.47056   0.49246
 Alpha virt. eigenvalues --    0.49602   0.51115   0.52875   0.53277   0.53536
 Alpha virt. eigenvalues --    0.54179   0.54456   0.55467   0.56122   0.56626
 Alpha virt. eigenvalues --    0.57076   0.58281   0.58624   0.59089   0.60051
 Alpha virt. eigenvalues --    0.60751   0.61696   0.61975   0.63233   0.64044
 Alpha virt. eigenvalues --    0.64358   0.65488   0.66090   0.67325   0.67474
 Alpha virt. eigenvalues --    0.68192   0.69134   0.69673   0.70199   0.70700
 Alpha virt. eigenvalues --    0.71336   0.72648   0.73112   0.74030   0.75010
 Alpha virt. eigenvalues --    0.75530   0.75823   0.76038   0.76803   0.77368
 Alpha virt. eigenvalues --    0.78198   0.78608   0.79316   0.80429   0.80750
 Alpha virt. eigenvalues --    0.81072   0.81888   0.83499   0.83982   0.84622
 Alpha virt. eigenvalues --    0.86522   0.86989   0.87592   0.88537   0.89761
 Alpha virt. eigenvalues --    0.91567   0.91703   0.92486   0.93382   0.94794
 Alpha virt. eigenvalues --    0.96221   0.97060   0.97556   0.99159   1.00165
 Alpha virt. eigenvalues --    1.01190   1.02738   1.03482   1.04625   1.05687
 Alpha virt. eigenvalues --    1.06257   1.06790   1.08479   1.09212   1.09920
 Alpha virt. eigenvalues --    1.10120   1.11279   1.13163   1.14328   1.14850
 Alpha virt. eigenvalues --    1.16655   1.18472   1.19629   1.20590   1.21703
 Alpha virt. eigenvalues --    1.22947   1.23850   1.24732   1.27353   1.27433
 Alpha virt. eigenvalues --    1.29651   1.30410   1.30672   1.31592   1.32930
 Alpha virt. eigenvalues --    1.35219   1.35769   1.37511   1.38114   1.39720
 Alpha virt. eigenvalues --    1.41294   1.41497   1.42566   1.43277   1.46111
 Alpha virt. eigenvalues --    1.49055   1.49463   1.50936   1.52382   1.53809
 Alpha virt. eigenvalues --    1.55650   1.56051   1.57129   1.58221   1.59562
 Alpha virt. eigenvalues --    1.59603   1.60892   1.63285   1.63918   1.64285
 Alpha virt. eigenvalues --    1.65650   1.66167   1.67438   1.68365   1.69487
 Alpha virt. eigenvalues --    1.70772   1.72932   1.74161   1.74253   1.75173
 Alpha virt. eigenvalues --    1.76233   1.77086   1.79436   1.80314   1.82967
 Alpha virt. eigenvalues --    1.83965   1.84640   1.86437   1.88236   1.88628
 Alpha virt. eigenvalues --    1.90942   1.94512   1.95778   1.97547   1.98688
 Alpha virt. eigenvalues --    1.99524   2.00583   2.01524   2.03753   2.05480
 Alpha virt. eigenvalues --    2.07426   2.09202   2.10265   2.12584   2.14449
 Alpha virt. eigenvalues --    2.17209   2.17936   2.18105   2.19020   2.20671
 Alpha virt. eigenvalues --    2.22123   2.23890   2.24427   2.25899   2.27717
 Alpha virt. eigenvalues --    2.29199   2.29575   2.30687   2.31763   2.33605
 Alpha virt. eigenvalues --    2.35370   2.38532   2.40522   2.42372   2.42755
 Alpha virt. eigenvalues --    2.43593   2.44386   2.45881   2.48122   2.50558
 Alpha virt. eigenvalues --    2.51361   2.51741   2.52811   2.54322   2.54728
 Alpha virt. eigenvalues --    2.55966   2.58335   2.58770   2.60866   2.63503
 Alpha virt. eigenvalues --    2.63836   2.64376   2.66119   2.67818   2.69874
 Alpha virt. eigenvalues --    2.70981   2.73344   2.73894   2.74718   2.76645
 Alpha virt. eigenvalues --    2.78290   2.78529   2.80905   2.81774   2.83428
 Alpha virt. eigenvalues --    2.83621   2.85737   2.85881   2.86834   2.87494
 Alpha virt. eigenvalues --    2.88879   2.89373   2.91069   2.92272   2.92828
 Alpha virt. eigenvalues --    2.93932   2.95379   2.96929   2.97176   2.97484
 Alpha virt. eigenvalues --    2.98969   3.00615   3.02202   3.03306   3.03987
 Alpha virt. eigenvalues --    3.05234   3.07371   3.08169   3.09546   3.10680
 Alpha virt. eigenvalues --    3.11326   3.11348   3.13461   3.15214   3.16451
 Alpha virt. eigenvalues --    3.17775   3.18259   3.18904   3.20661   3.21144
 Alpha virt. eigenvalues --    3.22149   3.23859   3.24388   3.25578   3.27042
 Alpha virt. eigenvalues --    3.27691   3.29544   3.31526   3.31608   3.34258
 Alpha virt. eigenvalues --    3.35172   3.35593   3.36649   3.37271   3.38573
 Alpha virt. eigenvalues --    3.40059   3.41212   3.43170   3.45875   3.46992
 Alpha virt. eigenvalues --    3.48344   3.48926   3.51446   3.52901   3.54851
 Alpha virt. eigenvalues --    3.55647   3.57498   3.57994   3.58876   3.61600
 Alpha virt. eigenvalues --    3.63958   3.65780   3.66840   3.67904   3.69325
 Alpha virt. eigenvalues --    3.71387   3.74380   3.75295   3.76406   3.78149
 Alpha virt. eigenvalues --    3.78515   3.80122   3.81280   3.82107   3.84560
 Alpha virt. eigenvalues --    3.85879   3.88481   3.90288   3.91741   3.94189
 Alpha virt. eigenvalues --    3.96855   3.99028   3.99838   3.99902   4.02581
 Alpha virt. eigenvalues --    4.04294   4.05181   4.08384   4.09943   4.12929
 Alpha virt. eigenvalues --    4.13495   4.17149   4.18138   4.18903   4.20706
 Alpha virt. eigenvalues --    4.22034   4.23145   4.24428   4.27508   4.27708
 Alpha virt. eigenvalues --    4.28613   4.29290   4.30959   4.31749   4.32461
 Alpha virt. eigenvalues --    4.33734   4.35767   4.36756   4.37271   4.37983
 Alpha virt. eigenvalues --    4.40074   4.42309   4.43673   4.44523   4.46286
 Alpha virt. eigenvalues --    4.46745   4.49839   4.50225   4.51976   4.53183
 Alpha virt. eigenvalues --    4.54795   4.55239   4.56395   4.58543   4.59117
 Alpha virt. eigenvalues --    4.60934   4.62058   4.62490   4.64322   4.65253
 Alpha virt. eigenvalues --    4.65898   4.67834   4.68629   4.69676   4.72400
 Alpha virt. eigenvalues --    4.73124   4.73736   4.74818   4.75330   4.76303
 Alpha virt. eigenvalues --    4.79357   4.79585   4.80562   4.81964   4.82522
 Alpha virt. eigenvalues --    4.82947   4.84538   4.86409   4.88093   4.88763
 Alpha virt. eigenvalues --    4.91057   4.91319   4.93119   4.95098   4.96803
 Alpha virt. eigenvalues --    4.99292   5.00046   5.03108   5.04635   5.05039
 Alpha virt. eigenvalues --    5.06924   5.07720   5.07792   5.09150   5.09712
 Alpha virt. eigenvalues --    5.11251   5.12192   5.13169   5.16597   5.17451
 Alpha virt. eigenvalues --    5.20110   5.23454   5.26499   5.27824   5.29392
 Alpha virt. eigenvalues --    5.30747   5.35406   5.37153   5.39882   5.43032
 Alpha virt. eigenvalues --    5.47834   5.50122   5.51052   5.54011   5.54844
 Alpha virt. eigenvalues --    5.58540   5.59380   5.63464   5.67281   5.72401
 Alpha virt. eigenvalues --    5.73784   5.75321   5.77077   5.84554   5.88869
 Alpha virt. eigenvalues --    5.94837   6.02320   6.05701   6.15421   6.27852
 Alpha virt. eigenvalues --    6.45576   6.54946   6.72385   6.78681   6.97457
 Alpha virt. eigenvalues --    7.16014  10.38261  10.72513  10.75212  10.97989
 Alpha virt. eigenvalues --   11.18947  11.20033  11.26770  11.29271  11.64684
 Alpha virt. eigenvalues --   11.83546  12.03866  12.20363  12.38427  12.75792
 Alpha virt. eigenvalues --   13.10501  13.32506  23.33297
          Condensed to atoms (all electrons):
               1          2          3          4          5          6
     1  C    5.130981   0.263283  -0.001370  -0.000007  -0.000155  -0.000000
     2  C    0.263283   5.294512   0.091286   0.004086   0.004904  -0.000278
     3  O   -0.001370   0.091286   8.083671  -0.028181   0.236235  -0.005829
     4  C   -0.000007   0.004086  -0.028181   5.568484   0.291104   0.146853
     5  C   -0.000155   0.004904   0.236235   0.291104   5.016618   0.140723
     6  N   -0.000000  -0.000278  -0.005829   0.146853   0.140723   6.576708
     7  C   -0.000000   0.000020   0.000542  -0.067606  -0.069435   0.288432
     8  C    0.000000   0.000000  -0.000031  -0.000002   0.003768  -0.016250
     9  C   -0.000000  -0.000000  -0.000000   0.000083  -0.000311  -0.000935
    10  C   -0.000000  -0.000000  -0.000000   0.000021  -0.000004  -0.000191
    11  C    0.000000  -0.000000   0.000000  -0.000005   0.000000  -0.000013
    12  C   -0.000000   0.000000  -0.000000  -0.000000   0.000000  -0.000003
    13  C    0.000000  -0.000000   0.000000   0.000431   0.000020   0.000471
    14  C    0.000000  -0.000000  -0.000000   0.000000   0.000000  -0.000000
    15  C    0.000000  -0.000001   0.000141   0.009579  -0.004294  -0.027854
    16  O   -0.000000   0.000015  -0.004150   0.162708  -0.006437  -0.163564
    17  H    0.365113  -0.009420   0.000025   0.000000   0.000000  -0.000000
    18  H    0.379404  -0.020757   0.000015  -0.000000   0.000003   0.000000
    19  H    0.378650  -0.017888  -0.000009  -0.000000   0.000007  -0.000000
    20  H   -0.039633   0.335438  -0.003480  -0.000164  -0.000017   0.000003
    21  H   -0.039922   0.311008  -0.004369  -0.000096  -0.000166   0.000013
    22  H    0.000061   0.001269  -0.039131  -0.018125   0.384252  -0.053262
    23  H    0.000000  -0.000001  -0.001633  -0.042225  -0.007886   0.151182
    24  H    0.000000  -0.000006   0.000074   0.011363  -0.002085  -0.052277
    25  H   -0.000000   0.000002  -0.000186  -0.002250   0.008042  -0.030037
    26  H    0.000000  -0.000000  -0.000002   0.001119   0.000517   0.007371
    27  H   -0.000000   0.000000   0.000000  -0.000000   0.000000   0.000006
    28  H    0.000000  -0.000000  -0.000000   0.000004   0.000000   0.000001
    29  H   -0.000000   0.000000   0.000000  -0.000000   0.000000  -0.000000
    30  H    0.000000   0.000000  -0.000000  -0.000000   0.000000   0.000000
    31  H    0.000000   0.000000  -0.000000  -0.000000  -0.000000   0.000000
    32  H    0.000000   0.000000   0.000000   0.000000  -0.000000  -0.000000
    33  H    0.000000   0.000000  -0.000000  -0.000000   0.000000  -0.000000
    34  H    0.000000  -0.000000  -0.000000   0.000000   0.000000   0.000000
    35  H    0.000008  -0.001209   0.027148  -0.008985   0.000076   0.000546
               7          8          9         10         11         12
     1  C   -0.000000   0.000000  -0.000000  -0.000000   0.000000  -0.000000
     2  C    0.000020   0.000000  -0.000000  -0.000000  -0.000000   0.000000
     3  O    0.000542  -0.000031  -0.000000  -0.000000   0.000000  -0.000000
     4  C   -0.067606  -0.000002   0.000083   0.000021  -0.000005  -0.000000
     5  C   -0.069435   0.003768  -0.000311  -0.000004   0.000000   0.000000
     6  N    0.288432  -0.016250  -0.000935  -0.000191  -0.000013  -0.000003
     7  C    5.105118   0.300294  -0.033628   0.001650   0.000919   0.000223
     8  C    0.300294   5.555909   0.608615  -0.073889  -0.022019  -0.016814
     9  C   -0.033628   0.608615   4.875498   0.510577  -0.053315  -0.016051
    10  C    0.001650  -0.073889   0.510577   5.079679  -0.045053   0.606020
    11  C    0.000919  -0.022019  -0.053315  -0.045053   5.221389  -0.015084
    12  C    0.000223  -0.016814  -0.016051   0.606020  -0.015084   5.137489
    13  C    0.000158  -0.033616  -0.032371  -0.204258   0.816479  -0.117078
    14  C    0.000012   0.002822  -0.017597  -0.028766  -0.250723   0.680155
    15  C   -0.005908   0.007311  -0.041592  -0.002522  -0.008210   0.001193
    16  O    0.009501   0.002785   0.000515  -0.000003  -0.000001  -0.000000
    17  H    0.000000   0.000000  -0.000000  -0.000000  -0.000000   0.000000
    18  H   -0.000000  -0.000000   0.000000   0.000000   0.000000  -0.000000
    19  H    0.000000  -0.000000   0.000000   0.000000  -0.000000  -0.000000
    20  H   -0.000000  -0.000000   0.000000   0.000000   0.000000  -0.000000
    21  H   -0.000000  -0.000000   0.000000   0.000000   0.000000   0.000000
    22  H   -0.001652   0.000029  -0.000054  -0.000001   0.000000  -0.000000
    23  H   -0.026344  -0.000209   0.001056   0.000024   0.000003   0.000001
    24  H    0.322435  -0.019551  -0.025868  -0.001621  -0.000041  -0.000057
    25  H    0.369705  -0.032948   0.007267   0.001224   0.000129   0.000161
    26  H   -0.053804   0.206951  -0.034236   0.000403   0.001129   0.001270
    27  H   -0.000364   0.004251  -0.057831   0.257847   0.033724  -0.160304
    28  H    0.000044  -0.000940   0.008918  -0.016640  -0.094020   0.017303
    29  H    0.000018  -0.000734   0.001464  -0.032358   0.364452  -0.064730
    30  H    0.000001  -0.000097   0.000771  -0.015655  -0.016177   0.027283
    31  H   -0.000003  -0.000085   0.001330  -0.022100   0.058158   0.066240
    32  H    0.000000   0.000003   0.000010   0.001234  -0.010334  -0.026851
    33  H    0.000000   0.000005  -0.000085  -0.003515  -0.025866  -0.085895
    34  H   -0.000000   0.000003  -0.000055  -0.003002   0.023148  -0.055268
    35  H   -0.001057  -0.000394  -0.000018  -0.000000  -0.000000  -0.000000
              13         14         15         16         17         18
     1  C    0.000000   0.000000   0.000000  -0.000000   0.365113   0.379404
     2  C   -0.000000  -0.000000  -0.000001   0.000015  -0.009420  -0.020757
     3  O    0.000000  -0.000000   0.000141  -0.004150   0.000025   0.000015
     4  C    0.000431   0.000000   0.009579   0.162708   0.000000  -0.000000
     5  C    0.000020   0.000000  -0.004294  -0.006437   0.000000   0.000003
     6  N    0.000471  -0.000000  -0.027854  -0.163564  -0.000000   0.000000
     7  C    0.000158   0.000012  -0.005908   0.009501   0.000000  -0.000000
     8  C   -0.033616   0.002822   0.007311   0.002785   0.000000  -0.000000
     9  C   -0.032371  -0.017597  -0.041592   0.000515  -0.000000   0.000000
    10  C   -0.204258  -0.028766  -0.002522  -0.000003  -0.000000   0.000000
    11  C    0.816479  -0.250723  -0.008210  -0.000001  -0.000000   0.000000
    12  C   -0.117078   0.680155   0.001193  -0.000000   0.000000  -0.000000
    13  C    5.768338  -0.059433   0.112798   0.000109  -0.000000   0.000000
    14  C   -0.059433   6.573780   0.000608  -0.000000   0.000000   0.000000
    15  C    0.112798   0.000608   5.918317  -0.019681  -0.000000   0.000000
    16  O    0.000109  -0.000000  -0.019681   8.223815   0.000000   0.000000
    17  H   -0.000000   0.000000  -0.000000   0.000000   0.604451  -0.037697
    18  H    0.000000   0.000000   0.000000   0.000000  -0.037697   0.580926
    19  H    0.000000   0.000000  -0.000000   0.000000  -0.038572  -0.030865
    20  H    0.000000   0.000000   0.000000  -0.000001  -0.000757  -0.001308
    21  H    0.000000  -0.000000   0.000000   0.000000  -0.001380   0.003374
    22  H    0.000000   0.000000  -0.000071  -0.000346   0.000000  -0.000004
    23  H    0.000015  -0.000000  -0.000803   0.125607  -0.000000  -0.000000
    24  H   -0.000008  -0.000000   0.006620  -0.000981  -0.000000   0.000000
    25  H    0.004868   0.000000  -0.020568  -0.000170   0.000000  -0.000000
    26  H    0.013160  -0.000359   0.061269  -0.003316  -0.000000   0.000000
    27  H    0.036885   0.014624   0.000134   0.000000   0.000000  -0.000000
    28  H    0.050972   0.159417  -0.000374   0.000000  -0.000000   0.000000
    29  H   -0.047050  -0.025774  -0.000305   0.000000   0.000000  -0.000000
    30  H    0.005558  -0.143600  -0.000007  -0.000000   0.000000   0.000000
    31  H    0.008275  -0.089908  -0.000006  -0.000000   0.000000   0.000000
    32  H   -0.000724  -0.030873   0.000001  -0.000000   0.000000   0.000000
    33  H    0.000877  -0.310360   0.000001  -0.000000   0.000000   0.000000
    34  H    0.001775  -0.054610   0.000000   0.000000   0.000000   0.000000
    35  H   -0.000018  -0.000000   0.005301   0.123842  -0.000000  -0.000000
              19         20         21         22         23         24
     1  C    0.378650  -0.039633  -0.039922   0.000061   0.000000   0.000000
     2  C   -0.017888   0.335438   0.311008   0.001269  -0.000001  -0.000006
     3  O   -0.000009  -0.003480  -0.004369  -0.039131  -0.001633   0.000074
     4  C   -0.000000  -0.000164  -0.000096  -0.018125  -0.042225   0.011363
     5  C    0.000007  -0.000017  -0.000166   0.384252  -0.007886  -0.002085
     6  N   -0.000000   0.000003   0.000013  -0.053262   0.151182  -0.052277
     7  C    0.000000  -0.000000  -0.000000  -0.001652  -0.026344   0.322435
     8  C   -0.000000  -0.000000  -0.000000   0.000029  -0.000209  -0.019551
     9  C    0.000000   0.000000   0.000000  -0.000054   0.001056  -0.025868
    10  C    0.000000   0.000000   0.000000  -0.000001   0.000024  -0.001621
    11  C   -0.000000   0.000000   0.000000   0.000000   0.000003  -0.000041
    12  C   -0.000000  -0.000000   0.000000  -0.000000   0.000001  -0.000057
    13  C    0.000000   0.000000   0.000000   0.000000   0.000015  -0.000008
    14  C    0.000000   0.000000  -0.000000   0.000000  -0.000000  -0.000000
    15  C   -0.000000   0.000000   0.000000  -0.000071  -0.000803   0.006620
    16  O    0.000000  -0.000001   0.000000  -0.000346   0.125607  -0.000981
    17  H   -0.038572  -0.000757  -0.001380   0.000000  -0.000000  -0.000000
    18  H   -0.030865  -0.001308   0.003374  -0.000004  -0.000000   0.000000
    19  H    0.586091   0.002823  -0.002075  -0.000005  -0.000000   0.000000
    20  H    0.002823   0.603136  -0.039022  -0.000042   0.000001   0.000000
    21  H   -0.002075  -0.039022   0.672705  -0.000043  -0.000001   0.000000
    22  H   -0.000005  -0.000042  -0.000043   0.541037   0.000011   0.002562
    23  H   -0.000000   0.000001  -0.000001   0.000011   0.413849   0.002106
    24  H    0.000000   0.000000   0.000000   0.002562   0.002106   0.674434
    25  H   -0.000000  -0.000000  -0.000000  -0.000366   0.004463  -0.033982
    26  H    0.000000   0.000000   0.000000  -0.000008   0.009868   0.000849
    27  H   -0.000000  -0.000000  -0.000000   0.000000   0.000000   0.000244
    28  H    0.000000   0.000000   0.000000  -0.000000   0.000001  -0.000003
    29  H   -0.000000  -0.000000  -0.000000   0.000000   0.000000  -0.000000
    30  H    0.000000  -0.000000  -0.000000  -0.000000   0.000000  -0.000001
    31  H    0.000000  -0.000000  -0.000000   0.000000   0.000000   0.000001
    32  H    0.000000   0.000000   0.000000   0.000000  -0.000000  -0.000000
    33  H    0.000000   0.000000   0.000000   0.000000  -0.000000  -0.000000
    34  H    0.000000   0.000000   0.000000   0.000000   0.000000   0.000000
    35  H    0.000000   0.000164   0.000056   0.000544   0.014295   0.000102
              25         26         27         28         29         30
     1  C   -0.000000   0.000000  -0.000000   0.000000  -0.000000   0.000000
     2  C    0.000002  -0.000000   0.000000  -0.000000   0.000000   0.000000
     3  O   -0.000186  -0.000002   0.000000  -0.000000   0.000000  -0.000000
     4  C   -0.002250   0.001119  -0.000000   0.000004  -0.000000  -0.000000
     5  C    0.008042   0.000517   0.000000   0.000000   0.000000   0.000000
     6  N   -0.030037   0.007371   0.000006   0.000001  -0.000000   0.000000
     7  C    0.369705  -0.053804  -0.000364   0.000044   0.000018   0.000001
     8  C   -0.032948   0.206951   0.004251  -0.000940  -0.000734  -0.000097
     9  C    0.007267  -0.034236  -0.057831   0.008918   0.001464   0.000771
    10  C    0.001224   0.000403   0.257847  -0.016640  -0.032358  -0.015655
    11  C    0.000129   0.001129   0.033724  -0.094020   0.364452  -0.016177
    12  C    0.000161   0.001270  -0.160304   0.017303  -0.064730   0.027283
    13  C    0.004868   0.013160   0.036885   0.050972  -0.047050   0.005558
    14  C    0.000000  -0.000359   0.014624   0.159417  -0.025774  -0.143600
    15  C   -0.020568   0.061269   0.000134  -0.000374  -0.000305  -0.000007
    16  O   -0.000170  -0.003316   0.000000   0.000000   0.000000  -0.000000
    17  H    0.000000  -0.000000   0.000000  -0.000000   0.000000   0.000000
    18  H   -0.000000   0.000000  -0.000000   0.000000  -0.000000   0.000000
    19  H   -0.000000   0.000000  -0.000000   0.000000  -0.000000   0.000000
    20  H   -0.000000   0.000000  -0.000000   0.000000  -0.000000  -0.000000
    21  H   -0.000000   0.000000  -0.000000   0.000000  -0.000000  -0.000000
    22  H   -0.000366  -0.000008   0.000000  -0.000000   0.000000  -0.000000
    23  H    0.004463   0.009868   0.000000   0.000001   0.000000   0.000000
    24  H   -0.033982   0.000849   0.000244  -0.000003  -0.000000  -0.000001
    25  H    0.527329   0.002219   0.000038   0.000023   0.000005   0.000000
    26  H    0.002219   0.601790  -0.000032   0.000466  -0.000104   0.000031
    27  H    0.000038  -0.000032   0.767437  -0.000115   0.002308   0.012709
    28  H    0.000023   0.000466  -0.000115   0.707517   0.015296   0.017660
    29  H    0.000005  -0.000104   0.002308   0.015296   0.560583   0.025542
    30  H    0.000000   0.000031   0.012709   0.017660   0.025542   1.120287
    31  H   -0.000002   0.000001   0.004023  -0.001479   0.001939  -0.076045
    32  H   -0.000000  -0.000001  -0.000381  -0.007845  -0.005095  -0.021292
    33  H    0.000000  -0.000000   0.000095   0.007290   0.010023   0.279629
    34  H   -0.000000   0.000000   0.000940  -0.007424  -0.002768  -0.074323
    35  H   -0.000050   0.000594   0.000000   0.000000  -0.000000   0.000000
              31         32         33         34         35
     1  C    0.000000   0.000000   0.000000   0.000000   0.000008
     2  C    0.000000   0.000000   0.000000  -0.000000  -0.001209
     3  O   -0.000000   0.000000  -0.000000  -0.000000   0.027148
     4  C   -0.000000   0.000000  -0.000000   0.000000  -0.008985
     5  C   -0.000000  -0.000000   0.000000   0.000000   0.000076
     6  N    0.000000  -0.000000  -0.000000   0.000000   0.000546
     7  C   -0.000003   0.000000   0.000000  -0.000000  -0.001057
     8  C   -0.000085   0.000003   0.000005   0.000003  -0.000394
     9  C    0.001330   0.000010  -0.000085  -0.000055  -0.000018
    10  C   -0.022100   0.001234  -0.003515  -0.003002  -0.000000
    11  C    0.058158  -0.010334  -0.025866   0.023148  -0.000000
    12  C    0.066240  -0.026851  -0.085895  -0.055268  -0.000000
    13  C    0.008275  -0.000724   0.000877   0.001775  -0.000018
    14  C   -0.089908  -0.030873  -0.310360  -0.054610  -0.000000
    15  C   -0.000006   0.000001   0.000001   0.000000   0.005301
    16  O   -0.000000  -0.000000  -0.000000   0.000000   0.123842
    17  H    0.000000   0.000000   0.000000   0.000000  -0.000000
    18  H    0.000000   0.000000   0.000000   0.000000  -0.000000
    19  H    0.000000   0.000000   0.000000   0.000000   0.000000
    20  H   -0.000000   0.000000   0.000000   0.000000   0.000164
    21  H   -0.000000   0.000000   0.000000   0.000000   0.000056
    22  H    0.000000   0.000000   0.000000   0.000000   0.000544
    23  H    0.000000  -0.000000  -0.000000   0.000000   0.014295
    24  H    0.000001  -0.000000  -0.000000   0.000000   0.000102
    25  H   -0.000002  -0.000000   0.000000  -0.000000  -0.000050
    26  H    0.000001  -0.000001  -0.000000   0.000000   0.000594
    27  H    0.004023  -0.000381   0.000095   0.000940   0.000000
    28  H   -0.001479  -0.007845   0.007290  -0.007424   0.000000
    29  H    0.001939  -0.005095   0.010023  -0.002768  -0.000000
    30  H   -0.076045  -0.021292   0.279629  -0.074323   0.000000
    31  H    0.996018  -0.050139  -0.124290   0.234268   0.000000
    32  H   -0.050139   0.618203   0.266696   0.047359  -0.000000
    33  H   -0.124290   0.266696   1.058260  -0.076322  -0.000000
    34  H    0.234268   0.047359  -0.076322   0.894203   0.000000
    35  H    0.000000  -0.000000  -0.000000   0.000000   0.554630
 Mulliken charges:
               1
     1  C   -0.436412
     2  C   -0.256264
     3  O   -0.350765
     4  C   -0.028188
     5  C    0.004522
     6  N    0.038187
     7  C   -0.139270
     8  C   -0.475164
     9  C    0.297843
    10  C   -0.009103
    11  C    0.021332
    12  C    0.020796
    13  C   -0.326632
    14  C   -0.419415
    15  C    0.008924
    16  O   -0.450248
    17  H    0.118237
    18  H    0.126910
    19  H    0.121841
    20  H    0.142860
    21  H    0.099917
    22  H    0.183344
    23  H    0.356620
    24  H    0.115692
    25  H    0.195084
    26  H    0.182856
    27  H    0.083763
    28  H    0.143930
    29  H    0.197289
    30  H   -0.142274
    31  H   -0.006196
    32  H    0.220029
    33  H    0.003456
    34  H    0.072075
    35  H    0.284425
 Sum of Mulliken charges =  -0.00000
 Mulliken charges with hydrogens summed into heavy atoms:
               1
     1  C   -0.069424
     2  C   -0.013487
     3  O   -0.350765
     4  C   -0.028188
     5  C    0.187866
     6  N    0.394807
     7  C    0.171507
     8  C   -0.292308
     9  C    0.297843
    10  C    0.074660
    11  C    0.218620
    12  C   -0.127674
    13  C   -0.326632
    14  C    0.020075
    15  C    0.008924
    16  O   -0.165823
 Electronic spatial extent (au):  <R**2>=           7079.2826
 Charge=             -0.0000 electrons
 Dipole moment (field-independent basis, Debye):
    X=              1.5080    Y=             -0.9002    Z=             -1.4351  Tot=              2.2680
 Quadrupole moment (field-independent basis, Debye-Ang):
   XX=           -110.6684   YY=           -101.0008   ZZ=           -105.0482
   XY=              7.5346   XZ=              6.3971   YZ=             -4.6530
 Traceless Quadrupole moment (field-independent basis, Debye-Ang):
   XX=             -5.0959   YY=              4.5716   ZZ=              0.5242
   XY=              7.5346   XZ=              6.3971   YZ=             -4.6530
 Octapole moment (field-independent basis, Debye-Ang**2):
  XXX=             24.6089  YYY=              0.0683  ZZZ=             -8.4845  XYY=            -38.4561
  XXY=             70.3123  XXZ=             18.9505  XZZ=            -29.1042  YZZ=              4.2067
  YYZ=             -4.7026  XYZ=              1.0030
 Hexadecapole moment (field-independent basis, Debye-Ang**3):
 XXXX=          -9295.7159 YYYY=           -554.2377 ZZZZ=           -299.4665 XXXY=            332.5402
 XXXZ=            257.3464 YYYX=              3.7946 YYYZ=            -10.3337 ZZZX=            -21.3042
 ZZZY=            -14.6006 XXYY=          -1683.9876 XXZZ=          -1689.7413 YYZZ=           -139.4754
 XXYZ=            -17.2324 YYXZ=             -1.3030 ZZXY=             17.0904
 N-N= 1.061057042788D+03 E-N=-3.773168433681D+03  KE= 7.074300438976D+02
 PrsmSu:  requested number of processors reduced to:  13 ShMem   1 Linda.
 Calling FoFJK, ICntrl=      2127 FMM=F ISym2X=0 I1Cent= 0 IOpClX= 0 NMat=1 NMatS=1 NMatT=0.
 ***** Axes restored to original set *****
 -------------------------------------------------------------------
 Center     Atomic                   Forces (Hartrees/Bohr)
 Number     Number              X              Y              Z
 -------------------------------------------------------------------
      1        6           0.020895659   -0.010466716    0.002416474
      2        6          -0.080910654    0.081083278   -0.072513964
      3        8           0.003745632   -0.019662392   -0.025662389
      4        6           0.042163154    0.011436560    0.097882500
      5        6          -0.170327162    0.130101988    0.018507532
      6        7           0.072631615   -0.015835254   -0.053189168
      7        6           0.032860789   -0.032283554   -0.010163730
      8        6          -0.011782179    0.072977889    0.003570157
      9        6          -0.045786657    0.042023528   -0.017162584
     10        6           0.025359325   -0.172680903    0.028749058
     11        6           0.143141589    0.120406205   -0.135916241
     12        6          -0.213447767   -0.196935441   -0.126618046
     13        6          -0.076309221    0.164996483    0.044581450
     14        6           0.110103261    0.209448150    0.291353222
     15        6           0.082777538   -0.047030921    0.016651809
     16        8          -0.105695223    0.094422101   -0.065944174
     17        1           0.031247331   -0.018023371    0.007220660
     18        1          -0.004100355   -0.006270415    0.009214952
     19        1           0.002279415   -0.007121113    0.001162359
     20        1           0.031578392   -0.031170284    0.008352029
     21        1           0.029829783   -0.033763300    0.043835921
     22        1           0.024939017   -0.001155171    0.004377876
     23        1           0.019794188   -0.002099735   -0.005644996
     24        1          -0.042289128   -0.077118181   -0.028846302
     25        1           0.007958568   -0.008414963   -0.021790774
     26        1          -0.043145287   -0.022344922    0.009088696
     27        1          -0.019118677   -0.060247894   -0.045006862
     28        1           0.031481039   -0.032696509    0.044167095
     29        1          -0.017116392    0.038397216   -0.026070890
     30        1           0.029026897   -0.009604176   -0.011199709
     31        1           0.012731121   -0.005774358    0.029899156
     32        1          -0.012970425   -0.036861697   -0.028854934
     33        1           0.054376257   -0.049170432   -0.029764150
     34        1          -0.014905909   -0.023961612    0.008436985
     35        1           0.048984466   -0.044600084    0.034880981
 -------------------------------------------------------------------
 Cartesian Forces:  Max     0.291353222 RMS     0.071895593

[...]
     21          1           0        5.129797   -3.703399    0.952170
     22          1           0        6.110668   -1.475993    2.696431
     23          1           0        7.230050   -1.572753    0.028517
     24          1           0        8.048575   -2.742827    2.575410
     25          1           0        8.729952   -1.233067    1.946202
     26          1           0        9.733523   -2.446346   -0.027004
     27          1           0       11.561475   -5.217037    1.498994
     28          1           0        7.892855   -6.366740    0.993764
     29          1           0        7.874422   -6.151427    4.064947
     30          1           0       10.077441   -8.743729    3.053799
     31          1           0       10.105788   -8.775372    0.313901
     32          1           0        8.137612   -7.711713    2.141893
     33          1           0        9.588162   -9.300241    3.132827
     34          1           0        9.513627   -9.143037    0.563154
     35          1           0        4.547414   -0.138652    0.408036
 ---------------------------------------------------------------------
                    Distance matrix (angstroms):
                    1          2          3          4          5
     1  C    0.000000
     2  C    1.525065   0.000000
     3  O    2.455075   1.425413   0.000000
     4  C    4.554570   3.774586   2.422431   0.000000
     5  C    3.206668   2.454197   1.416774   1.561347   0.000000
     6  N    3.909130   2.937351   2.384916   2.442392   1.469441
     7  C    4.718044   4.087029   3.652123   3.205726   2.460043
     8  C    5.784158   5.025313   4.799184   4.472353   3.792888
     9  C    6.245692   5.665753   5.703236   5.650016   4.792378
    10  C    6.948027   6.535175   6.773293   6.912775   5.947341
    11  C    4.573219   4.738051   5.441662   6.443667   5.029111
    12  C    6.780009   6.529337   7.055250   7.633906   6.452586
    13  C    3.518976   3.605747   4.176773   5.179214   3.737703
    14  C    5.559378   5.434607   6.194459   7.213807   5.843830
    15  C    8.231352   7.626269   7.047151   5.739622   5.732627
    16  O    4.791822   3.852138   2.447542   1.295485   2.324986
    17  H    1.095717   2.159457   3.388017   5.585525   4.176905
    18  H    1.094388   2.170660   2.710733   4.688312   3.596080
    19  H    1.093759   2.181848   2.786101   4.426565   3.037630
    20  H    2.160215   1.095172   2.016114   4.400736   3.301172
    21  H    2.178076   1.096530   2.062837   4.058725   2.623092
    22  H    3.008787   2.796293   2.087672   2.185042   1.097065
    23  H    4.701513   3.525944   2.802571   2.427269   2.043885
    24  H    4.265858   3.979130   3.784886   3.718608   2.694600
    25  H    5.418877   4.843514   4.143740   3.003784   2.775464
    26  H    6.564914   5.627232   5.247975   4.633140   4.257798
    27  H    8.005413   7.576345   7.729970   7.646308   6.817411
    28  H    5.268503   4.884721   5.664458   6.798841   5.442863
    29  H    5.039570   5.475608   6.183134   7.136372   5.745242
    30  H    8.182660   8.287456   9.062835   9.918692   8.609383
    31  H    8.554189   8.197560   8.954541   9.852299   8.630056
    32  H    6.071051   6.082195   6.995460   8.199012   6.775681
    33  H    8.207033   8.376930   9.248884  10.264028   8.897233
    34  H    8.308602   8.036017   8.892276   9.953299   8.658547
    35  H    4.087963   3.073178   1.754889   1.885119   2.209765
                    6          7          8          9         10
     6  N    0.000000
     7  C    1.463622   0.000000
     8  C    2.451870   1.522277   0.000000
     9  C    3.499921   2.508391   1.291006   0.000000
    10  C    4.714470   3.731552   2.628367   1.337361   0.000000
    11  C    4.370520   3.891276   3.905164   3.302746   3.150398
    12  C    5.318203   4.558895   3.676880   2.480103   1.425777
    13  C    3.232824   2.939695   3.378702   3.232322   3.600055
    14  C    4.893401   4.464351   3.972104   3.104650   2.606655
    15  C    4.790699   3.553148   3.017765   3.345050   4.106306
    16  O    3.224262   4.287684   5.421500   6.618372   7.889578
    17  H    4.654096   5.404350   6.288976   6.573310   7.107163
    18  H    4.591322   5.457327   6.648311   7.202994   7.959707
    19  H    3.696407   4.187881   5.325355   5.713777   6.372123
    20  H    3.748717   5.022304   5.842756   6.492585   7.346581
    21  H    2.515235   3.557717   4.239993   4.765519   5.579219
    22  H    2.090547   2.500782   3.976866   4.809743   5.850601
    23  H    1.020587   2.033244   2.622701   3.813691   5.099040
    24  H    2.076154   1.090290   2.148593   2.645566   3.603076
    25  H    2.157502   1.100510   2.125668   3.144416   4.354777
    26  H    2.891731   2.247689   1.098303   2.027412   3.260968
    27  H    5.563424   4.472140   3.261209   2.066738   1.092669
    28  H    4.403090   4.244571   3.691613   3.046865   2.880583
    29  H    5.245041   4.648840   4.755152   4.079135   3.737342
    30  H    7.662901   6.937153   6.241622   5.043382   3.865622
    31  H    7.420224   6.965553   5.896356   4.799724   3.794938
    32  H    5.899869   5.542103   5.063423   4.153301   3.474958
    33  H    8.004845   7.377294   6.748597   5.594596   4.478725
    34  H    7.523880   7.145892   6.194907   5.132489   4.170242
    35  H    3.169460   4.433556   5.545168   6.662946   7.876913
                   11         12         13         14         15
    11  C    0.000000
    12  C    2.524780   0.000000
    13  C    1.315057   3.415089   0.000000
    14  C    1.491139   1.534942   2.481302   0.000000
    15  C    6.166305   5.502402   5.794675   6.339639   0.000000
    16  O    7.319581   8.539219   6.042178   8.010507   6.841528
    17  H    4.471819   6.719448   3.664511   5.352416   8.887500
    18  H    5.595850   7.841739   4.522224   6.638486   8.933495
    19  H    3.948862   6.255789   2.859091   5.132195   7.577041
    20  H    5.584535   7.274794   4.552013   6.123633   8.512989
    21  H    3.954295   5.536830   2.916231   4.467798   7.034276
    22  H    4.635177   6.301324   3.340054   5.677007   5.710078
    23  H    5.212271   5.827243   4.159276   5.540170   4.746516
    24  H    3.100779   4.209256   2.119484   3.961915   4.060768
    25  H    4.790561   5.353805   3.862806   5.427172   3.000392
    26  H    4.951253   4.416483   4.434228   4.851253   2.795065
    27  H    4.143783   2.137389   4.640607   3.556796   3.930705
    28  H    2.127706   2.121532   2.622278   1.099428   6.377064
    29  H    1.092526   3.024245   2.076625   2.211324   6.671231
    30  H    3.751640   2.610222   5.039078   2.936987   7.771199
    31  H    4.671127   2.757756   5.665362   3.220520   7.758752
    32  H    2.149947   2.147617   3.292085   1.099410   7.368816
    33  H    3.955361   3.143675   5.261267   3.160058   8.430373
    34  H    4.518862   2.968431   5.561341   3.093591   8.216842
    35  H    7.015928   8.373556   5.742017   7.688661   7.345728
                   16         17         18         19         20
    16  O    0.000000
    17  H    5.792801   0.000000
    18  H    4.759565   1.775554   0.000000
    19  H    4.944561   1.765735   1.774188   0.000000
    20  H    4.166514   2.486458   2.514426   3.081304   0.000000
    21  H    4.314773   2.522227   3.087024   2.531377   1.774950
    22  H    3.132817   3.993973   3.379264   2.498116   3.794708
    23  H    2.995076   5.443819   5.311168   4.620813   4.131739
    24  H    4.833692   4.881462   5.045205   3.549557   5.014171
    25  H    4.209069   6.214407   6.017863   4.830376   5.777104
    26  H    5.470296   7.111483   7.380406   6.203351   6.336982
    27  H    8.657229   8.189354   9.000381   7.396553   8.390446
    28  H    7.468225   5.077782   6.362014   5.027105   5.458165
    29  H    8.067706   4.878895   5.980185   4.295808   6.346362
    30  H   10.824531   7.845034   9.216543   7.634931   8.975590
    31  H   10.566193   8.231985   9.647534   8.273033   8.674432
    32  H    8.948542   5.678353   7.137469   5.702437   6.680124
    33  H   11.124547   7.774573   9.230658   7.711120   9.012117
    34  H   10.638813   7.901966   9.395177   8.059955   8.479724
    35  H    0.993093   5.032926   4.039393   4.422453   3.244829
                   21         22         23         24         25
    21  H    0.000000
    22  H    2.994309   0.000000
    23  H    3.131110   2.894848   0.000000
    24  H    3.475179   2.318405   2.919885   0.000000
    25  H    4.477919   2.735418   2.458172   1.771879   0.000000
    26  H    4.871679   4.635058   2.652099   3.114404   2.524429
    27  H    6.629977   6.718673   5.848449   4.429543   4.908109
    28  H    3.837917   5.476739   4.934909   3.957095   5.287956
    29  H    4.818214   5.181057   6.137772   3.723923   5.423217
    30  H    7.368918   8.287520   8.287513   6.352635   7.710547
    31  H    7.133918   8.655540   7.760737   6.762999   7.838603
    32  H    5.150629   6.580291   6.555674   4.988557   6.508611
    33  H    7.480436   8.573346   8.655143   6.758751   8.199018
    34  H    6.997068   8.655320   7.925261   6.867186   8.068122
    35  H    3.652763   3.077174   3.065488   4.872102   4.588826
                   26         27         28         29         30
    26  H    0.000000
    27  H    3.653327   0.000000
    28  H    4.449665   3.877609   0.000000
    29  H    5.824770   4.588198   3.078777   0.000000
    30  H    7.019021   4.130052   3.829652   3.549049   0.000000
    31  H    6.349123   4.023086   3.340778   5.092586   2.740227
    32  H    5.913978   4.284806   1.785233   2.490362   2.378984
    33  H    7.548611   4.820366   4.006880   3.704158   0.745215
    34  H    6.726240   4.525810   3.243478   4.888689   2.584694
    35  H    5.693017   8.727957   7.093951   7.784308  10.565445
                   31         32         33         34         35
    31  H    0.000000
    32  H    2.889055   0.000000
    33  H    2.913720   2.368431   0.000000
    34  H    0.740242   2.536635   2.575556   0.000000
    35  H   10.271189   8.558449  10.805940  10.284274   0.000000
 Stoichiometry    C13H19NO2
 Framework group  C1[X(C13H19NO2)]
 Deg. of freedom    99
 Full point group                 C1      NOp   1
 Largest Abelian subgroup         C1      NOp   1
 Largest concise Abelian subgroup C1      NOp   1
                         Standard orientation:                         
 ---------------------------------------------------------------------
 Center     Atomic      Atomic             Coordinates (Angstroms)
 Number     Number       Type             X           Y           Z
 ---------------------------------------------------------------------
      1          6           0       -2.163266   -2.934157    0.622025
      2          6           0       -2.262934   -2.036986   -0.607192
      3          8           0       -3.011944   -0.849851   -0.359202
      4          6           0       -3.388637    1.442559    0.327188
      5          6           0       -2.385665    0.246774    0.283011
      6          7           0       -1.199429    0.697020   -0.458190
      7          6           0       -0.184869    1.342014    0.376580
      8          6           0        0.998234    1.784088   -0.473222
      9          6           0        2.224229    1.410185   -0.318851
     10          6           0        3.494239    1.022840   -0.158935
     11          6           0        2.225978   -1.673212    0.864699
     12          6           0        4.020996   -0.298301   -0.258707
     13          6           0        0.957975   -1.324940    0.848880
     14          6           0        3.141939   -1.555704   -0.306071
     15          6           0        1.472208    4.446849    0.865419
     16          8           0       -4.388533    1.171803   -0.450746
     17          1           0       -1.641115   -3.862426    0.364592
     18          1           0       -3.158229   -3.191790    0.998000
     19          1           0       -1.603220   -2.454921    1.430103
     20          1           0       -2.797678   -2.558066   -1.408395
     21          1           0       -1.269657   -1.762135   -0.981671
     22          1           0       -2.076203   -0.005186    1.304921
     23          1           0       -1.489981    1.354753   -1.182458
     24          1           0        0.149639    0.615800    1.117829
     25          1           0       -0.549965    2.230795    0.913139
     26          1           0        0.836935    2.626966   -1.158648
     27          1           0        4.236793    1.821572   -0.091360
     28          1           0        2.549801   -1.479202   -1.229252
     29          1           0        2.658171   -2.052145    1.793802
     30          1           0        5.951513   -1.891876    0.480805
     31          1           0        5.745612   -1.268405   -2.179596
     32          1           0        3.802432   -2.431006   -0.385426
     33          1           0        6.034473   -2.625886    0.382351
     34          1           0        5.636369   -1.994084   -2.082568
     35          1           0       -4.318420    0.240435   -0.788194
 ---------------------------------------------------------------------
 Rotational constants (GHZ):           0.6287510           0.2903249           0.2122240
 Standard basis: 6-31G(2df,p) (6D, 7F)
 There are   591 symmetry adapted cartesian basis functions of A   symmetry.
 There are   543 symmetry adapted basis functions of A   symmetry.
   543 basis functions,   837 primitive gaussians,   591 cartesian basis functions
    60 alpha electrons       60 beta electrons
       nuclear repulsion energy      1042.3584450642 Hartrees.
 NAtoms=   35 NActive=   35 NUniq=   35 SFac= 1.00D+00 NAtFMM=   60 NAOKFM=F Big=F
 Integral buffers will be    131072 words long.
 Raffenetti 2 integral format.
 Two-electron integral symmetry is turned on.
 One-electron integrals computed using PRISM.
 PrsmSu:  requested number of processors reduced to:  12 ShMem   1 Linda.
 NBasis=   543 RedAO= T EigKep=  2.99D-04  NBF=   543
 NBsUse=   543 1.00D-06 EigRej= -1.00D+00 NBFU=   543
 Initial guess from the checkpoint file:  "CCOC1dCNCCdCdCCCCqCrdC1O.chk"
 B after Tr=    -0.000000   -0.000000    0.000000
         Rot=    0.999998   -0.001786    0.000089   -0.000410 Ang=  -0.21 deg.
 ExpMin= 1.61D-01 ExpMax= 5.48D+03 ExpMxC= 8.25D+02 IAcc=2 IRadAn=         4 AccDes= 0.00D+00
 Harris functional with IExCor=  402 and IRadAn=       4 diagonalized for initial guess.
 HarFok:  IExCor=  402 AccDes= 0.00D+00 IRadAn=         4 IDoV= 1 UseB2=F ITyADJ=14
 ICtDFT=  3500011 ScaDFX=  1.000000  1.000000  1.000000  1.000000
 FoFCou: FMM=F IPFlag=           0 FMFlag=      100000 FMFlg1=           0
         NFxFlg=           0 DoJE=T BraDBF=F KetDBF=T FulRan=T
         wScrn=  0.000000 ICntrl=       500 IOpCl=  0 I1Cent=   200000004 NGrid=           0
         NMat0=    1 NMatS0=      1 NMatT0=    0 NMatD0=    1 NMtDS0=    0 NMtDT0=    0
 Petite list used in FoFCou.
 Requested convergence on RMS density matrix=1.00D-08 within 128 cycles.
 Requested convergence on MAX density matrix=1.00D-06.
 Requested convergence on             energy=1.00D-06.
 No special actions if energy rises.
 Integral accuracy reduced to 1.0D-05 until final iterations.
 Initial convergence to 1.0D-05 achieved.  Increase integral accuracy.
 Restarting incremental Fock formation.
 SCF Done:  E(RB3LYP) =  -711.221988482     A.U. after   26 cycles
            NFock= 26  Conv=0.31D-08     -V/T= 2.0076
 PrsmSu:  requested number of processors reduced to:  13 ShMem   1 Linda.
 Calling FoFJK, ICntrl=      2127 FMM=F ISym2X=0 I1Cent= 0 IOpClX= 0 NMat=1 NMatS=1 NMatT=0.
 ***** Axes restored to original set *****
 -------------------------------------------------------------------
 Center     Atomic                   Forces (Hartrees/Bohr)
 Number     Number              X              Y              Z
 -------------------------------------------------------------------
      1        6          -0.000270840    0.001202706    0.001256416
      2        6           0.000499774   -0.004505522    0.001159223
      3        8           0.002904914    0.003992741   -0.001091382
      4        6           0.002140411   -0.008912760   -0.001280845
      5        6          -0.000406958   -0.001610445    0.000655336
      6        7           0.004226357    0.006697129   -0.001663468
      7        6           0.006744767    0.010093906    0.007006300
      8        6           0.004705709    0.018044972   -0.002117665
      9        6           0.001795562   -0.006357431    0.013084538
     10        6          -0.005550827   -0.012499464   -0.013777551
     11        6          -0.014761215    0.021537151    0.010378065
     12        6          -0.003294059   -0.009327713    0.002701854
     13        6          -0.000618283   -0.027226769    0.010182511
     14        6           0.028773865    0.003640751   -0.021400310
     15        6          -0.005126582   -0.004669329   -0.001707092
     16        8          -0.001790802    0.004212396    0.000182309
     17        1           0.000427987    0.000529540   -0.000383917
     18        1          -0.000552162    0.000056671   -0.000698041
     19        1           0.000418428   -0.000719715   -0.001465599
     20        1           0.000186921    0.000939893   -0.000427367
     21        1          -0.000721502    0.000779757    0.001520950
     22        1          -0.000405655   -0.000756557   -0.000849508
     23        1          -0.001698747   -0.001464440    0.000416199
     24        1           0.000300620    0.001568143   -0.002433004
     25        1          -0.000894922    0.002071749   -0.003065406
     26        1          -0.012279435   -0.005896261   -0.006513007
     27        1           0.001337828    0.005200551    0.012703476
     28        1          -0.002770506   -0.000773707   -0.003338759
     29        1           0.000366916    0.003210298    0.000934454
     30        1          -0.000543660    0.000850925   -0.001128359
     31        1           0.000448420    0.001106021   -0.000159795
     32        1          -0.002975763    0.005586428    0.000722533
     33        1           0.000826407   -0.002329396    0.002828016
     34        1          -0.001123155   -0.003339519   -0.002116358
     35        1          -0.000319813   -0.000932701   -0.000114747
 -------------------------------------------------------------------
 Cartesian Forces:  Max     0.028773865 RMS     0.006914498

 GradGradGradGradGradGradGradGradGradGradGradGradGradGradGradGradGradGrad
 Berny optimization.
 Using GEDIIS/GDIIS optimizer.
 FormGI is forming the generalized inverse of G from B-inverse, IUseBI=4.
 Internal  Forces:  Max     0.054471375 RMS     0.006427093
 Search for a local minimum.
 Step number  54 out of a maximum of  210
 All quantities printed in internal units (Hartrees-Bohrs-Radians)
 Mixed Optimization -- RFO/linear search
 Update second derivatives using D2CorX and points   54   49
 ITU=  0  0  0  0  0  0 -1  0 -1  0 -1  1  1  1  1  1  1  0  1  1
 ITU=  1  1  1  1  1  1  0  1  1  1  1  0  0 -1 -1  0  0  1  1  1
 ITU=  1  0  0  0  1  0  0  0  1  0 -1 -1  1  0
 Use linear search instead of GDIIS.
 Skip linear search -- no minimum in search direction.
 Steepest descent instead of Quadratic search.
 Steepest descent step scaled to max of 0.05000.
 SLEqS3 Cycle:  1051 Max:0.177260E-01 RMS:0.324666E-02 Conv:0.264119E-07
 SLEqS3 Cycle:  1051 Max:0.177260E-01 RMS:0.324666E-02 Conv:0.264119E-07
 Iteration  1 RMS(Cart)=  0.03105481 RMS(Int)=  0.00405356
 SLEqS3 Cycle:   175 Max:0.682416E-03 RMS:0.112643E-03 Conv:0.730923E-04
 New curvilinear step failed, DQL= 7.01D+00 SP=-2.01D-01.
 ITry= 1 IFail=1 DXMaxC= 1.39D-01 DCOld= 1.00D+10 DXMaxT= 3.63D-01 DXLimC= 3.00D+00 Rises=T
slurmstepd: error: *** JOB 27504955 ON lewis4-r630-hpc4-node671 CANCELLED AT 2023-05-28T21:37:24 DUE TO TIME LIMIT ***
