### Starting Gaussian ###
 Entering Gaussian System, Link 0=g16
 Initial command:
 /cluster/software/gaussian/gaussian-16-A.03/avx2/g16/l1.exe "/local/scratch/yxie/Gau-19505.inp" -scrdir="/local/scratch/yxie/"
 Entering Link 1 = /cluster/software/gaussian/gaussian-16-A.03/avx2/g16/l1.exe PID=     19506.
  
 Copyright (c) 1988,1990,1992,1993,1995,1998,2003,2009,2016,
            Gaussian, Inc.  All Rights Reserved.
  
 This is part of the Gaussian(R) 16 program.  It is based on
 the Gaussian(R) 09 system (copyright 2009, Gaussian, Inc.),
 the Gaussian(R) 03 system (copyright 2003, Gaussian, Inc.),
 the Gaussian(R) 98 system (copyright 1998, Gaussian, Inc.),
 the Gaussian(R) 94 system (copyright 1995, Gaussian, Inc.),
 the Gaussian 92(TM) system (copyright 1992, Gaussian, Inc.),
 the Gaussian 90(TM) system (copyright 1990, Gaussian, Inc.),
 the Gaussian 88(TM) system (copyright 1988, Gaussian, Inc.),
 the Gaussian 86(TM) system (copyright 1986, Carnegie Mellon
 University), and the Gaussian 82(TM) system (copyright 1983,
 Carnegie Mellon University). Gaussian is a federally registered
 trademark of Gaussian, Inc.
  
 This software contains proprietary and confidential information,
 including trade secrets, belonging to Gaussian, Inc.
  
 This software is provided under written license and may be
 used, copied, transmitted, or stored only in accord with that
 written license.
  
 The following legend is applicable only to US Government
 contracts under FAR:
  
                    RESTRICTED RIGHTS LEGEND
  
 Use, reproduction and disclosure by the US Government is
 subject to restrictions as set forth in subparagraphs (a)
 and (c) of the Commercial Computer Software - Restricted
 Rights clause in FAR 52.227-19.
  
 Gaussian, Inc.
 340 Quinnipiac St., Bldg. 40, Wallingford CT 06492
  
  
 ---------------------------------------------------------------
 Warning -- This program may not be used in any manner that
 competes with the business of Gaussian, Inc. or will provide
 assistance to any competitor of Gaussian, Inc.  The licensee
 of this program is prohibited from giving any competitor of
 Gaussian, Inc. access to this program.  By using this program,
 the user acknowledges that Gaussian, Inc. is engaged in the
 business of creating and licensing software in the field of
 computational chemistry and represents and warrants to the
 licensee that it is not a competitor of Gaussian, Inc. and that
 it will not use this program in any manner prohibited above.
 ---------------------------------------------------------------
  

 Cite this work as:
 Gaussian 16, Revision A.03,
 M. J. Frisch, G. W. Trucks, H. B. Schlegel, G. E. Scuseria, 
 M. A. Robb, J. R. Cheeseman, G. Scalmani, V. Barone, 
 G. A. Petersson, H. Nakatsuji, X. Li, M. Caricato, A. V. Marenich, 
 J. Bloino, B. G. Janesko, R. Gomperts, B. Mennucci, H. P. Hratchian, 
 J. V. Ortiz, A. F. Izmaylov, J. L. Sonnenberg, D. Williams-Young, 
 F. Ding, F. Lipparini, F. Egidi, J. Goings, B. Peng, A. Petrone, 
 T. Henderson, D. Ranasinghe, V. G. Zakrzewski, J. Gao, N. Rega, 
 G. Zheng, W. Liang, M. Hada, M. Ehara, K. Toyota, R. Fukuda, 
 J. Hasegawa, M. Ishida, T. Nakajima, Y. Honda, O. Kitao, H. Nakai, 
 T. Vreven, K. Throssell, J. A. Montgomery, Jr., J. E. Peralta, 
 F. Ogliaro, M. J. Bearpark, J. J. Heyd, E. N. Brothers, K. N. Kudin, 
 V. N. Staroverov, T. A. Keith, R. Kobayashi, J. Normand, 
 K. Raghavachari, A. P. Rendell, J. C. Burant, S. S. Iyengar, 
 J. Tomasi, M. Cossi, J. M. Millam, M. Klene, C. Adamo, R. Cammi, 
 J. W. Ochterski, R. L. Martin, K. Morokuma, O. Farkas, 
 J. B. Foresman, and D. J. Fox, Gaussian, Inc., Wallingford CT, 2016.
 
 ******************************************
 Gaussian 16:  ES64L-G16RevA.03 25-Dec-2016
                22-May-2023 
 ******************************************
 %chk=CCOCqdOrCqCCOCCqCrCrOC.chk
 %NProcShared=20
 Will use up to   20 processors via shared memory.
 -----------------------------
 # opt freq b3lyp/6-31g(2df,p)
 -----------------------------
 1/18=20,19=15,26=3,38=1/1,3;
 2/9=110,12=2,17=6,18=5,40=1/2;
 3/5=1,6=6,7=104,11=2,25=1,30=1,71=1,74=-5/1,2,3;
 4//1;
 5/5=2,38=5/2;
 6/7=2,8=2,9=2,10=2,28=1/1;
 7//1,2,3,16;
 1/18=20,19=15,26=3/3(2);
 2/9=110/2;
 99//99;
 2/9=110/2;
 3/5=1,6=6,7=104,11=2,25=1,30=1,71=1,74=-5/1,2,3;
 4/5=5,16=3,69=1/1;
 5/5=2,38=5/2;
 7//1,2,3,16;
 1/18=20,19=15,26=3/3(-5);
 2/9=110/2;
 6/7=2,8=2,9=2,10=2,19=2,28=1/1;
 99/9=1/99;
 -------------------
 Title Card Required
 -------------------
 Symbolic Z-matrix:
 Charge =  0 Multiplicity = 1
 C                     1.0604   -0.10924  -0.04683 
 C                     2.58344  -0.14272  -0.03253 
 O                     3.08693  -0.17062  -1.38114 
 C                     4.44605  -0.03647  -1.50617 
 O                     5.20907  -0.04508  -0.54406 
 C                     4.87779   0.10148  -2.99673 
 C                     4.32635   1.38282  -3.63249 
 C                     2.82057   1.39403  -3.68265 
 O                     2.37427   2.5781   -4.31997 
 C                     0.94951   2.59024  -4.29881 
 C                     0.45267   3.87009  -4.94738 
 C                     0.97474   3.9745   -6.37831 
 C                    -1.06991   3.88012  -4.92433 
 O                     6.31455   0.10965  -3.07344 
 C                     6.84096   0.13891  -4.39378 
 H                     0.66303  -0.15756   0.97303 
 H                     0.65426  -0.94922  -0.61897 
 H                     0.68548   0.80774  -0.51535 
 H                     2.92097  -1.04557   0.48325 
 H                     2.9522    0.74688   0.4925 
 H                     4.51673  -0.79107  -3.52437 
 H                     4.66992   1.49612  -4.66729 
 H                     4.7146    2.2685   -3.11434 
 H                     2.39548   1.40727  -2.68314 
 H                     2.46145   0.52026  -4.23924 
 H                     0.59747   2.53147  -3.26062 
 H                     0.57941   1.71159  -4.84175 
 H                     0.83566   4.7273   -4.37884 
 H                     0.63702   3.1217   -6.9772 
 H                     2.06984   3.98742  -6.40205 
 H                     0.61933   4.89297  -6.85245 
 H                    -1.4723    3.02716  -5.4824 
 H                    -1.45771   4.79807  -5.3732 
 H                    -1.44416   3.81508  -3.89687 
 H                     7.93035   0.08279  -4.33365 
 H                     6.6086    1.08154  -4.89592 
 H                     6.46767  -0.70506  -4.98022 
 

 GradGradGradGradGradGradGradGradGradGradGradGradGradGradGradGradGradGrad
 Berny optimization.
 Initialization pass.
                           ----------------------------
                           !    Initial Parameters    !
                           ! (Angstroms and Degrees)  !
 --------------------------                            --------------------------
 ! Name  Definition              Value          Derivative Info.                !
 --------------------------------------------------------------------------------
 ! R1    R(1,2)                  1.5235         estimate D2E/DX2                !
 ! R2    R(1,16)                 1.0956         estimate D2E/DX2                !
 ! R3    R(1,17)                 1.0945         estimate D2E/DX2                !
 ! R4    R(1,18)                 1.0959         estimate D2E/DX2                !
 ! R5    R(2,3)                  1.4398         estimate D2E/DX2                !
 ! R6    R(2,19)                 1.0932         estimate D2E/DX2                !
 ! R7    R(2,20)                 1.0968         estimate D2E/DX2                !
 ! R8    R(3,4)                  1.3714         estimate D2E/DX2                !
 ! R9    R(4,5)                  1.228          estimate D2E/DX2                !
 ! R10   R(4,6)                  1.5579         estimate D2E/DX2                !
 ! R11   R(6,7)                  1.533          estimate D2E/DX2                !
 ! R12   R(6,14)                 1.4388         estimate D2E/DX2                !
 ! R13   R(6,21)                 1.0979         estimate D2E/DX2                !
 ! R14   R(7,8)                  1.5067         estimate D2E/DX2                !
 ! R15   R(7,22)                 1.0962         estimate D2E/DX2                !
 ! R16   R(7,23)                 1.0971         estimate D2E/DX2                !
 ! R17   R(8,9)                  1.4168         estimate D2E/DX2                !
 ! R18   R(8,24)                 1.0862         estimate D2E/DX2                !
 ! R19   R(8,25)                 1.0965         estimate D2E/DX2                !
 ! R20   R(9,10)                 1.425          estimate D2E/DX2                !
 ! R21   R(10,11)                1.5184         estimate D2E/DX2                !
 ! R22   R(10,26)                1.0978         estimate D2E/DX2                !
 ! R23   R(10,27)                1.0972         estimate D2E/DX2                !
 ! R24   R(11,12)                1.5268         estimate D2E/DX2                !
 ! R25   R(11,13)                1.5228         estimate D2E/DX2                !
 ! R26   R(11,28)                1.0976         estimate D2E/DX2                !
 ! R27   R(12,29)                1.0954         estimate D2E/DX2                !
 ! R28   R(12,30)                1.0954         estimate D2E/DX2                !
 ! R29   R(12,31)                1.093          estimate D2E/DX2                !
 ! R30   R(13,32)                1.0959         estimate D2E/DX2                !
 ! R31   R(13,33)                1.0929         estimate D2E/DX2                !
 ! R32   R(13,34)                1.0954         estimate D2E/DX2                !
 ! R33   R(14,15)                1.4217         estimate D2E/DX2                !
 ! R34   R(15,35)                1.0925         estimate D2E/DX2                !
 ! R35   R(15,36)                1.093          estimate D2E/DX2                !
 ! R36   R(15,37)                1.0934         estimate D2E/DX2                !
 ! A1    A(2,1,16)             110.6638         estimate D2E/DX2                !
 ! A2    A(2,1,17)             111.04           estimate D2E/DX2                !
 ! A3    A(2,1,18)             111.3722         estimate D2E/DX2                !
 ! A4    A(16,1,17)            108.5527         estimate D2E/DX2                !
 ! A5    A(16,1,18)            108.1071         estimate D2E/DX2                !
 ! A6    A(17,1,18)            106.9624         estimate D2E/DX2                !
 ! A7    A(1,2,3)              109.9517         estimate D2E/DX2                !
 ! A8    A(1,2,19)             109.3442         estimate D2E/DX2                !
 ! A9    A(1,2,20)             108.8311         estimate D2E/DX2                !
 ! A10   A(3,2,19)             108.5391         estimate D2E/DX2                !
 ! A11   A(3,2,20)             110.274          estimate D2E/DX2                !
 ! A12   A(19,2,20)            109.8885         estimate D2E/DX2                !
 ! A13   A(2,3,4)              115.4708         estimate D2E/DX2                !
 ! A14   A(3,4,5)              122.9337         estimate D2E/DX2                !
 ! A15   A(3,4,6)              111.7476         estimate D2E/DX2                !
 ! A16   A(5,4,6)              125.3121         estimate D2E/DX2                !
 ! A17   A(4,6,7)              111.7836         estimate D2E/DX2                !
 ! A18   A(4,6,14)             109.1616         estimate D2E/DX2                !
 ! A19   A(4,6,21)             107.2583         estimate D2E/DX2                !
 ! A20   A(7,6,14)             109.4107         estimate D2E/DX2                !
 ! A21   A(7,6,21)             111.2165         estimate D2E/DX2                !
 ! A22   A(14,6,21)            107.9015         estimate D2E/DX2                !
 ! A23   A(6,7,8)              112.3044         estimate D2E/DX2                !
 ! A24   A(6,7,22)             111.4155         estimate D2E/DX2                !
 ! A25   A(6,7,23)             110.585          estimate D2E/DX2                !
 ! A26   A(8,7,22)             106.3221         estimate D2E/DX2                !
 ! A27   A(8,7,23)             111.3089         estimate D2E/DX2                !
 ! A28   A(22,7,23)            104.5649         estimate D2E/DX2                !
 ! A29   A(7,8,9)              109.634          estimate D2E/DX2                !
 ! A30   A(7,8,24)             111.1354         estimate D2E/DX2                !
 ! A31   A(7,8,25)             109.7737         estimate D2E/DX2                !
 ! A32   A(9,8,24)             106.2871         estimate D2E/DX2                !
 ! A33   A(9,8,25)             109.5406         estimate D2E/DX2                !
 ! A34   A(24,8,25)            110.4038         estimate D2E/DX2                !
 ! A35   A(8,9,10)             108.3847         estimate D2E/DX2                !
 ! A36   A(9,10,11)            109.1477         estimate D2E/DX2                !
 ! A37   A(9,10,26)            109.5245         estimate D2E/DX2                !
 ! A38   A(9,10,27)            108.8506         estimate D2E/DX2                !
 ! A39   A(11,10,26)           110.129          estimate D2E/DX2                !
 ! A40   A(11,10,27)           110.6875         estimate D2E/DX2                !
 ! A41   A(26,10,27)           108.4775         estimate D2E/DX2                !
 ! A42   A(10,11,12)           110.248          estimate D2E/DX2                !
 ! A43   A(10,11,13)           109.0417         estimate D2E/DX2                !
 ! A44   A(10,11,28)           108.8361         estimate D2E/DX2                !
 ! A45   A(12,11,13)           110.8323         estimate D2E/DX2                !
 ! A46   A(12,11,28)           108.2247         estimate D2E/DX2                !
 ! A47   A(13,11,28)           109.6274         estimate D2E/DX2                !
 ! A48   A(11,12,29)           110.7159         estimate D2E/DX2                !
 ! A49   A(11,12,30)           111.282          estimate D2E/DX2                !
 ! A50   A(11,12,31)           110.6608         estimate D2E/DX2                !
 ! A51   A(29,12,30)           107.7904         estimate D2E/DX2                !
 ! A52   A(29,12,31)           108.4677         estimate D2E/DX2                !
 ! A53   A(30,12,31)           107.8033         estimate D2E/DX2                !
 ! A54   A(11,13,32)           110.751          estimate D2E/DX2                !
 ! A55   A(11,13,33)           110.7378         estimate D2E/DX2                !
 ! A56   A(11,13,34)           110.8184         estimate D2E/DX2                !
 ! A57   A(32,13,33)           108.3181         estimate D2E/DX2                !
 ! A58   A(32,13,34)           107.8179         estimate D2E/DX2                !
 ! A59   A(33,13,34)           108.2921         estimate D2E/DX2                !
 ! A60   A(6,14,15)            114.7943         estimate D2E/DX2                !
 ! A61   A(14,15,35)           108.4841         estimate D2E/DX2                !
 ! A62   A(14,15,36)           111.4498         estimate D2E/DX2                !
 ! A63   A(14,15,37)           110.8428         estimate D2E/DX2                !
 ! A64   A(35,15,36)           106.3539         estimate D2E/DX2                !
 ! A65   A(35,15,37)           109.2871         estimate D2E/DX2                !
 ! A66   A(36,15,37)           110.2852         estimate D2E/DX2                !
 ! D1    D(16,1,2,3)           176.0978         estimate D2E/DX2                !
 ! D2    D(16,1,2,19)           57.0242         estimate D2E/DX2                !
 ! D3    D(16,1,2,20)          -63.0194         estimate D2E/DX2                !
 ! D4    D(17,1,2,3)            55.4727         estimate D2E/DX2                !
 ! D5    D(17,1,2,19)          -63.6009         estimate D2E/DX2                !
 ! D6    D(17,1,2,20)          176.3555         estimate D2E/DX2                !
 ! D7    D(18,1,2,3)           -63.6185         estimate D2E/DX2                !
 ! D8    D(18,1,2,19)          177.308          estimate D2E/DX2                !
 ! D9    D(18,1,2,20)           57.2643         estimate D2E/DX2                !
 ! D10   D(1,2,3,4)            172.3096         estimate D2E/DX2                !
 ! D11   D(19,2,3,4)           -68.1248         estimate D2E/DX2                !
 ! D12   D(20,2,3,4)            52.2987         estimate D2E/DX2                !
 ! D13   D(2,3,4,5)              8.0538         estimate D2E/DX2                !
 ! D14   D(2,3,4,6)           -172.835          estimate D2E/DX2                !
 ! D15   D(3,4,6,7)             64.2717         estimate D2E/DX2                !
 ! D16   D(3,4,6,14)          -174.5465         estimate D2E/DX2                !
 ! D17   D(3,4,6,21)           -57.8859         estimate D2E/DX2                !
 ! D18   D(5,4,6,7)           -116.6424         estimate D2E/DX2                !
 ! D19   D(5,4,6,14)             4.5394         estimate D2E/DX2                !
 ! D20   D(5,4,6,21)           121.2            estimate D2E/DX2                !
 ! D21   D(4,6,7,8)            -63.354          estimate D2E/DX2                !
 ! D22   D(4,6,7,22)           177.4903         estimate D2E/DX2                !
 ! D23   D(4,6,7,23)            61.6506         estimate D2E/DX2                !
 ! D24   D(14,6,7,8)           175.6086         estimate D2E/DX2                !
 ! D25   D(14,6,7,22)           56.453          estimate D2E/DX2                !
 ! D26   D(14,6,7,23)          -59.3868         estimate D2E/DX2                !
 ! D27   D(21,6,7,8)            56.5049         estimate D2E/DX2                !
 ! D28   D(21,6,7,22)          -62.6507         estimate D2E/DX2                !
 ! D29   D(21,6,7,23)         -178.4905         estimate D2E/DX2                !
 ! D30   D(4,6,14,15)          175.8834         estimate D2E/DX2                !
 ! D31   D(7,6,14,15)          -61.5019         estimate D2E/DX2                !
 ! D32   D(21,6,14,15)          59.6324         estimate D2E/DX2                !
 ! D33   D(6,7,8,9)           -178.0017         estimate D2E/DX2                !
 ! D34   D(6,7,8,24)            64.7949         estimate D2E/DX2                !
 ! D35   D(6,7,8,25)           -57.6287         estimate D2E/DX2                !
 ! D36   D(22,7,8,9)           -55.9043         estimate D2E/DX2                !
 ! D37   D(22,7,8,24)         -173.1078         estimate D2E/DX2                !
 ! D38   D(22,7,8,25)           64.4687         estimate D2E/DX2                !
 ! D39   D(23,7,8,9)            57.3924         estimate D2E/DX2                !
 ! D40   D(23,7,8,24)          -59.8111         estimate D2E/DX2                !
 ! D41   D(23,7,8,25)          177.7654         estimate D2E/DX2                !
 ! D42   D(7,8,9,10)          -177.3977         estimate D2E/DX2                !
 ! D43   D(24,8,9,10)          -57.1942         estimate D2E/DX2                !
 ! D44   D(25,8,9,10)           62.0877         estimate D2E/DX2                !
 ! D45   D(8,9,10,11)          178.5967         estimate D2E/DX2                !
 ! D46   D(8,9,10,26)           57.9572         estimate D2E/DX2                !
 ! D47   D(8,9,10,27)          -60.4928         estimate D2E/DX2                !
 ! D48   D(9,10,11,12)          58.0701         estimate D2E/DX2                !
 ! D49   D(9,10,11,13)         179.9619         estimate D2E/DX2                !
 ! D50   D(9,10,11,28)         -60.4875         estimate D2E/DX2                !
 ! D51   D(26,10,11,12)        178.339          estimate D2E/DX2                !
 ! D52   D(26,10,11,13)        -59.7692         estimate D2E/DX2                !
 ! D53   D(26,10,11,28)         59.7813         estimate D2E/DX2                !
 ! D54   D(27,10,11,12)        -61.7126         estimate D2E/DX2                !
 ! D55   D(27,10,11,13)         60.1792         estimate D2E/DX2                !
 ! D56   D(27,10,11,28)        179.7298         estimate D2E/DX2                !
 ! D57   D(10,11,12,29)         59.5888         estimate D2E/DX2                !
 ! D58   D(10,11,12,30)        -60.2706         estimate D2E/DX2                !
 ! D59   D(10,11,12,31)        179.8905         estimate D2E/DX2                !
 ! D60   D(13,11,12,29)        -61.2372         estimate D2E/DX2                !
 ! D61   D(13,11,12,30)        178.9034         estimate D2E/DX2                !
 ! D62   D(13,11,12,31)         59.0645         estimate D2E/DX2                !
 ! D63   D(28,11,12,29)        178.5201         estimate D2E/DX2                !
 ! D64   D(28,11,12,30)         58.6607         estimate D2E/DX2                !
 ! D65   D(28,11,12,31)        -61.1783         estimate D2E/DX2                !
 ! D66   D(10,11,13,32)        -60.5962         estimate D2E/DX2                !
 ! D67   D(10,11,13,33)        179.2162         estimate D2E/DX2                !
 ! D68   D(10,11,13,34)         59.0168         estimate D2E/DX2                !
 ! D69   D(12,11,13,32)         60.9413         estimate D2E/DX2                !
 ! D70   D(12,11,13,33)        -59.2463         estimate D2E/DX2                !
 ! D71   D(12,11,13,34)       -179.4457         estimate D2E/DX2                !
 ! D72   D(28,11,13,32)       -179.6549         estimate D2E/DX2                !
 ! D73   D(28,11,13,33)         60.1575         estimate D2E/DX2                !
 ! D74   D(28,11,13,34)        -60.0419         estimate D2E/DX2                !
 ! D75   D(6,14,15,35)        -176.686          estimate D2E/DX2                !
 ! D76   D(6,14,15,36)          66.5499         estimate D2E/DX2                !
 ! D77   D(6,14,15,37)         -56.691          estimate D2E/DX2                !
 --------------------------------------------------------------------------------
 Trust Radius=3.00D-01 FncErr=1.00D-07 GrdErr=1.00D-06 EigMax=2.50D+02 EigMin=1.00D-04
 Number of steps in this run=    189 maximum allowed number of steps=    222.
 GradGradGradGradGradGradGradGradGradGradGradGradGradGradGradGradGradGrad

                          Input orientation:                          
 ---------------------------------------------------------------------
 Center     Atomic      Atomic             Coordinates (Angstroms)
 Number     Number       Type             X           Y           Z
 ---------------------------------------------------------------------
      1          6           0        1.060400   -0.109240   -0.046830
      2          6           0        2.583440   -0.142720   -0.032530
      3          8           0        3.086930   -0.170620   -1.381140
      4          6           0        4.446050   -0.036470   -1.506170
      5          8           0        5.209070   -0.045080   -0.544060
      6          6           0        4.877790    0.101480   -2.996730
      7          6           0        4.326350    1.382820   -3.632490
      8          6           0        2.820570    1.394030   -3.682650
      9          8           0        2.374270    2.578100   -4.319970
     10          6           0        0.949510    2.590240   -4.298810
     11          6           0        0.452670    3.870090   -4.947380
     12          6           0        0.974740    3.974500   -6.378310
     13          6           0       -1.069910    3.880120   -4.924330
     14          8           0        6.314550    0.109650   -3.073440
     15          6           0        6.840960    0.138910   -4.393780
     16          1           0        0.663030   -0.157560    0.973030
     17          1           0        0.654260   -0.949220   -0.618970
     18          1           0        0.685480    0.807740   -0.515350
     19          1           0        2.920970   -1.045570    0.483250
     20          1           0        2.952200    0.746880    0.492500
     21          1           0        4.516730   -0.791070   -3.524370
     22          1           0        4.669920    1.496120   -4.667290
     23          1           0        4.714600    2.268500   -3.114340
     24          1           0        2.395480    1.407270   -2.683140
     25          1           0        2.461450    0.520260   -4.239240
     26          1           0        0.597470    2.531470   -3.260620
     27          1           0        0.579410    1.711590   -4.841750
     28          1           0        0.835660    4.727300   -4.378840
     29          1           0        0.637020    3.121700   -6.977200
     30          1           0        2.069840    3.987420   -6.402050
     31          1           0        0.619330    4.892970   -6.852450
     32          1           0       -1.472300    3.027160   -5.482400
     33          1           0       -1.457710    4.798070   -5.373200
     34          1           0       -1.444160    3.815080   -3.896870
     35          1           0        7.930350    0.082790   -4.333650
     36          1           0        6.608600    1.081540   -4.895920
     37          1           0        6.467670   -0.705060   -4.980220
 ---------------------------------------------------------------------
                    Distance matrix (angstroms):
                    1          2          3          4          5
     1  C    0.000000
     2  C    1.523475   0.000000
     3  O    2.427133   1.439802   0.000000
     4  C    3.687492   2.377440   1.371436   0.000000
     5  O    4.178854   2.676776   2.284719   1.227978   0.000000
     6  C    4.828952   3.756349   2.427210   1.557947   2.479277
     7  C    5.074409   4.280738   3.002984   2.559287   3.515180
     8  C    4.310128   3.967519   2.795716   3.070111   4.198418
     9  O    5.216107   5.082200   4.086572   4.364140   5.401357
    10  C    5.037740   5.323527   4.550133   5.188857   6.259945
    11  C    6.341908   6.693174   5.998727   6.561267   7.572392
    12  C    7.534714   7.733585   6.827523   7.202473   8.253790
    13  C    6.651558   7.311629   6.800148   7.579532   8.603462
    14  O    6.067485   4.819959   3.655128   2.443149   2.764741
    15  C    7.236880   6.101335   4.823334   3.755615   4.185363
    16  H    1.095606   2.167797   3.378991   4.524637   4.793818
    17  H    1.094468   2.171656   2.665521   3.999738   4.644284
    18  H    1.095869   2.176865   2.733815   3.979485   4.603368
    19  H    2.149283   1.093203   2.066163   2.702211   2.700324
    20  H    2.145396   1.096827   2.090571   2.615322   2.606745
    21  H    4.950191   4.043626   2.650042   2.155817   3.149299
    22  H    6.079019   5.340430   4.010319   3.520175   4.434750
    23  H    5.330708   4.455713   3.406259   2.823334   3.493350
    24  H    3.321501   3.076285   2.159408   2.770285   3.821161
    25  H    4.464920   4.260379   3.006206   3.423194   4.639330
    26  H    4.185224   4.638527   4.126881   4.948129   5.940132
    27  H    5.151508   5.530208   4.669710   5.397473   6.556659
    28  H    6.496841   6.757384   6.167985   6.631791   7.523820
    29  H    7.658215   7.916655   6.939547   7.376647   8.503965
    30  H    7.628264   7.608720   6.597977   6.768139   7.773794
    31  H    8.457725   8.702138   7.852657   8.217413   9.232867
    32  H    6.767348   7.496549   6.916119   7.760354   8.858136
    33  H    7.667645   8.322563   7.828038   8.554594   9.551055
    34  H    6.041185   6.842431   6.538003   7.432662   8.390926
    35  H    8.099995   6.865853   5.678050   4.488787   4.667195
    36  H    7.464191   6.430652   5.130667   4.173365   4.708146
    37  H    7.343835   6.315307   4.966730   4.074676   4.658236
                    6          7          8          9         10
     6  C    0.000000
     7  C    1.533007   0.000000
     8  C    2.524545   1.506657   0.000000
     9  O    3.761944   2.389966   1.416821   0.000000
    10  C    4.829153   3.647587   2.304656   1.424969   0.000000
    11  C    6.130999   4.787572   3.652036   2.399047   1.518390
    12  C    6.455166   5.048725   4.163232   2.854011   2.498226
    13  C    7.305402   6.084816   4.781030   3.731338   2.476514
    14  O    1.438830   2.426198   3.772090   4.813823   6.036432
    15  C    2.409810   2.906912   4.271366   5.089835   6.381788
    16  H    5.795714   6.083050   5.360762   6.199034   5.951871
    17  H    4.959427   5.291877   4.423783   5.394240   5.114311
    18  H    4.922551   4.827340   3.864471   4.523419   4.190655
    19  H    4.153929   4.981113   4.828711   6.041588   6.322489
    20  H    4.037222   4.394115   4.227057   5.181432   5.510480
    21  H    1.097913   2.184887   2.770681   4.071169   4.975749
    22  H    2.186093   1.096215   2.097626   2.561508   3.895424
    23  H    2.176336   1.097108   2.162180   2.650762   3.960100
    24  H    2.822284   2.151772   1.086231   2.012587   2.469947
    25  H    2.749165   2.142430   1.096464   2.061267   2.564045
    26  H    4.929060   3.919468   2.532598   2.069158   1.097827
    27  H    4.946981   3.950944   2.543060   2.060247   1.097171
    28  H    6.296607   4.891575   3.941477   2.643832   2.141586
    29  H    6.553625   5.274651   4.313559   3.220933   2.748431
    30  H    5.880588   4.421113   3.832023   2.532571   2.762403
    31  H    7.480604   6.035834   5.209191   3.853815   3.454368
    32  H    7.420364   6.304789   4.933046   4.043390   2.730741
    33  H    8.236755   6.938974   5.722685   4.552102   3.438537
    34  H    7.387024   6.267741   4.908696   4.036030   2.718721
    35  H    3.332541   3.894935   5.315355   6.090713   7.417590
    36  H    2.750117   2.625965   3.989843   4.527799   5.887106
    37  H    2.666919   3.280377   4.403545   5.288761   6.463235
                   11         12         13         14         15
    11  C    0.000000
    12  C    1.526768   0.000000
    13  C    1.522787   2.510689   0.000000
    14  O    7.212087   7.373792   8.495439   0.000000
    15  C    7.418789   7.284411   8.766984   1.421711   0.000000
    16  H    7.163621   8.438796   7.354237   6.955933   8.188856
    17  H    6.480858   7.583912   6.695626   6.259753   7.328607
    18  H    5.392131   6.669808   5.653319   6.222345   7.306127
    19  H    7.729680   8.721807   8.332555   5.049848   6.368260
    20  H    6.752361   7.844483   7.438858   4.942407   6.274378
    21  H    6.345704   6.587968   7.415555   2.060774   2.650053
    22  H    4.847616   4.767002   6.220545   2.677212   2.574926
    23  H    4.908072   5.248856   6.271678   2.687405   3.270096
    24  H    3.868692   4.718416   4.811117   4.146717   4.929231
    25  H    3.969637   4.326396   4.922247   4.046489   4.398797
    26  H    2.158247   3.456105   2.714211   6.211703   6.781560
    27  H    2.164796   2.763705   2.725729   6.211680   6.471554
    28  H    1.097601   2.141012   2.155567   7.283200   7.557590
    29  H    2.171230   1.095441   2.775443   7.519716   7.352548
    30  H    2.178318   1.095433   3.471772   6.643366   6.450408
    31  H    2.168721   1.093029   2.756274   8.342458   8.206999
    32  H    2.168476   2.772745   1.095856   8.657366   8.867772
    33  H    2.166107   2.757776   1.092934   9.363664   9.567390
    34  H    2.169000   3.469011   1.095430   8.637467   9.077685
    35  H    8.404523   8.228399   9.786383   2.049307   1.092491
    36  H    6.758264   6.504389   8.172660   2.086257   1.093017
    37  H    7.557334   7.350185   8.822818   2.079184   1.093409
                   16         17         18         19         20
    16  H    0.000000
    17  H    1.777995   0.000000
    18  H    1.774143   1.760290   0.000000
    19  H    2.475225   2.522330   3.070729   0.000000
    20  H    2.507832   3.064743   2.481428   1.792746   0.000000
    21  H    5.956421   4.835808   5.127267   4.321139   4.576930
    22  H    7.113581   6.204362   5.795536   6.003922   5.489568
    23  H    6.245605   5.750387   5.012223   5.209877   4.293096
    24  H    4.337932   3.584088   2.825394   4.039627   3.291009
    25  H    5.555314   4.304842   4.135707   4.996488   4.762516
    26  H    5.015872   4.369982   3.242761   5.675423   4.776549
    27  H    6.108386   4.991731   4.421078   6.437426   5.917349
    28  H    7.248046   6.811197   5.505639   7.830355   6.637276
    29  H    8.600022   7.549820   6.863837   8.845388   8.172897
    30  H    8.576233   7.734229   6.832280   8.571042   7.669060
    31  H    9.313855   8.543341   7.540048   9.714746   8.751036
    32  H    7.508306   6.632255   5.852643   8.454403   7.776587
    33  H    8.326490   7.752062   6.641890   9.360501   8.382475
    34  H    6.628578   6.151955   5.001414   7.865477   6.928810
    35  H    9.001809   8.234402   8.221503   7.040569   6.965251
    36  H    8.445694   7.607263   7.372090   6.859933   6.520455
    37  H    8.332754   7.271578   7.460385   6.522617   6.664632
                   21         22         23         24         25
    21  H    0.000000
    22  H    2.561439   0.000000
    23  H    3.093258   1.734999   0.000000
    24  H    3.168607   3.019573   2.511169   0.000000
    25  H    2.540630   2.452115   3.065686   1.792369   0.000000
    26  H    5.144845   4.431198   4.128112   2.197760   2.911543
    27  H    4.847812   4.099895   4.515960   2.837308   2.307457
    28  H    6.688259   5.022477   4.763490   4.041168   4.512413
    29  H    6.502611   4.923665   5.681223   4.946757   4.194337
    30  H    6.091164   3.997047   4.556147   4.538007   4.105156
    31  H    7.653375   5.720209   6.134537   5.717338   5.416906
    32  H    7.367580   6.382425   6.667909   5.041788   4.827461
    33  H    8.387526   6.996358   7.042626   5.794913   5.911458
    34  H    7.542386   6.584307   6.398014   4.691857   5.121215
    35  H    3.615435   3.569205   4.074935   5.925641   5.487181
    36  H    3.124698   1.995652   2.858345   4.769997   4.236168
    37  H    2.435788   2.859200   3.923878   5.130424   4.254440
                   26         27         28         29         30
    26  H    0.000000
    27  H    1.781152   0.000000
    28  H    2.475645   3.061773   0.000000
    29  H    3.763363   2.559663   3.060863   0.000000
    30  H    3.762479   3.136131   2.482741   1.770097   0.000000
    31  H    4.298651   3.763733   2.488572   1.775746   1.768293
    32  H    3.076680   2.520054   3.071645   2.587005   3.783465
    33  H    3.718096   3.736128   2.500661   3.125848   3.762884
    34  H    2.494137   3.067948   2.502403   3.781603   4.319007
    35  H    7.805034   7.546355   8.479867   8.331626   7.339618
    36  H    6.396107   6.062263   6.847319   6.644829   5.595794
    37  H    6.920361   6.366394   7.848040   7.254550   6.586492
                   31         32         33         34         35
    31  H    0.000000
    32  H    3.119808   0.000000
    33  H    2.551721   1.774334   0.000000
    34  H    3.762352   1.770739   1.773698   0.000000
    35  H    9.106767   9.919615  10.556998  10.099614   0.000000
    36  H    7.363855   8.332487   8.894141   8.562551   1.749478
    37  H    8.309408   8.787763   9.656631   9.176185   1.782749
                   36         37
    36  H    0.000000
    37  H    1.794131   0.000000
 Stoichiometry    C11H22O4
 Framework group  C1[X(C11H22O4)]
 Deg. of freedom   105
 Full point group                 C1      NOp   1
 Largest Abelian subgroup         C1      NOp   1
 Largest concise Abelian subgroup C1      NOp   1
                         Standard orientation:                         
 ---------------------------------------------------------------------
 Center     Atomic      Atomic             Coordinates (Angstroms)
 Number     Number       Type             X           Y           Z
 ---------------------------------------------------------------------
      1          6           0        1.011290    3.736941    0.332572
      2          6           0        2.070354    2.746183   -0.134072
      3          8           0        1.765946    1.430335    0.364838
      4          6           0        2.553791    0.418449   -0.121190
      5          8           0        3.548238    0.620084   -0.812816
      6          6           0        2.040410   -0.981077    0.331542
      7          6           0        0.653929   -1.291935   -0.243912
      8          6           0       -0.398834   -0.335201    0.252439
      9          8           0       -1.661548   -0.700773   -0.276043
     10          6           0       -2.624851    0.254485    0.159924
     11          6           0       -3.979740   -0.101600   -0.425727
     12          6           0       -4.384233   -1.511674   -0.002529
     13          6           0       -5.007357    0.920045    0.042383
     14          8           0        2.973512   -1.988272   -0.098701
     15          6           0        2.667280   -3.307924    0.332578
     16          1           0        1.268160    4.754372    0.017606
     17          1           0        0.914177    3.723922    1.422645
     18          1           0        0.025804    3.491529   -0.079157
     19          1           0        3.045916    3.048605    0.255690
     20          1           0        2.091869    2.741286   -1.230677
     21          1           0        2.024454   -0.982699    1.429338
     22          1           0        0.317696   -2.295384    0.041965
     23          1           0        0.687441   -1.314111   -1.340284
     24          1           0       -0.204408    0.675572   -0.094597
     25          1           0       -0.437937   -0.362380    1.347868
     26          1           0       -2.322511    1.257088   -0.169626
     27          1           0       -2.662044    0.245358    1.256426
     28          1           0       -3.909524   -0.078736   -1.520841
     29          1           0       -4.441017   -1.587409    1.088815
     30          1           0       -3.659648   -2.255023   -0.352363
     31          1           0       -5.360046   -1.774341   -0.419069
     32          1           0       -5.087929    0.916976    1.135268
     33          1           0       -5.992478    0.697378   -0.375304
     34          1           0       -4.721927    1.930497   -0.269841
     35          1           0        3.466860   -3.974776    0.001646
     36          1           0        1.748048   -3.676386   -0.129952
     37          1           0        2.587632   -3.352476    1.422172
 ---------------------------------------------------------------------
 Rotational constants (GHZ):           0.6769029           0.2835276           0.2064768
 Standard basis: 6-31G(2df,p) (6D, 7F)
 There are   575 symmetry adapted cartesian basis functions of A   symmetry.
 There are   530 symmetry adapted basis functions of A   symmetry.
   530 basis functions,   814 primitive gaussians,   575 cartesian basis functions
    60 alpha electrons       60 beta electrons
       nuclear repulsion energy      1069.7994601283 Hartrees.
 NAtoms=   37 NActive=   37 NUniq=   37 SFac= 1.00D+00 NAtFMM=   60 NAOKFM=F Big=F
 Integral buffers will be    131072 words long.
 Raffenetti 2 integral format.
 Two-electron integral symmetry is turned on.
 One-electron integrals computed using PRISM.
 PrsmSu:  requested number of processors reduced to:  12 ShMem   1 Linda.
 NBasis=   530 RedAO= T EigKep=  6.96D-04  NBF=   530
 NBsUse=   530 1.00D-06 EigRej= -1.00D+00 NBFU=   530
 ExpMin= 1.61D-01 ExpMax= 5.48D+03 ExpMxC= 8.25D+02 IAcc=3 IRadAn=         5 AccDes= 0.00D+00
 Harris functional with IExCor=  402 and IRadAn=       5 diagonalized for initial guess.
 HarFok:  IExCor=  402 AccDes= 0.00D+00 IRadAn=         5 IDoV= 1 UseB2=F ITyADJ=14
 ICtDFT=  3500011 ScaDFX=  1.000000  1.000000  1.000000  1.000000
 FoFCou: FMM=F IPFlag=           0 FMFlag=      100000 FMFlg1=           0
         NFxFlg=           0 DoJE=T BraDBF=F KetDBF=T FulRan=T
         wScrn=  0.000000 ICntrl=       500 IOpCl=  0 I1Cent=   200000004 NGrid=           0
         NMat0=    1 NMatS0=      1 NMatT0=    0 NMatD0=    1 NMtDS0=    0 NMtDT0=    0
 Petite list used in FoFCou.
 Requested convergence on RMS density matrix=1.00D-08 within 128 cycles.
 Requested convergence on MAX density matrix=1.00D-06.
 Requested convergence on             energy=1.00D-06.
 No special actions if energy rises.
 Integral accuracy reduced to 1.0D-05 until final iterations.
 Initial convergence to 1.0D-05 achieved.  Increase integral accuracy.
 SCF Done:  E(RB3LYP) =  -733.347875272     A.U. after   13 cycles
            NFock= 13  Conv=0.97D-08     -V/T= 2.0076

 **********************************************************************

            Population analysis using the SCF density.

 **********************************************************************

 Orbital symmetries:
       Occupied  (A) (A) (A) (A) (A) (A) (A) (A) (A) (A) (A) (A)
                 (A) (A) (A) (A) (A) (A) (A) (A) (A) (A) (A) (A)
                 (A) (A) (A) (A) (A) (A) (A) (A) (A) (A) (A) (A)
                 (A) (A) (A) (A) (A) (A) (A) (A) (A) (A) (A) (A)
                 (A) (A) (A) (A) (A) (A) (A) (A) (A) (A) (A) (A)
       Virtual   (A) (A) (A) (A) (A) (A) (A) (A) (A) (A) (A) (A)
                 (A) (A) (A) (A) (A) (A) (A) (A) (A) (A) (A) (A)
                 (A) (A) (A) (A) (A) (A) (A) (A) (A) (A) (A) (A)
                 (A) (A) (A) (A) (A) (A) (A) (A) (A) (A) (A) (A)
                 (A) (A) (A) (A) (A) (A) (A) (A) (A) (A) (A) (A)
                 (A) (A) (A) (A) (A) (A) (A) (A) (A) (A) (A) (A)
                 (A) (A) (A) (A) (A) (A) (A) (A) (A) (A) (A) (A)
                 (A) (A) (A) (A) (A) (A) (A) (A) (A) (A) (A) (A)
                 (A) (A) (A) (A) (A) (A) (A) (A) (A) (A) (A) (A)
                 (A) (A) (A) (A) (A) (A) (A) (A) (A) (A) (A) (A)
                 (A) (A) (A) (A) (A) (A) (A) (A) (A) (A) (A) (A)
                 (A) (A) (A) (A) (A) (A) (A) (A) (A) (A) (A) (A)
                 (A) (A) (A) (A) (A) (A) (A) (A) (A) (A) (A) (A)
                 (A) (A) (A) (A) (A) (A) (A) (A) (A) (A) (A) (A)
                 (A) (A) (A) (A) (A) (A) (A) (A) (A) (A) (A) (A)
                 (A) (A) (A) (A) (A) (A) (A) (A) (A) (A) (A) (A)
                 (A) (A) (A) (A) (A) (A) (A) (A) (A) (A) (A) (A)
                 (A) (A) (A) (A) (A) (A) (A) (A) (A) (A) (A) (A)
                 (A) (A) (A) (A) (A) (A) (A) (A) (A) (A) (A) (A)
                 (A) (A) (A) (A) (A) (A) (A) (A) (A) (A) (A) (A)
                 (A) (A) (A) (A) (A) (A) (A) (A) (A) (A) (A) (A)
                 (A) (A) (A) (A) (A) (A) (A) (A) (A) (A) (A) (A)
                 (A) (A) (A) (A) (A) (A) (A) (A) (A) (A) (A) (A)
                 (A) (A) (A) (A) (A) (A) (A) (A) (A) (A) (A) (A)
                 (A) (A) (A) (A) (A) (A) (A) (A) (A) (A) (A) (A)
                 (A) (A) (A) (A) (A) (A) (A) (A) (A) (A) (A) (A)
                 (A) (A) (A) (A) (A) (A) (A) (A) (A) (A) (A) (A)
                 (A) (A) (A) (A) (A) (A) (A) (A) (A) (A) (A) (A)
                 (A) (A) (A) (A) (A) (A) (A) (A) (A) (A) (A) (A)
                 (A) (A) (A) (A) (A) (A) (A) (A) (A) (A) (A) (A)
                 (A) (A) (A) (A) (A) (A) (A) (A) (A) (A) (A) (A)
                 (A) (A) (A) (A) (A) (A) (A) (A) (A) (A) (A) (A)
                 (A) (A) (A) (A) (A) (A) (A) (A) (A) (A) (A) (A)
                 (A) (A) (A) (A) (A) (A) (A) (A) (A) (A) (A) (A)
                 (A) (A) (A) (A) (A) (A) (A) (A) (A) (A) (A) (A)
                 (A) (A) (A) (A) (A) (A) (A) (A) (A) (A) (A) (A)
                 (A) (A) (A) (A) (A) (A) (A) (A) (A) (A) (A) (A)
                 (A) (A) (A) (A) (A) (A) (A) (A) (A) (A) (A) (A)
                 (A) (A) (A) (A) (A) (A) (A) (A) (A) (A) (A) (A)
                 (A) (A)
 The electronic state is 1-A.
 Alpha  occ. eigenvalues --  -19.18822 -19.14154 -19.13344 -19.12918 -10.31338
 Alpha  occ. eigenvalues --  -10.25623 -10.24562 -10.22596 -10.21967 -10.21866
 Alpha  occ. eigenvalues --  -10.19045 -10.18766 -10.18279 -10.17311 -10.16463
 Alpha  occ. eigenvalues --   -1.09553  -1.02873  -1.02694  -1.00346  -0.81103
 Alpha  occ. eigenvalues --   -0.79492  -0.76976  -0.72028  -0.68024  -0.67357
 Alpha  occ. eigenvalues --   -0.65988  -0.62861  -0.60015  -0.56667  -0.55972
 Alpha  occ. eigenvalues --   -0.52135  -0.50084  -0.49309  -0.48705  -0.47648
 Alpha  occ. eigenvalues --   -0.46217  -0.45380  -0.44879  -0.43939  -0.43043
 Alpha  occ. eigenvalues --   -0.42509  -0.40769  -0.40330  -0.39738  -0.39063
 Alpha  occ. eigenvalues --   -0.38470  -0.38391  -0.37516  -0.35928  -0.35374
 Alpha  occ. eigenvalues --   -0.34861  -0.33467  -0.32705  -0.32335  -0.31291
 Alpha  occ. eigenvalues --   -0.31066  -0.29893  -0.26864  -0.25779  -0.25044
 Alpha virt. eigenvalues --    0.00098   0.06683   0.09003   0.09167   0.09522
 Alpha virt. eigenvalues --    0.10675   0.12077   0.12686   0.13139   0.13609
 Alpha virt. eigenvalues --    0.14323   0.15108   0.15158   0.15456   0.15967
 Alpha virt. eigenvalues --    0.16276   0.16945   0.17324   0.17674   0.18289
 Alpha virt. eigenvalues --    0.18505   0.19072   0.20021   0.20781   0.21142
 Alpha virt. eigenvalues --    0.21257   0.22971   0.23006   0.23705   0.24628
 Alpha virt. eigenvalues --    0.24891   0.25899   0.26041   0.28266   0.30859
 Alpha virt. eigenvalues --    0.32296   0.36756   0.41530   0.42456   0.43913
 Alpha virt. eigenvalues --    0.45507   0.46391   0.47380   0.48036   0.48563
 Alpha virt. eigenvalues --    0.48814   0.49463   0.50227   0.50720   0.51223
 Alpha virt. eigenvalues --    0.51948   0.52973   0.53788   0.54719   0.56739
 Alpha virt. eigenvalues --    0.57226   0.57623   0.59030   0.59839   0.60539
 Alpha virt. eigenvalues --    0.61777   0.62433   0.62708   0.63099   0.64365
 Alpha virt. eigenvalues --    0.66498   0.67777   0.68313   0.69009   0.69878
 Alpha virt. eigenvalues --    0.70272   0.71264   0.72247   0.72508   0.73079
 Alpha virt. eigenvalues --    0.73374   0.73739   0.73849   0.74696   0.75385
 Alpha virt. eigenvalues --    0.75507   0.76016   0.76274   0.77265   0.78041
 Alpha virt. eigenvalues --    0.78544   0.78735   0.79519   0.80452   0.81355
 Alpha virt. eigenvalues --    0.82157   0.84012   0.84421   0.85374   0.85535
 Alpha virt. eigenvalues --    0.86122   0.87307   0.88206   0.89253   0.89430
 Alpha virt. eigenvalues --    0.89935   0.90955   0.92329   0.93729   0.94925
 Alpha virt. eigenvalues --    0.96809   0.97365   0.99075   0.99849   1.01585
 Alpha virt. eigenvalues --    1.02678   1.05162   1.06263   1.07232   1.07709
 Alpha virt. eigenvalues --    1.09940   1.10845   1.12680   1.13540   1.15457
 Alpha virt. eigenvalues --    1.16158   1.17559   1.18319   1.19137   1.22226
 Alpha virt. eigenvalues --    1.23475   1.25499   1.27451   1.28372   1.30923
 Alpha virt. eigenvalues --    1.31306   1.32445   1.32966   1.35535   1.36615
 Alpha virt. eigenvalues --    1.36977   1.37604   1.38058   1.39673   1.40304
 Alpha virt. eigenvalues --    1.41430   1.42002   1.43586   1.44451   1.44903
 Alpha virt. eigenvalues --    1.45904   1.46313   1.48439   1.49036   1.50857
 Alpha virt. eigenvalues --    1.51391   1.52299   1.52773   1.53491   1.54611
 Alpha virt. eigenvalues --    1.56562   1.59107   1.59600   1.61021   1.61525
 Alpha virt. eigenvalues --    1.62830   1.64475   1.64966   1.66855   1.69455
 Alpha virt. eigenvalues --    1.70045   1.71891   1.72952   1.73766   1.76528
 Alpha virt. eigenvalues --    1.76815   1.77880   1.78805   1.81000   1.82788
 Alpha virt. eigenvalues --    1.85180   1.85437   1.86125   1.86854   1.88287
 Alpha virt. eigenvalues --    1.89447   1.89708   1.91191   1.91767   1.94244
 Alpha virt. eigenvalues --    1.94479   1.94999   1.96339   1.96715   1.98287
 Alpha virt. eigenvalues --    1.99476   2.02723   2.05816   2.13290   2.16499
 Alpha virt. eigenvalues --    2.17086   2.18675   2.21017   2.21829   2.22880
 Alpha virt. eigenvalues --    2.23659   2.24230   2.25944   2.26632   2.30124
 Alpha virt. eigenvalues --    2.30507   2.30882   2.31470   2.32398   2.34327
 Alpha virt. eigenvalues --    2.39115   2.40135   2.41566   2.43231   2.43625
 Alpha virt. eigenvalues --    2.46248   2.49887   2.53705   2.55236   2.56294
 Alpha virt. eigenvalues --    2.58379   2.59495   2.63031   2.64626   2.66922
 Alpha virt. eigenvalues --    2.69219   2.72731   2.73495   2.74509   2.75177
 Alpha virt. eigenvalues --    2.75811   2.76157   2.76841   2.76924   2.77779
 Alpha virt. eigenvalues --    2.78455   2.79489   2.81571   2.83092   2.84144
 Alpha virt. eigenvalues --    2.84916   2.85676   2.86451   2.86993   2.87188
 Alpha virt. eigenvalues --    2.88420   2.89527   2.90379   2.91882   2.93261
 Alpha virt. eigenvalues --    2.94102   2.94877   2.95582   2.95749   2.96495
 Alpha virt. eigenvalues --    2.97710   2.98645   2.99568   3.00681   3.02158
 Alpha virt. eigenvalues --    3.04681   3.05826   3.07917   3.09302   3.11098
 Alpha virt. eigenvalues --    3.12302   3.13582   3.15313   3.15945   3.17192
 Alpha virt. eigenvalues --    3.17876   3.20113   3.21881   3.23253   3.26662
 Alpha virt. eigenvalues --    3.28949   3.29630   3.30623   3.33533   3.34119
 Alpha virt. eigenvalues --    3.35349   3.37045   3.38202   3.40172   3.41734
 Alpha virt. eigenvalues --    3.43205   3.43414   3.46314   3.47540   3.48004
 Alpha virt. eigenvalues --    3.48463   3.50707   3.51505   3.53484   3.55048
 Alpha virt. eigenvalues --    3.56598   3.56905   3.57672   3.60257   3.61183
 Alpha virt. eigenvalues --    3.62713   3.63460   3.64647   3.65807   3.66585
 Alpha virt. eigenvalues --    3.66773   3.69115   3.69432   3.72157   3.73060
 Alpha virt. eigenvalues --    3.73349   3.74361   3.75824   3.79742   3.80669
 Alpha virt. eigenvalues --    3.82170   3.85820   3.88897   3.91017   3.92319
 Alpha virt. eigenvalues --    3.93598   3.95600   3.97561   3.99237   4.00633
 Alpha virt. eigenvalues --    4.01387   4.02864   4.09770   4.11110   4.14821
 Alpha virt. eigenvalues --    4.17587   4.21632   4.24474   4.25049   4.26010
 Alpha virt. eigenvalues --    4.28159   4.30717   4.31904   4.33172   4.35367
 Alpha virt. eigenvalues --    4.36207   4.37311   4.37852   4.38519   4.40475
 Alpha virt. eigenvalues --    4.41287   4.41817   4.42906   4.43037   4.44448
 Alpha virt. eigenvalues --    4.46478   4.47093   4.47846   4.48489   4.49039
 Alpha virt. eigenvalues --    4.49396   4.50215   4.51361   4.52533   4.53538
 Alpha virt. eigenvalues --    4.55388   4.55955   4.57636   4.58109   4.59399
 Alpha virt. eigenvalues --    4.59687   4.59865   4.60900   4.61161   4.62130
 Alpha virt. eigenvalues --    4.62507   4.63099   4.64506   4.66592   4.67235
 Alpha virt. eigenvalues --    4.68915   4.70012   4.70911   4.72277   4.73177
 Alpha virt. eigenvalues --    4.73491   4.73859   4.75081   4.75769   4.76871
 Alpha virt. eigenvalues --    4.77880   4.78068   4.80053   4.80898   4.82022
 Alpha virt. eigenvalues --    4.83229   4.83849   4.85018   4.85716   4.86250
 Alpha virt. eigenvalues --    4.87080   4.87992   4.90328   4.92294   4.92672
 Alpha virt. eigenvalues --    4.94581   4.96860   5.00535   5.01203   5.02243
 Alpha virt. eigenvalues --    5.07244   5.08071   5.09372   5.12764   5.14574
 Alpha virt. eigenvalues --    5.16159   5.26344   5.29637   5.31151   5.32784
 Alpha virt. eigenvalues --    5.35704   5.36731   5.37632   5.40002   5.43993
 Alpha virt. eigenvalues --    5.44476   5.46635   5.48376   5.49671   5.49919
 Alpha virt. eigenvalues --    5.54110   5.56123   5.58202   5.60190   5.62821
 Alpha virt. eigenvalues --    5.68228   5.75244   5.80931   5.84135   5.85469
 Alpha virt. eigenvalues --    5.86197   5.88355   5.90269   5.95562   6.01007
 Alpha virt. eigenvalues --    6.04605   6.06288   6.10191   6.14322   6.14786
 Alpha virt. eigenvalues --    6.25113   6.30428   6.36357   6.44300   6.62248
 Alpha virt. eigenvalues --    6.69208   6.87671   7.07606   7.10286   7.28188
 Alpha virt. eigenvalues --   10.99909  11.22738  11.24183  11.30601  11.59127
 Alpha virt. eigenvalues --   11.82986  11.90015  11.91782  12.32106  12.47255
 Alpha virt. eigenvalues --   12.51019  13.04300  13.48976  13.52728  13.69272
          Condensed to atoms (all electrons):
               1          2          3          4          5          6
     1  C    4.988226   0.394436  -0.026763   0.003589   0.001095   0.000063
     2  C    0.394436   4.709693   0.301468  -0.049697   0.002164   0.005253
     3  O   -0.026763   0.301468   7.749805   0.366839  -0.053708  -0.051824
     4  C    0.003589  -0.049697   0.366839   4.234445   0.726484   0.346159
     5  O    0.001095   0.002164  -0.053708   0.726484   7.693041  -0.028920
     6  C    0.000063   0.005253  -0.051824   0.346159  -0.028920   4.867717
     7  C   -0.000011   0.000291  -0.000699  -0.004673  -0.002298   0.328527
     8  C   -0.000170   0.000128  -0.011091  -0.005324   0.000123  -0.032896
     9  O    0.000006  -0.000016   0.000214  -0.000073  -0.000000   0.001262
    10  C   -0.000041  -0.000004   0.000011  -0.000019  -0.000000  -0.000228
    11  C    0.000000   0.000000  -0.000000  -0.000000  -0.000000   0.000001
    12  C   -0.000000   0.000000   0.000000  -0.000000   0.000000  -0.000000
    13  C    0.000000   0.000000  -0.000000  -0.000000   0.000000   0.000000
    14  O    0.000000  -0.000014  -0.000019  -0.014266  -0.002116   0.352749
    15  C   -0.000000   0.000002  -0.000019   0.004041   0.000108  -0.083575
    16  H    0.373894  -0.023959   0.001900  -0.000053   0.000015   0.000004
    17  H    0.372927  -0.022493   0.000803   0.000117  -0.000009   0.000002
    18  H    0.375181  -0.023033  -0.000336   0.000024  -0.000011  -0.000005
    19  H   -0.040863   0.375577  -0.023391  -0.001124   0.004152  -0.000076
    20  H   -0.039634   0.371756  -0.027563   0.000839   0.006352   0.000610
    21  H   -0.000016  -0.000272   0.003042  -0.033063   0.000930   0.343827
    22  H    0.000000   0.000011  -0.000032   0.001529  -0.000039  -0.024140
    23  H   -0.000002  -0.000072   0.000108  -0.005657   0.000543  -0.018657
    24  H   -0.000401   0.000133   0.014456   0.001063   0.000029  -0.001743
    25  H    0.000046  -0.000084   0.001111  -0.001517  -0.000001   0.002303
    26  H   -0.000093   0.000005  -0.000089   0.000000   0.000000   0.000024
    27  H    0.000006  -0.000000   0.000004  -0.000002   0.000000   0.000048
    28  H    0.000000  -0.000000  -0.000000   0.000000   0.000000   0.000000
    29  H    0.000000   0.000000  -0.000000   0.000000   0.000000   0.000000
    30  H   -0.000000   0.000000  -0.000000  -0.000000   0.000000   0.000001
    31  H    0.000000   0.000000  -0.000000   0.000000   0.000000  -0.000000
    32  H    0.000000  -0.000000  -0.000000   0.000000   0.000000   0.000000
    33  H    0.000000  -0.000000  -0.000000  -0.000000  -0.000000   0.000000
    34  H   -0.000000   0.000000   0.000000   0.000000  -0.000000  -0.000000
    35  H    0.000000  -0.000000   0.000000  -0.000113   0.000008   0.004259
    36  H    0.000000  -0.000000   0.000001  -0.000143  -0.000004  -0.003337
    37  H    0.000000   0.000000   0.000002  -0.000035  -0.000001  -0.006804
               7          8          9         10         11         12
     1  C   -0.000011  -0.000170   0.000006  -0.000041   0.000000  -0.000000
     2  C    0.000291   0.000128  -0.000016  -0.000004   0.000000   0.000000
     3  O   -0.000699  -0.011091   0.000214   0.000011  -0.000000   0.000000
     4  C   -0.004673  -0.005324  -0.000073  -0.000019  -0.000000  -0.000000
     5  O   -0.002298   0.000123  -0.000000  -0.000000  -0.000000   0.000000
     6  C    0.328527  -0.032896   0.001262  -0.000228   0.000001  -0.000000
     7  C    5.032102   0.373917  -0.024132   0.003024  -0.000292  -0.000011
     8  C    0.373917   4.821446   0.329369  -0.076304   0.003510   0.000832
     9  O   -0.024132   0.329369   7.750286   0.354621  -0.033537  -0.002502
    10  C    0.003024  -0.076304   0.354621   4.748297   0.443704  -0.031161
    11  C   -0.000292   0.003510  -0.033537   0.443704   4.633326   0.405964
    12  C   -0.000011   0.000832  -0.002502  -0.031161   0.405964   4.985427
    13  C    0.000003  -0.000208   0.001898  -0.036778   0.380601  -0.043211
    14  O   -0.037357   0.002341  -0.000007   0.000000  -0.000000   0.000000
    15  C   -0.005364  -0.000008   0.000000   0.000000   0.000000   0.000000
    16  H   -0.000000   0.000003  -0.000000   0.000000  -0.000000   0.000000
    17  H    0.000001   0.000061   0.000000   0.000001  -0.000000   0.000000
    18  H    0.000001  -0.000271  -0.000020  -0.000036  -0.000001   0.000000
    19  H   -0.000006  -0.000029   0.000000   0.000000   0.000000  -0.000000
    20  H   -0.000078   0.000175   0.000000  -0.000001  -0.000000   0.000000
    21  H   -0.062902   0.003523   0.000009   0.000026   0.000000  -0.000000
    22  H    0.363682  -0.030734   0.003274   0.000010  -0.000006  -0.000009
    23  H    0.351708  -0.024554   0.003008   0.000228   0.000021  -0.000003
    24  H   -0.030226   0.359173  -0.033448  -0.007682  -0.000039   0.000056
    25  H   -0.038772   0.343662  -0.030160  -0.004130   0.000615  -0.000206
    26  H    0.000346  -0.003521  -0.031281   0.347236  -0.034715   0.007140
    27  H    0.000390  -0.006955  -0.032823   0.342919  -0.026281  -0.012946
    28  H    0.000015   0.000080   0.001852  -0.036443   0.361703  -0.046964
    29  H    0.000000  -0.000074  -0.000311  -0.006211  -0.028572   0.371178
    30  H    0.000026  -0.000306   0.010451  -0.005056  -0.021410   0.370791
    31  H   -0.000000  -0.000006   0.000236   0.003839  -0.026390   0.371783
    32  H    0.000000  -0.000001   0.000020  -0.007376  -0.025584  -0.006266
    33  H   -0.000000   0.000000  -0.000044   0.003107  -0.019643  -0.003232
    34  H    0.000000   0.000005   0.000044  -0.003429  -0.025122   0.005349
    35  H    0.000299  -0.000006  -0.000000  -0.000000   0.000000  -0.000000
    36  H    0.001321  -0.000860   0.000014  -0.000001   0.000000  -0.000000
    37  H   -0.002266   0.000264   0.000000   0.000000   0.000000  -0.000000
              13         14         15         16         17         18
     1  C    0.000000   0.000000  -0.000000   0.373894   0.372927   0.375181
     2  C    0.000000  -0.000014   0.000002  -0.023959  -0.022493  -0.023033
     3  O   -0.000000  -0.000019  -0.000019   0.001900   0.000803  -0.000336
     4  C   -0.000000  -0.014266   0.004041  -0.000053   0.000117   0.000024
     5  O    0.000000  -0.002116   0.000108   0.000015  -0.000009  -0.000011
     6  C    0.000000   0.352749  -0.083575   0.000004   0.000002  -0.000005
     7  C    0.000003  -0.037357  -0.005364  -0.000000   0.000001   0.000001
     8  C   -0.000208   0.002341  -0.000008   0.000003   0.000061  -0.000271
     9  O    0.001898  -0.000007   0.000000  -0.000000   0.000000  -0.000020
    10  C   -0.036778   0.000000   0.000000   0.000000   0.000001  -0.000036
    11  C    0.380601  -0.000000   0.000000  -0.000000  -0.000000  -0.000001
    12  C   -0.043211   0.000000   0.000000   0.000000   0.000000   0.000000
    13  C    5.014925   0.000000   0.000000   0.000000   0.000000  -0.000000
    14  O    0.000000   7.700553   0.370342  -0.000000   0.000000  -0.000000
    15  C    0.000000   0.370342   4.827586   0.000000   0.000000  -0.000000
    16  H    0.000000  -0.000000   0.000000   0.575816  -0.027805  -0.028591
    17  H    0.000000   0.000000   0.000000  -0.027805   0.578574  -0.033350
    18  H   -0.000000  -0.000000  -0.000000  -0.028591  -0.033350   0.578547
    19  H   -0.000000   0.000000  -0.000000  -0.000471  -0.004568   0.004984
    20  H    0.000000   0.000002   0.000000   0.000473   0.005323  -0.005703
    21  H    0.000000  -0.032439  -0.005319  -0.000000   0.000001   0.000002
    22  H    0.000000  -0.004444   0.001146   0.000000  -0.000000   0.000000
    23  H    0.000000   0.000965   0.000641  -0.000000   0.000000  -0.000000
    24  H    0.000003  -0.000036  -0.000007   0.000009  -0.000057   0.002397
    25  H    0.000041  -0.000003   0.000046  -0.000000   0.000002  -0.000031
    26  H   -0.001365  -0.000000  -0.000000  -0.000001  -0.000001   0.001264
    27  H   -0.001127  -0.000000   0.000000  -0.000000  -0.000000  -0.000020
    28  H   -0.039780  -0.000000   0.000000  -0.000000  -0.000000  -0.000000
    29  H   -0.005602   0.000000  -0.000000   0.000000  -0.000000  -0.000000
    30  H    0.005032  -0.000000  -0.000000   0.000000   0.000000   0.000000
    31  H   -0.004725  -0.000000  -0.000000  -0.000000  -0.000000  -0.000000
    32  H    0.373798  -0.000000  -0.000000  -0.000000   0.000000   0.000000
    33  H    0.372634  -0.000000  -0.000000  -0.000000   0.000000  -0.000000
    34  H    0.369626   0.000000  -0.000000   0.000000  -0.000000   0.000001
    35  H    0.000000  -0.018729   0.386085  -0.000000   0.000000   0.000000
    36  H   -0.000000  -0.034296   0.371441  -0.000000   0.000000  -0.000000
    37  H    0.000000  -0.031519   0.368127   0.000000  -0.000000   0.000000
              19         20         21         22         23         24
     1  C   -0.040863  -0.039634  -0.000016   0.000000  -0.000002  -0.000401
     2  C    0.375577   0.371756  -0.000272   0.000011  -0.000072   0.000133
     3  O   -0.023391  -0.027563   0.003042  -0.000032   0.000108   0.014456
     4  C   -0.001124   0.000839  -0.033063   0.001529  -0.005657   0.001063
     5  O    0.004152   0.006352   0.000930  -0.000039   0.000543   0.000029
     6  C   -0.000076   0.000610   0.343827  -0.024140  -0.018657  -0.001743
     7  C   -0.000006  -0.000078  -0.062902   0.363682   0.351708  -0.030226
     8  C   -0.000029   0.000175   0.003523  -0.030734  -0.024554   0.359173
     9  O    0.000000   0.000000   0.000009   0.003274   0.003008  -0.033448
    10  C    0.000000  -0.000001   0.000026   0.000010   0.000228  -0.007682
    11  C    0.000000  -0.000000   0.000000  -0.000006   0.000021  -0.000039
    12  C   -0.000000   0.000000  -0.000000  -0.000009  -0.000003   0.000056
    13  C   -0.000000   0.000000   0.000000   0.000000   0.000000   0.000003
    14  O    0.000000   0.000002  -0.032439  -0.004444   0.000965  -0.000036
    15  C   -0.000000   0.000000  -0.005319   0.001146   0.000641  -0.000007
    16  H   -0.000471   0.000473  -0.000000   0.000000  -0.000000   0.000009
    17  H   -0.004568   0.005323   0.000001  -0.000000   0.000000  -0.000057
    18  H    0.004984  -0.005703   0.000002   0.000000  -0.000000   0.002397
    19  H    0.604261  -0.044215  -0.000007   0.000000  -0.000000   0.000178
    20  H   -0.044215   0.605185   0.000006  -0.000000   0.000002  -0.000315
    21  H   -0.000007   0.000006   0.667513  -0.005294   0.006230  -0.000112
    22  H    0.000000  -0.000000  -0.005294   0.617569  -0.043389   0.006943
    23  H   -0.000000   0.000002   0.006230  -0.043389   0.604469  -0.006385
    24  H    0.000178  -0.000315  -0.000112   0.006943  -0.006385   0.632620
    25  H    0.000001  -0.000004   0.005707  -0.008228   0.006613  -0.053884
    26  H   -0.000000   0.000002   0.000000   0.000067  -0.000053   0.014923
    27  H    0.000000  -0.000000  -0.000000  -0.000072   0.000040  -0.003203
    28  H   -0.000000  -0.000000  -0.000000  -0.000001   0.000003  -0.000079
    29  H   -0.000000  -0.000000  -0.000000   0.000000   0.000000  -0.000001
    30  H   -0.000000   0.000000   0.000000   0.000125   0.000002   0.000037
    31  H   -0.000000   0.000000  -0.000000   0.000000  -0.000000   0.000001
    32  H   -0.000000   0.000000  -0.000000  -0.000000  -0.000000  -0.000000
    33  H    0.000000   0.000000   0.000000   0.000000   0.000000   0.000000
    34  H    0.000000  -0.000000  -0.000000  -0.000000  -0.000000  -0.000001
    35  H    0.000000  -0.000000  -0.000180  -0.000083  -0.000076   0.000000
    36  H   -0.000000   0.000000  -0.001543   0.003845   0.000505  -0.000011
    37  H    0.000000  -0.000000   0.013054   0.000617   0.000214   0.000003
              25         26         27         28         29         30
     1  C    0.000046  -0.000093   0.000006   0.000000   0.000000  -0.000000
     2  C   -0.000084   0.000005  -0.000000  -0.000000   0.000000   0.000000
     3  O    0.001111  -0.000089   0.000004  -0.000000  -0.000000  -0.000000
     4  C   -0.001517   0.000000  -0.000002   0.000000   0.000000  -0.000000
     5  O   -0.000001   0.000000   0.000000   0.000000   0.000000   0.000000
     6  C    0.002303   0.000024   0.000048   0.000000   0.000000   0.000001
     7  C   -0.038772   0.000346   0.000390   0.000015   0.000000   0.000026
     8  C    0.343662  -0.003521  -0.006955   0.000080  -0.000074  -0.000306
     9  O   -0.030160  -0.031281  -0.032823   0.001852  -0.000311   0.010451
    10  C   -0.004130   0.347236   0.342919  -0.036443  -0.006211  -0.005056
    11  C    0.000615  -0.034715  -0.026281   0.361703  -0.028572  -0.021410
    12  C   -0.000206   0.007140  -0.012946  -0.046964   0.371178   0.370791
    13  C    0.000041  -0.001365  -0.001127  -0.039780  -0.005602   0.005032
    14  O   -0.000003  -0.000000  -0.000000  -0.000000   0.000000  -0.000000
    15  C    0.000046  -0.000000   0.000000   0.000000  -0.000000  -0.000000
    16  H   -0.000000  -0.000001  -0.000000  -0.000000   0.000000   0.000000
    17  H    0.000002  -0.000001  -0.000000  -0.000000  -0.000000   0.000000
    18  H   -0.000031   0.001264  -0.000020  -0.000000  -0.000000   0.000000
    19  H    0.000001  -0.000000   0.000000  -0.000000  -0.000000  -0.000000
    20  H   -0.000004   0.000002  -0.000000  -0.000000  -0.000000   0.000000
    21  H    0.005707   0.000000  -0.000000  -0.000000  -0.000000   0.000000
    22  H   -0.008228   0.000067  -0.000072  -0.000001   0.000000   0.000125
    23  H    0.006613  -0.000053   0.000040   0.000003   0.000000   0.000002
    24  H   -0.053884   0.014923  -0.003203  -0.000079  -0.000001   0.000037
    25  H    0.684224  -0.003183   0.015056   0.000046   0.000027   0.000027
    26  H   -0.003183   0.686449  -0.059523  -0.006859  -0.000056   0.000249
    27  H    0.015056  -0.059523   0.684688   0.007451   0.005919   0.000249
    28  H    0.000046  -0.006859   0.007451   0.678534   0.006224  -0.002570
    29  H    0.000027  -0.000056   0.005919   0.006224   0.611793  -0.030976
    30  H    0.000027   0.000249   0.000249  -0.002570  -0.030976   0.577394
    31  H   -0.000001  -0.000154  -0.000128  -0.002768  -0.032351  -0.031246
    32  H   -0.000000  -0.000451   0.005769   0.006124   0.005098  -0.000036
    33  H    0.000000  -0.000200  -0.000161  -0.002915  -0.000116  -0.000053
    34  H   -0.000000   0.004945  -0.000403  -0.003227  -0.000049  -0.000206
    35  H   -0.000000  -0.000000   0.000000   0.000000   0.000000   0.000000
    36  H    0.000031  -0.000000   0.000000   0.000000  -0.000000  -0.000000
    37  H    0.000024   0.000000  -0.000000   0.000000   0.000000   0.000000
              31         32         33         34         35         36
     1  C    0.000000   0.000000   0.000000  -0.000000   0.000000   0.000000
     2  C    0.000000  -0.000000  -0.000000   0.000000  -0.000000  -0.000000
     3  O   -0.000000  -0.000000  -0.000000   0.000000   0.000000   0.000001
     4  C    0.000000   0.000000  -0.000000   0.000000  -0.000113  -0.000143
     5  O    0.000000   0.000000  -0.000000  -0.000000   0.000008  -0.000004
     6  C   -0.000000   0.000000   0.000000  -0.000000   0.004259  -0.003337
     7  C   -0.000000   0.000000  -0.000000   0.000000   0.000299   0.001321
     8  C   -0.000006  -0.000001   0.000000   0.000005  -0.000006  -0.000860
     9  O    0.000236   0.000020  -0.000044   0.000044  -0.000000   0.000014
    10  C    0.003839  -0.007376   0.003107  -0.003429  -0.000000  -0.000001
    11  C   -0.026390  -0.025584  -0.019643  -0.025122   0.000000   0.000000
    12  C    0.371783  -0.006266  -0.003232   0.005349  -0.000000  -0.000000
    13  C   -0.004725   0.373798   0.372634   0.369626   0.000000  -0.000000
    14  O   -0.000000  -0.000000  -0.000000   0.000000  -0.018729  -0.034296
    15  C   -0.000000  -0.000000  -0.000000  -0.000000   0.386085   0.371441
    16  H   -0.000000  -0.000000  -0.000000   0.000000  -0.000000  -0.000000
    17  H   -0.000000   0.000000   0.000000  -0.000000   0.000000   0.000000
    18  H   -0.000000   0.000000  -0.000000   0.000001   0.000000  -0.000000
    19  H   -0.000000  -0.000000   0.000000   0.000000   0.000000  -0.000000
    20  H    0.000000   0.000000   0.000000  -0.000000  -0.000000   0.000000
    21  H   -0.000000  -0.000000   0.000000  -0.000000  -0.000180  -0.001543
    22  H    0.000000  -0.000000   0.000000  -0.000000  -0.000083   0.003845
    23  H   -0.000000  -0.000000   0.000000  -0.000000  -0.000076   0.000505
    24  H    0.000001  -0.000000   0.000000  -0.000001   0.000000  -0.000011
    25  H   -0.000001  -0.000000   0.000000  -0.000000  -0.000000   0.000031
    26  H   -0.000154  -0.000451  -0.000200   0.004945  -0.000000  -0.000000
    27  H   -0.000128   0.005769  -0.000161  -0.000403   0.000000   0.000000
    28  H   -0.002768   0.006124  -0.002915  -0.003227   0.000000   0.000000
    29  H   -0.032351   0.005098  -0.000116  -0.000049   0.000000  -0.000000
    30  H   -0.031246  -0.000036  -0.000053  -0.000206   0.000000  -0.000000
    31  H    0.614486  -0.000105   0.004049  -0.000039   0.000000  -0.000000
    32  H   -0.000105   0.601980  -0.032047  -0.033280   0.000000  -0.000000
    33  H    0.004049  -0.032047   0.596499  -0.030860  -0.000000   0.000000
    34  H   -0.000039  -0.033280  -0.030860   0.609046  -0.000000  -0.000000
    35  H    0.000000   0.000000  -0.000000  -0.000000   0.564988  -0.037366
    36  H   -0.000000  -0.000000   0.000000  -0.000000  -0.037366   0.633647
    37  H    0.000000   0.000000   0.000000  -0.000000  -0.034117  -0.050515
              37
     1  C    0.000000
     2  C    0.000000
     3  O    0.000002
     4  C   -0.000035
     5  O   -0.000001
     6  C   -0.006804
     7  C   -0.002266
     8  C    0.000264
     9  O    0.000000
    10  C    0.000000
    11  C    0.000000
    12  C   -0.000000
    13  C    0.000000
    14  O   -0.031519
    15  C    0.368127
    16  H    0.000000
    17  H   -0.000000
    18  H    0.000000
    19  H    0.000000
    20  H   -0.000000
    21  H    0.013054
    22  H    0.000617
    23  H    0.000214
    24  H    0.000003
    25  H    0.000024
    26  H    0.000000
    27  H   -0.000000
    28  H    0.000000
    29  H    0.000000
    30  H    0.000000
    31  H    0.000000
    32  H    0.000000
    33  H    0.000000
    34  H   -0.000000
    35  H   -0.034117
    36  H   -0.050515
    37  H    0.638487
 Mulliken charges:
               1
     1  C   -0.401475
     2  C   -0.041275
     3  O   -0.244228
     4  C    0.430630
     5  O   -0.347936
     6  C   -0.000603
     7  C   -0.246567
     8  C   -0.045295
     9  O   -0.268211
    10  C   -0.032125
    11  C    0.012147
    12  C   -0.372008
    13  C   -0.385763
    14  O   -0.251705
    15  C   -0.235273
    16  H    0.128767
    17  H    0.130471
    18  H    0.129008
    19  H    0.125597
    20  H    0.126787
    21  H    0.097277
    22  H    0.117651
    23  H    0.123547
    24  H    0.105603
    25  H    0.080625
    26  H    0.078895
    27  H    0.081106
    28  H    0.079576
    29  H    0.104079
    30  H    0.127472
    31  H    0.103519
    32  H    0.112358
    33  H    0.112980
    34  H    0.107601
    35  H    0.135032
    36  H    0.117271
    37  H    0.104465
 Sum of Mulliken charges =  -0.00000
 Mulliken charges with hydrogens summed into heavy atoms:
               1
     1  C   -0.013230
     2  C    0.211109
     3  O   -0.244228
     4  C    0.430630
     5  O   -0.347936
     6  C    0.096674
     7  C   -0.005369
     8  C    0.140933
     9  O   -0.268211
    10  C    0.127877
    11  C    0.091723
    12  C   -0.036937
    13  C   -0.052824
    14  O   -0.251705
    15  C    0.121496
 Electronic spatial extent (au):  <R**2>=           5304.9349
 Charge=             -0.0000 electrons
 Dipole moment (field-independent basis, Debye):
    X=             -2.2069    Y=              1.0342    Z=              1.7776  Tot=              3.0166
 Quadrupole moment (field-independent basis, Debye-Ang):
   XX=           -106.3974   YY=            -81.3713   ZZ=            -92.4825
   XY=             -1.3357   XZ=              5.8286   YZ=             -2.0629
 Traceless Quadrupole moment (field-independent basis, Debye-Ang):
   XX=            -12.9803   YY=             12.0458   ZZ=              0.9346
   XY=             -1.3357   XZ=              5.8286   YZ=             -2.0629
 Octapole moment (field-independent basis, Debye-Ang**2):
  XXX=            -44.3368  YYY=              2.4706  ZZZ=             -1.1855  XYY=             40.9322
  XXY=              1.6293  XXZ=             19.4982  XZZ=              6.0177  YZZ=             -1.3031
  YYZ=             -0.9522  XYZ=             -1.2114
 Hexadecapole moment (field-independent basis, Debye-Ang**3):
 XXXX=          -4935.1958 YYYY=          -1871.9356 ZZZZ=           -211.6654 XXXY=             -0.7597
 XXXZ=            105.5653 YYYX=            -17.8850 YYYZ=             -6.8156 ZZZX=             -4.5251
 ZZZY=              0.3186 XXYY=          -1082.0914 XXZZ=           -824.5776 YYZZ=           -378.0908
 XXYZ=              2.7996 YYXZ=              7.2277 ZZXY=             -1.5483
 N-N= 1.069799460128D+03 E-N=-3.850163818136D+03  KE= 7.278279637768D+02
 PrsmSu:  requested number of processors reduced to:  13 ShMem   1 Linda.
 Calling FoFJK, ICntrl=      2127 FMM=F ISym2X=0 I1Cent= 0 IOpClX= 0 NMat=1 NMatS=1 NMatT=0.
 ***** Axes restored to original set *****
 -------------------------------------------------------------------
 Center     Atomic                   Forces (Hartrees/Bohr)
 Number     Number              X              Y              Z
 -------------------------------------------------------------------
      1        6          -0.001303349    0.000277002   -0.009861150
      2        6          -0.006997928   -0.001742097    0.007910119
      3        8           0.016207608    0.002251717   -0.002515240
      4        6           0.024939115   -0.005023455    0.030121022
      5        8          -0.027290936    0.002903791   -0.036201640
      6        6           0.018426921    0.004631222   -0.000704670
      7        6          -0.003852625    0.004495282   -0.003558000
      8        6          -0.003812238    0.017447202   -0.001672273
      9        8          -0.006799557   -0.004142614   -0.001616012
     10        6           0.013930508    0.010196802   -0.001323481
     11        6           0.000338726   -0.002613915   -0.005750710
     12        6           0.005676432    0.003160647   -0.002771240
     13        6          -0.003298670    0.002009885    0.003524145
     14        8          -0.007116117   -0.002083491    0.008878187
     15        6          -0.003566999    0.002095385    0.009133456
     16        1           0.002706063   -0.000187189   -0.000813634
     17        1           0.000034391   -0.001078666    0.001373262
     18        1           0.000712909    0.000099649    0.001164533
     19        1           0.004248710    0.002082903    0.001880060
     20        1           0.005371185   -0.004096625   -0.001694924
     21        1          -0.005585065   -0.000436604   -0.001517704
     22        1           0.001101773   -0.005064877    0.001793067
     23        1          -0.001651513   -0.002792907    0.004093962
     24        1          -0.002128349   -0.007179253    0.002192570
     25        1          -0.003026813   -0.004907983    0.001886145
     26        1          -0.001937468   -0.002027341    0.002684910
     27        1          -0.004232660   -0.002424160   -0.001109939
     28        1          -0.000216572   -0.001351089    0.001815240
     29        1          -0.000816529    0.000041307   -0.001132936
     30        1          -0.001998826   -0.000866703    0.000525912
     31        1          -0.001155094    0.000397788   -0.001768819
     32        1          -0.000806976    0.000530802   -0.000573271
     33        1          -0.001704782    0.000066883   -0.000208520
     34        1          -0.001939463    0.000487072   -0.000288786
     35        1          -0.000488619   -0.003276528    0.005053379
     36        1          -0.001108130    0.000053963   -0.004217305
     37        1          -0.000859064   -0.001933806   -0.004729716
 -------------------------------------------------------------------
 Cartesian Forces:  Max     0.036201640 RMS     0.007338595

 GradGradGradGradGradGradGradGradGradGradGradGradGradGradGradGradGradGrad
 Berny optimization.
 FormGI is forming the generalized inverse of G from B-inverse, IUseBI=4.
 Internal  Forces:  Max     0.045341690 RMS     0.006642769
 Search for a local minimum.
 Step number   1 out of a maximum of  189
 All quantities printed in internal units (Hartrees-Bohrs-Radians)
 Mixed Optimization -- RFO/linear search
 Second derivative matrix not updated -- first step.
 ITU=  0
     Eigenvalues ---    0.00230   0.00329   0.00412   0.00455   0.00465
     Eigenvalues ---    0.00523   0.00672   0.00678   0.01165   0.01178
     Eigenvalues ---    0.01361   0.01405   0.01469   0.02070   0.03567
     Eigenvalues ---    0.03921   0.04732   0.04797   0.04869   0.04908
     Eigenvalues ---    0.05216   0.05246   0.05277   0.05404   0.05558
     Eigenvalues ---    0.05571   0.05586   0.05592   0.05621   0.05641
     Eigenvalues ---    0.05870   0.05900   0.05985   0.07977   0.08445
     Eigenvalues ---    0.10016   0.10446   0.11219   0.11335   0.11474
     Eigenvalues ---    0.12263   0.13720   0.13722   0.13749   0.16000
     Eigenvalues ---    0.16000   0.16000   0.16000   0.16000   0.16000
     Eigenvalues ---    0.16000   0.16000   0.16000   0.16000   0.16000
     Eigenvalues ---    0.16000   0.16244   0.16537   0.17601   0.19831
     Eigenvalues ---    0.21811   0.22013   0.22094   0.22101   0.24998
     Eigenvalues ---    0.25000   0.25000   0.25000   0.25000   0.26986
     Eigenvalues ---    0.29148   0.29724   0.30034   0.30100   0.30522
     Eigenvalues ---    0.31689   0.33914   0.33924   0.33949   0.33997
     Eigenvalues ---    0.34004   0.34036   0.34076   0.34104   0.34143
     Eigenvalues ---    0.34145   0.34173   0.34191   0.34192   0.34193
     Eigenvalues ---    0.34301   0.34422   0.34445   0.34465   0.34466
     Eigenvalues ---    0.34476   0.34526   0.35252   0.39613   0.39746
     Eigenvalues ---    0.41721   0.42204   0.42943   0.50702   0.91934
 RFO step:  Lambda=-2.96492825D-02 EMin= 2.30000000D-03
 Linear search not attempted -- first point.
 Iteration  1 RMS(Cart)=  0.40599730 RMS(Int)=  0.01342970
 Iteration  2 RMS(Cart)=  0.08219838 RMS(Int)=  0.00084079
 Iteration  3 RMS(Cart)=  0.00230738 RMS(Int)=  0.00062716
 Iteration  4 RMS(Cart)=  0.00000174 RMS(Int)=  0.00062716
 Iteration  5 RMS(Cart)=  0.00000000 RMS(Int)=  0.00062716
 Variable       Old X    -DE/DX   Delta X   Delta X   Delta X     New X
                                 (Linear)    (Quad)   (Total)
    R1        2.87895  -0.00209   0.00000  -0.00634  -0.00634   2.87261
    R2        2.07039  -0.00173   0.00000  -0.00466  -0.00466   2.06573
    R3        2.06824   0.00010   0.00000   0.00026   0.00026   2.06851
    R4        2.07089  -0.00066   0.00000  -0.00177  -0.00177   2.06912
    R5        2.72083  -0.00180   0.00000  -0.00422  -0.00422   2.71661
    R6        2.06585   0.00048   0.00000   0.00128   0.00128   2.06713
    R7        2.07270  -0.00233   0.00000  -0.00629  -0.00629   2.06641
    R8        2.59164  -0.02079   0.00000  -0.03874  -0.03874   2.55290
    R9        2.32054  -0.04534   0.00000  -0.04778  -0.04778   2.27276
   R10        2.94409  -0.01303   0.00000  -0.04349  -0.04349   2.90060
   R11        2.89696   0.01251   0.00000   0.03896   0.03896   2.93593
   R12        2.71899  -0.01390   0.00000  -0.03255  -0.03255   2.68645
   R13        2.07476   0.00292   0.00000   0.00792   0.00792   2.08268
   R14        2.84717   0.01417   0.00000   0.04089   0.04089   2.88806
   R15        2.07155  -0.00187   0.00000  -0.00505  -0.00505   2.06650
   R16        2.07323  -0.00091   0.00000  -0.00245  -0.00245   2.07078
[...]
 ,-0.00000797,-0.00000633,-0.00006286,0.00001625,-0.00011250,0.00003827
 ,0.00000996,0.00027062,-0.00018839,-0.00048180,-0.00047982,0.00033367,
 -0.00108145,0.00259485,-0.00164295,-0.00567110,-0.00194149,0.00242599,
 -0.00771620,0.02869291,-0.01896723,0.00165909,0.00024592,-0.00124188,-
 0.05601514,0.04282887,-0.02901009,-0.00015532,0.00007818,0.00001714,0.
 00002847,-0.00003435,-0.00007007,0.00000287,0.00000351,-0.00000616,0.0
 0000014,0.00000121,0.00000247,-0.00000557,-0.00000147,0.00000472,0.000
 00074,0.00000282,-0.00000972,0.00000355,0.00000004,-0.00000226,-0.0000
 0018,0.00000293,-0.00000074,0.00000634,0.00000047,0.00001151,-0.000004
 04,-0.00000646,-0.00000288,0.00000715,0.00003240,-0.00007967,0.0000071
 3,0.00009642,-0.00000565,-0.00001199,-0.00024374,-0.00016647,0.0001424
 0,0.00031063,0.00016220,0.00145609,-0.00061358,-0.00015074,-0.00004753
 ,-0.00006567,0.00018361,0.00018286,-0.00041158,-0.00021386,-0.00012220
 ,-0.00039772,0.00084520,0.00303655,-0.01302637,0.00998101,0.06334805,-
 0.00000824,0.00000535,-0.00000363,0.00000939,0.00001213,-0.00003724,0.
 00000627,-0.00001666,0.00004630,-0.00002160,-0.00000902,-0.00006758,0.
 00001712,0.00000849,0.00004225,-0.00004333,0.00005781,-0.00002251,-0.0
 0001297,-0.00009940,0.00007088,0.00002855,0.00034310,-0.00023561,0.000
 28367,-0.00044119,0.00061103,0.00100109,0.00127817,-0.00084635,0.00044
 105,-0.00477437,0.00252357,-0.00065165,0.00000041,0.00024983,0.0440598
 7,-0.21918476,0.11757376,0.00009905,-0.00004249,-0.00001888,-0.0000220
 2,0.00002434,0.00004679,-0.00000066,-0.00000152,0.00000575,0.00000131,
 -0.00000179,-0.00000161,0.00000667,0.00000003,-0.00000130,0.00000361,-
 0.00000242,0.00000534,-0.00000358,-0.00000093,-0.00000098,0.00000090,-
 0.00000114,0.00000291,-0.00000069,0.00000059,-0.00000681,0.00000312,0.
 00000288,-0.00000075,-0.00000394,-0.00001800,0.00003048,-0.00001230,-0
 .00003918,0.00001337,-0.00017489,0.00001730,0.00011663,-0.00007162,0.0
 0045171,-0.00012422,0.00031967,0.00075861,-0.00017398,0.00004998,-0.00
 010778,0.00002938,-0.00006223,0.00026919,-0.00018703,0.00037774,0.0002
 7354,-0.00055904,0.00520723,-0.02004168,0.01432072,-0.04899001,0.23615
 833,0.00000684,-0.00000349,0.00000462,-0.00000285,-0.00001069,0.000021
 35,-0.00001053,0.00000971,-0.00002757,0.00002130,0.00001072,0.00004246
 ,-0.00001484,-0.00000753,-0.00002900,0.00003335,-0.00003580,0.00000439
 ,0.00000767,0.00003867,-0.00001725,0.00005294,-0.00015468,0.00019050,-
 0.00007648,0.00038424,0.00033964,0.00004132,-0.00067618,-0.00018235,0.
 00034309,-0.00117154,-0.00088269,0.00026556,-0.00077895,0.00075759,-0.
 02995186,0.11787142,-0.12650696,-0.00005781,0.00002320,0.00000982,0.00
 001384,-0.00001614,-0.00002341,0.00000060,0.00000046,-0.00000339,-0.00
 000219,0.00000258,0.00000051,-0.00000521,-0.00000217,-0.00000113,-0.00
 000357,0.00000283,-0.00000284,0.00000398,0.00000166,0.00000246,-0.0000
 0112,-0.00000026,-0.00000116,0.00000088,-0.00000054,0.00000060,-0.0000
 0365,-0.00000156,-0.00000159,0.00001844,-0.00000005,-0.00000071,-0.000
 00606,0.00002979,-0.00001011,-0.00004904,-0.00023433,0.00055938,0.0000
 8349,0.00031251,0.00001764,-0.00022836,0.00003266,-0.00014491,-0.00000
 427,-0.00006020,0.00001494,-0.00013841,-0.00008039,0.00001253,0.000038
 04,0.00015791,0.00030025,0.00318293,-0.01106637,0.00708053,0.03270837,
 -0.12960367,0.13452065,-0.00000281,0.00000047,-0.00000494,-0.00000764,
 0.00001203,0.00001031,0.00002193,-0.00000005,-0.00001577,-0.00002950,-
 0.00000051,0.00002559,0.00001233,-0.00000589,-0.00001379,-0.00001101,0
 .00001455,-0.00000296,-0.00000123,-0.00002852,0.00002950,0.00001161,0.
 00009866,-0.00008354,0.00066445,-0.00044700,-0.00036810,0.00034857,-0.
 00051875,0.00191125,-0.00924066,0.00546269,0.03167480,-0.00671324,0.00
 140380,-0.00206275,-0.07279338,0.01312694,0.07571521,0.00003171,-0.000
 01203,-0.00002425,-0.00000567,0.00000256,0.00003402,0.00000082,0.00000
 135,0.00000005,0.00000145,-0.00000343,0.00000039,0.00000272,0.00000298
 ,0.00000260,0.00000241,-0.00000284,-0.00000119,-0.00000202,-0.00000341
 ,-0.00000467,0.00000106,-0.00000115,0.00000075,0.00001684,-0.00000993,
 -0.00000726,-0.00000385,0.00000007,0.00000185,-0.00002121,0.00002453,-
 0.00003661,0.00000096,-0.00002794,0.00000307,0.00012777,0.00044014,-0.
 00102298,0.00002848,0.00003600,-0.00021127,0.00127006,-0.00068541,-0.0
 0018317,0.00013028,0.00026229,-0.00004996,-0.00071687,0.00039152,0.002
 19857,0.00011621,-0.00019959,-0.00024331,0.00509274,-0.00163161,-0.015
 80092,0.00142196,-0.00183846,-0.00626455,0.08024485,0.00000918,-0.0000
 0518,0.00000845,0.00000874,-0.00000222,0.00000018,-0.00003217,-0.00000
 587,0.00000047,0.00004271,0.00002290,0.00000970,-0.00001874,-0.0000125
 8,-0.00001216,0.00002005,-0.00001776,0.00000113,0.00000417,0.00002356,
 -0.00000357,0.00004212,-0.00011232,0.00000598,-0.00040739,0.00011475,0
 .00029418,0.00034796,0.00000664,-0.00149991,0.00084585,-0.00249142,-0.
 00505443,0.00120446,0.00001564,0.00043977,0.01351161,-0.05426309,-0.03
 988360,-0.00003799,0.00001278,0.00001449,0.00000802,-0.00000743,-0.000
 02242,-0.00000055,-0.00000040,-0.00000144,-0.00000323,0.00000277,-0.00
 000097,-0.00000443,-0.00000195,-0.00000366,-0.00000497,0.00000175,0.00
 000021,0.00000354,0.00000188,0.00000402,-0.00000042,-0.00000115,-0.000
 00147,-0.00000858,0.00000141,0.00000284,-0.00000366,-0.00000080,-0.000
 00224,0.00001554,0.00000324,0.00001960,-0.00000044,0.00000847,-0.00000
 340,0.00024223,-0.00001740,0.00055099,0.00007827,0.00000490,0.00004208
 ,-0.00007021,0.00028424,0.00047523,-0.00009224,0.00025747,0.00043765,0
 .00022641,0.00051783,-0.00037678,0.00010750,0.00020319,-0.00037479,0.0
 0868976,-0.00387518,-0.02400360,-0.00885644,0.00513037,0.02501855,-0.0
 1586572,0.05419850,0.00000251,-0.00000137,0.00000636,0.00002188,0.0000
 0247,-0.00003779,-0.00003685,-0.00001851,0.00004866,0.00003593,0.00001
 328,-0.00005970,-0.00001113,0.00000008,0.00003198,-0.00000342,0.000013
 32,-0.00000948,-0.00000199,-0.00002125,0.00001130,0.00001751,0.0000423
 1,-0.00006004,-0.00006363,-0.00012915,0.00050649,-0.00043333,0.0003429
 1,-0.00007198,-0.00057692,0.00043154,0.00019511,0.00090133,0.00018224,
 0.00116506,0.07693087,-0.04013666,-0.27409508,0.00001426,-0.00000957,0
 .00001886,-0.00000374,0.00000734,-0.00001243,-0.00000108,-0.00000302,0
 .00000408,-0.00000225,0.00000271,-0.00000164,0.00000034,-0.00000160,-0
 .00000629,-0.00000307,0.00000034,0.00000506,0.00000067,0.00000263,0.00
 000441,-0.00000051,0.00000032,-0.00000018,-0.00000903,0.00000307,0.000
 00488,0.00000246,0.00000152,-0.00000289,0.00000787,-0.00001238,0.00003
 799,0.00000062,-0.00000789,0.00000458,-0.00003616,-0.00029453,0.000600
 48,0.00003509,0.00007600,0.00000327,0.00053874,0.00020352,0.00050813,-
 0.00019888,0.00018580,0.00021749,-0.00004443,0.00001395,-0.00021357,-0
 .00023550,-0.00007357,0.00019546,0.00334848,-0.00093540,-0.01073791,0.
 00499614,-0.00378717,-0.01604947,-0.08519394,0.04391250,0.29778240,0.0
 0000193,0.00001198,0.00005231,0.00007568,-0.00001791,-0.00023573,-0.00
 033895,-0.00015766,0.00057869,-0.00030494,0.00032503,-0.00111470,0.000
 10917,0.00005280,0.00054405,0.00227581,0.00086358,0.00184568,-0.000092
 30,-0.00020510,0.00011885,0.00020022,-0.00004157,0.00001666,-0.0002681
 9,0.00014883,-0.00009176,0.00016486,-0.00001302,-0.00000294,-0.0000189
 8,-0.00002207,0.00001328,0.00000305,0.00000997,0.00000165,0.00000931,0
 .00001491,-0.00001400,-0.01449406,0.00263537,0.00683927,-0.31247951,0.
 00260688,-0.02595293,-0.00002460,-0.00001325,0.00001300,-0.00000135,-0
 .00000313,-0.00001173,0.00000446,-0.00000221,-0.00000958,-0.00001141,-
 0.00000267,0.00004538,-0.00000731,0.00000318,0.00002976,0.00026492,0.0
 0012132,-0.00000389,0.00003154,-0.00006548,0.00001396,-0.00003825,0.00
 003977,0.00003524,-0.00001794,0.00001688,0.00000026,0.00000360,0.00001
 522,-0.00000683,-0.00001997,0.00000101,0.00000723,-0.00001909,-0.00000
 522,-0.00000095,0.00000233,0.00000259,-0.00000169,0.00000146,-0.000002
 68,0.00000139,-0.00000547,-0.00001061,0.00001495,-0.00000654,0.0000104
 6,-0.00001136,-0.00000052,-0.00000334,0.00000134,-0.00001111,0.0000088
 4,-0.00000596,0.00000132,-0.00000330,0.00000247,0.34079882,0.00000142,
 -0.00000835,-0.00002539,-0.00001313,0.00003996,0.00005533,0.00014529,0
 .00004907,-0.00033210,0.00050177,0.00021747,0.00045456,-0.00007766,-0.
 00005479,0.00000232,-0.00020513,-0.00074073,-0.00174575,0.00013106,0.0
 0024025,0.00004977,-0.00012926,-0.00004632,-0.00004681,0.00012188,-0.0
 0003869,0.00003684,-0.00006935,-0.00000728,-0.00000300,0.00001208,0.00
 001109,-0.00000372,-0.00000344,-0.00000524,-0.00000143,-0.00000361,-0.
 00000735,0.00000537,0.01586032,-0.00075752,-0.00327515,-0.00183895,-0.
 04949869,0.00113844,0.00000924,0.00000800,-0.00000088,-0.00000063,0.00
 000401,-0.00000054,0.00000032,-0.00000154,0.00000282,0.00000595,0.0000
 0372,-0.00001660,0.00000499,-0.00000024,-0.00000217,0.00052058,0.00035
 191,0.00011119,-0.00019413,0.00017511,-0.00009597,0.00005118,0.0000277
 5,-0.00014550,0.00005452,-0.00000796,0.00001561,0.00002022,0.00001777,
 0.00001567,0.00001003,0.00000050,-0.00000211,0.00000940,0.00000366,0.0
 0000237,-0.00000111,-0.00000105,-0.00000002,-0.00000002,0.00000068,-0.
 00000002,0.00000167,0.00000553,-0.00000610,0.00000362,-0.00000351,0.00
 000476,0.00000014,0.00000084,-0.00000040,0.00000486,-0.00000291,0.0000
 0216,-0.00000038,0.00000127,-0.00000058,-0.00566055,0.04805081,-0.0000
 0391,-0.00001259,-0.00006831,-0.00004987,0.00010717,0.00015364,0.00035
 926,0.00020814,-0.00078930,0.00135850,-0.00025159,0.00130949,-0.000321
 72,-0.00003806,-0.00033164,0.00094470,-0.00245055,-0.00511335,0.000529
 13,0.00031724,-0.00047624,-0.00013025,-0.00020713,0.00025624,0.0001818
 9,-0.00004609,0.00006568,-0.00003114,-0.00002992,0.00001543,0.00001563
 ,0.00000602,-0.00000922,0.00000583,-0.00000413,-0.00000162,-0.00000138
 ,-0.00000653,0.00000753,0.04009683,-0.00366122,-0.00544426,-0.03797648
 ,0.00131877,-0.04979418,0.00002732,0.00001561,-0.00000518,0.00000090,0
 .00000428,0.00000663,0.00000034,0.00000087,0.00000725,0.00002029,0.000
 00471,-0.00005406,0.00000607,-0.00000522,-0.00001939,0.00003168,0.0002
 8894,-0.00000865,0.00007673,-0.00028312,0.00038324,-0.00004587,0.00000
 534,0.00011163,-0.00010774,0.00002667,0.00000146,0.00002063,0.00001381
 ,-0.00000566,0.00000164,0.00000226,0.00000169,0.00000777,0.00000486,0.
 00000078,-0.00000077,0.00000096,0.00000145,0.00000356,0.00000100,0.000
 00169,-0.00000258,-0.00000374,-0.00000272,-0.00000247,0.00000210,0.000
 00286,0.00000057,0.00000061,-0.00000052,0.00000343,-0.00000154,0.00000
 053,-0.00000237,0.00000120,0.00000127,0.02161619,0.00377313,0.05997146
 ,0.00000275,-0.00000330,0.00000303,-0.00000703,-0.00002490,0.00003419,
 -0.00000699,0.00000172,-0.00000407,-0.00016519,0.00000278,0.00012324,-
 0.00009958,-0.00004671,-0.00016804,0.00195358,-0.00196130,0.00086567,0
 .00037558,0.00064488,0.00012376,0.00006254,-0.00017810,-0.00022386,0.0
 0017201,-0.00008957,0.00002355,-0.00010250,0.00000736,0.00001068,0.000
 01382,0.00001601,-0.00000743,-0.00000068,-0.00000759,0.00000082,-0.000
 00501,-0.00000956,0.00000888,0.00490056,-0.00570069,0.01422692,-0.0717
 2364,0.04079634,-0.05181841,-0.00000109,0.00000066,-0.00000227,-0.0000
 0055,0.00000074,0.00000034,-0.00000271,-0.00000047,0.00000119,-0.00000
 202,0.00000059,-0.00000010,0.00000433,0.00000163,-0.00000335,-0.000145
 03,-0.00012760,0.00014569,-0.00104916,0.00111155,0.00021489,0.00001537
 ,-0.00011370,-0.00003972,0.00007743,-0.00001429,-0.00000287,-0.0000264
 3,-0.00000429,0.00001680,0.00001118,-0.00000154,-0.00000472,0.00000972
 ,0.00000186,0.00000133,-0.00000134,-0.00000348,-0.00000024,-0.00000354
 ,0.00000083,-0.00000141,0.00000253,0.00001178,-0.00001061,0.00000581,-
 0.00000728,0.00000696,-0.00000046,0.00000130,-0.00000107,0.00000701,-0
 .00000490,0.00000296,-0.00000124,0.00000192,-0.00000051,-0.00697990,0.
 02035401,-0.02347544,0.06877867,0.00000381,-0.00001099,-0.00001048,0.0
 0002742,-0.00001427,0.00001447,0.00005970,0.00007427,-0.00008536,0.000
 02497,-0.00003128,0.00011493,0.00004243,0.00001861,-0.00003797,-0.0000
 8565,0.00087142,0.00001383,-0.00030002,-0.00048278,0.00013330,-0.00025
 047,0.00018101,0.00001337,0.00001132,-0.00001139,-0.00001828,-0.000037
 75,0.00002603,-0.00000186,-0.00000080,0.00000420,0.00000679,-0.0000058
 9,0.00000083,-0.00000161,-0.00000303,-0.00000165,-0.00000183,-0.004455
 61,0.01351695,-0.01361322,0.04137201,-0.14311091,0.11167817,0.00000267
 ,0.00000482,0.00000010,0.00000556,0.00000750,0.00000071,-0.00000598,0.
 00000219,-0.00000049,-0.00000344,-0.00000170,-0.00001285,-0.00000266,0
 .00000655,0.00000009,0.00021141,-0.00044325,-0.00004627,0.00086189,-0.
 00027556,-0.00047266,0.00009895,-0.00005531,-0.00016625,0.00004922,-0.
 00003346,-0.00001299,-0.00002838,-0.00002306,0.00000915,0.00001028,-0.
 00000426,-0.00000945,0.00000144,-0.00000282,0.00000155,0.00000002,-0.0
 0000289,-0.00000280,-0.00000828,-0.00000083,-0.00000266,0.00000886,0.0
 0000908,0.00000170,0.00000426,-0.00000586,0.00000061,-0.00000087,0.000
 00053,0.00000082,0.00000152,-0.00000148,0.00000210,0.00000328,-0.00000
 052,-0.00000415,-0.00094753,0.00032113,-0.00060587,-0.04577112,0.14731
 022,-0.00001248,-0.00001265,-0.00005833,-0.00014185,0.00007140,0.00022
 814,0.00059168,0.00029495,-0.00058943,-0.00037877,-0.00052341,0.000374
 45,0.00048071,0.00009372,-0.00009707,-0.00644584,0.00052899,0.00073152
 ,0.00080972,0.00031656,-0.00057847,-0.00010571,-0.00029268,0.00049723,
 0.00026555,-0.00015321,0.00012811,-0.00000450,-0.00003666,0.00001996,0
 .00002230,0.00001053,-0.00001981,0.00001965,-0.00000853,0.00000057,0.0
 0000053,-0.00000869,0.00001278,0.00311588,0.00807038,-0.04019589,-0.04
 871971,0.10851325,-0.18067045,0.00003206,0.00001676,-0.00001267,0.0000
 0062,0.00000373,0.00000991,0.00001325,0.00000368,0.00001339,0.00001737
 ,-0.00000854,-0.00004031,-0.00000006,-0.00001089,-0.00003317,0.0008554
 5,0.00018001,0.00005969,0.00044465,-0.00049631,0.00096309,-0.00012774,
 0.00000266,0.00015711,-0.00024002,0.00005239,0.00000730,-0.00001575,-0
 .00001988,-0.00002317,-0.00000531,0.00000311,0.00000854,0.00000419,0.0
 0000161,-0.00000273,-0.00000029,-0.00000184,0.00000070,-0.00000054,0.,
 0.00000107,-0.00000603,0.00000056,-0.00000273,-0.00000264,0.00000091,0
 .00000545,-0.00000100,-0.00000019,-0.00000235,0.00000536,-0.00000320,0
 .00000071,-0.00000681,0.00000290,0.00000532,-0.00188557,0.00313528,-0.
 00074707,0.05163867,-0.11879879,0.21460268,0.00000064,-0.00000816,-0.0
 0002175,-0.00002092,-0.00001412,0.00005745,0.00009047,0.00003969,-0.00
 025723,0.00045251,0.00021762,0.00039372,-0.00017141,-0.00005370,0.0000
 7139,0.00457278,0.00408325,0.00109750,-0.00058481,-0.00024992,-0.00038
 647,-0.00003457,0.00008481,-0.00006527,0.00003245,-0.00003597,0.000019
 95,-0.00004615,0.00001239,-0.00000416,-0.00000029,0.00000246,-0.000003
 20,-0.00000182,-0.00000226,-0.00000049,-0.00000270,-0.00000240,0.00000
 237,0.00308232,0.01288098,0.00595720,-0.08298237,-0.07979324,-0.012175
 11,0.00000824,0.00000539,-0.00000303,0.00000227,0.00000361,0.00000466,
 -0.00000359,0.00000152,0.00000298,0.00000221,0.00000126,-0.00002449,0.
 00000486,0.00000062,-0.00001642,0.00051776,-0.00124852,-0.00091985,0.0
 0002738,-0.00002942,0.00001026,-0.00003261,-0.00010814,0.00006898,0.00
 000104,-0.00000233,0.00000181,-0.00001742,-0.00000746,-0.00000202,0.00
 000437,-0.00000041,-0.00000216,0.00000606,0.00000298,0.00000052,-0.000
 00017,0.00000117,0.00000155,0.00000136,0.00000186,0.00000019,0.0000015
 1,0.00000056,-0.00000403,0.00000072,-0.00000211,0.00000211,0.00000101,
 0.00000162,0.00000015,0.00000195,-0.00000203,0.00000117,-0.00000023,0.
 00000048,-0.00000076,-0.00880809,-0.02962717,-0.00315690,0.00393120,0.
 00910647,-0.00021701,0.07996404,-0.00000092,-0.00002271,-0.00003080,-0
 .00004309,-0.00000011,0.00011175,0.00036759,0.00025056,-0.00033966,-0.
 00027338,0.00002990,0.00022491,0.00035507,0.00015260,0.00017533,-0.004
 31367,0.00062001,0.00076515,0.00053690,-0.00004318,0.00020678,-0.00029
 727,-0.00018150,-0.00004776,0.00030114,-0.00003219,0.00008263,-0.00014
 795,-0.00003524,-0.00001027,0.00002160,0.00001324,-0.00001038,-0.00001
 361,-0.00000992,-0.00000615,-0.00000898,-0.00001522,0.00001011,0.00365
 247,-0.01098267,-0.01674236,-0.07828118,-0.25536817,-0.02597577,0.0000
 1534,0.00001403,-0.00000208,0.00000472,0.00001783,0.00000070,0.0000015
 3,-0.00000066,0.00000400,0.00000448,-0.00000575,-0.00003112,-0.0000019
 2,0.00001012,-0.00000821,0.00193930,0.00023323,-0.00011103,-0.00011497
 ,-0.00010762,-0.00010571,-0.00010292,0.00018683,-0.00002611,0.00007424
 ,0.00000321,0.00000559,0.00010937,0.00004757,0.00003319,0.00001855,0.0
 0000281,-0.00000224,0.00002952,0.00001916,0.00000928,-0.00000187,0.000
 00770,0.00000525,0.00001320,0.00000689,0.00000421,0.00000032,-0.000002
 69,-0.00001442,0.00000227,-0.00000244,0.00000810,0.00000469,0.00000511
 ,0.00000123,0.00000891,-0.00000563,0.00000337,-0.00000121,0.00000172,-
 0.00000109,0.00028869,0.00165167,0.00150362,-0.00888555,-0.01784107,-0
 .00092791,0.08473860,0.28138257,-0.00000220,-0.00001584,-0.00002194,-0
 .00005568,-0.00002601,0.00015339,0.00034584,0.00024245,-0.00025454,-0.
 00087634,-0.00036188,0.00021898,0.00044010,0.00017637,-0.00021482,-0.0
 0697186,-0.00086004,0.00086269,0.00074988,0.00038620,-0.00033229,-0.00
 013766,-0.00010560,0.00024470,0.00026121,-0.00012495,0.00007553,-0.000
 10218,-0.00000883,0.00001688,0.00002053,0.00001606,-0.00001538,0.00000
 685,-0.00000827,-0.00000046,-0.00000554,-0.00001209,0.00001330,-0.0012
 2395,-0.03751049,-0.01970511,-0.00891345,-0.02315207,-0.05268379,0.000
 01281,0.00000978,-0.00000682,0.00000748,0.00001003,0.00000604,-0.00000
 180,0.00000441,0.00000575,0.00000118,-0.00000945,-0.00003139,-0.000004
 78,0.00000611,-0.00001840,0.00102406,0.00112270,0.00077061,0.00004905,
 0.00002553,0.00020663,-0.00006469,0.00016835,-0.00005039,-0.00004407,-
 0.00000594,-0.00000907,0.00001904,-0.00001823,0.00000426,0.00000985,-0
 .00000146,-0.00000368,0.00001080,0.00000396,0.00000057,-0.00000117,-0.
 00000224,0.00000066,-0.00000294,0.00000154,-0.00000057,0.00000236,0.00
 000698,-0.00000913,0.00000266,-0.00000598,0.00000788,-0.00000013,0.000
 00183,-0.00000108,0.00000864,-0.00000592,0.00000344,-0.00000286,0.0000
 0231,-0.00000021,-0.00244202,-0.00310133,0.00057147,0.00831456,0.02191
 418,0.00524591,0.00956641,0.04123785,0.06495037\\-0.00000052,0.0000007
 1,0.00000042,0.00000064,-0.00000082,0.00000349,-0.00000265,-0.00000113
 ,-0.00000394,0.00000719,0.00000572,0.00000144,-0.00000161,-0.00000122,
 -0.00000340,0.00000262,-0.00000470,-0.00000064,-0.00000057,0.00000236,
 0.00000053,-0.00000339,0.00000140,-0.00000221,0.00000036,-0.00000069,0
 .00000151,0.00000208,-0.00000122,-0.00000029,0.00000068,-0.00000029,0.
 00000009,0.00000003,-0.00000053,0.,0.00000027,-0.00000043,-0.00000023,
 -0.00000347,-0.00000106,0.00000252,-0.00000044,0.00000082,0.00000047,-
 0.00000051,-0.00000005,0.00000025,-0.00000007,0.00000030,0.00000004,-0
 .00000023,-0.00000007,0.,-0.00000080,0.00000078,-0.00000007,-0.0000006
 9,-0.00000019,-0.00000042,-0.00000036,0.00000004,0.00000028,-0.0000001
 8,0.00000086,0.00000009,0.00000019,0.00000008,0.00000020,0.00000018,-0
 .00000008,0.00000052,0.00000027,-0.00000053,0.00000041,-0.00000031,0.0
 0000070,0.00000001,-0.00000054,-0.00000013,0.00000002,0.00000021,0.000
 00012,-0.00000063,0.00000025,-0.00000013,-0.00000018,0.00000042,-0.000
 00013,-0.00000028,0.00000042,-0.00000010,-0.00000037,0.00000021,0.0000
 0010,-0.00000047,0.00000039,0.00000011,0.00000010,-0.00000031,-0.00000
 009,-0.00000015,0.00000017,-0.00000079,0.00000072,0.00000087,-0.000000
 06,0.,-0.00000080,0.00000030,0.00000018\\\@


 I DON'T PRETEND TO UNDERSTAND THE UNIVERSE --
 IT'S A GREAT DEAL BIGGER THAN I AM.
       -- ATTR. TO WILLIAM ALLINGHAM (1828-89)
 Job cpu time:       0 days  9 hours 48 minutes 15.3 seconds.
 Elapsed time:       0 days  2 hours 27 minutes 33.9 seconds.
 File lengths (MBytes):  RWF=    759 Int=      0 D2E=      0 Chk=     24 Scr=      1
 Normal termination of Gaussian 16 at Mon May 22 13:38:58 2023.
### All Done ###
