### Starting Gaussian ###
 Entering Gaussian System, Link 0=g16
 Initial command:
 /cluster/software/gaussian/gaussian-16-A.03/avx2/g16/l1.exe "/local/scratch/yxie/Gau-13712.inp" -scrdir="/local/scratch/yxie/"
 Entering Link 1 = /cluster/software/gaussian/gaussian-16-A.03/avx2/g16/l1.exe PID=     13715.
  
 Copyright (c) 1988,1990,1992,1993,1995,1998,2003,2009,2016,
            Gaussian, Inc.  All Rights Reserved.
  
 This is part of the Gaussian(R) 16 program.  It is based on
 the Gaussian(R) 09 system (copyright 2009, Gaussian, Inc.),
 the Gaussian(R) 03 system (copyright 2003, Gaussian, Inc.),
 the Gaussian(R) 98 system (copyright 1998, Gaussian, Inc.),
 the Gaussian(R) 94 system (copyright 1995, Gaussian, Inc.),
 the Gaussian 92(TM) system (copyright 1992, Gaussian, Inc.),
 the Gaussian 90(TM) system (copyright 1990, Gaussian, Inc.),
 the Gaussian 88(TM) system (copyright 1988, Gaussian, Inc.),
 the Gaussian 86(TM) system (copyright 1986, Carnegie Mellon
 University), and the Gaussian 82(TM) system (copyright 1983,
 Carnegie Mellon University). Gaussian is a federally registered
 trademark of Gaussian, Inc.
  
 This software contains proprietary and confidential information,
 including trade secrets, belonging to Gaussian, Inc.
  
 This software is provided under written license and may be
 used, copied, transmitted, or stored only in accord with that
 written license.
  
 The following legend is applicable only to US Government
 contracts under FAR:
  
                    RESTRICTED RIGHTS LEGEND
  
 Use, reproduction and disclosure by the US Government is
 subject to restrictions as set forth in subparagraphs (a)
 and (c) of the Commercial Computer Software - Restricted
 Rights clause in FAR 52.227-19.
  
 Gaussian, Inc.
 340 Quinnipiac St., Bldg. 40, Wallingford CT 06492
  
  
 ---------------------------------------------------------------
 Warning -- This program may not be used in any manner that
 competes with the business of Gaussian, Inc. or will provide
 assistance to any competitor of Gaussian, Inc.  The licensee
 of this program is prohibited from giving any competitor of
 Gaussian, Inc. access to this program.  By using this program,
 the user acknowledges that Gaussian, Inc. is engaged in the
 business of creating and licensing software in the field of
 computational chemistry and represents and warrants to the
 licensee that it is not a competitor of Gaussian, Inc. and that
 it will not use this program in any manner prohibited above.
 ---------------------------------------------------------------
  

 Cite this work as:
 Gaussian 16, Revision A.03,
 M. J. Frisch, G. W. Trucks, H. B. Schlegel, G. E. Scuseria, 
 M. A. Robb, J. R. Cheeseman, G. Scalmani, V. Barone, 
 G. A. Petersson, H. Nakatsuji, X. Li, M. Caricato, A. V. Marenich, 
 J. Bloino, B. G. Janesko, R. Gomperts, B. Mennucci, H. P. Hratchian, 
 J. V. Ortiz, A. F. Izmaylov, J. L. Sonnenberg, D. Williams-Young, 
 F. Ding, F. Lipparini, F. Egidi, J. Goings, B. Peng, A. Petrone, 
 T. Henderson, D. Ranasinghe, V. G. Zakrzewski, J. Gao, N. Rega, 
 G. Zheng, W. Liang, M. Hada, M. Ehara, K. Toyota, R. Fukuda, 
 J. Hasegawa, M. Ishida, T. Nakajima, Y. Honda, O. Kitao, H. Nakai, 
 T. Vreven, K. Throssell, J. A. Montgomery, Jr., J. E. Peralta, 
 F. Ogliaro, M. J. Bearpark, J. J. Heyd, E. N. Brothers, K. N. Kudin, 
 V. N. Staroverov, T. A. Keith, R. Kobayashi, J. Normand, 
 K. Raghavachari, A. P. Rendell, J. C. Burant, S. S. Iyengar, 
 J. Tomasi, M. Cossi, J. M. Millam, M. Klene, C. Adamo, R. Cammi, 
 J. W. Ochterski, R. L. Martin, K. Morokuma, O. Farkas, 
 J. B. Foresman, and D. J. Fox, Gaussian, Inc., Wallingford CT, 2016.
 
 ******************************************
 Gaussian 16:  ES64L-G16RevA.03 25-Dec-2016
                27-May-2023 
 ******************************************
 %chk=CCOCCOCCC1dCqCOOrC1.chk
 %NProcShared=20
 Will use up to   20 processors via shared memory.
 -----------------------------
 # opt freq b3lyp/6-31g(2df,p)
 -----------------------------
 1/18=20,19=15,26=3,38=1/1,3;
 2/9=110,12=2,17=6,18=5,40=1/2;
 3/5=1,6=6,7=104,11=2,25=1,30=1,71=1,74=-5/1,2,3;
 4//1;
 5/5=2,38=5/2;
 6/7=2,8=2,9=2,10=2,28=1/1;
 7//1,2,3,16;
 1/18=20,19=15,26=3/3(2);
 2/9=110/2;
 99//99;
 2/9=110/2;
 3/5=1,6=6,7=104,11=2,25=1,30=1,71=1,74=-5/1,2,3;
 4/5=5,16=3,69=1/1;
 5/5=2,38=5/2;
 7//1,2,3,16;
 1/18=20,19=15,26=3/3(-5);
 2/9=110/2;
 6/7=2,8=2,9=2,10=2,19=2,28=1/1;
 99/9=1/99;
 -------------------
 Title Card Required
 -------------------
 Symbolic Z-matrix:
 Charge =  0 Multiplicity = 1
 C                     0.98332   0.04642   0.09122 
 C                     2.49382   0.0693    0.08971 
 O                     2.96884  -1.26762   0.1789 
 C                     4.39086  -1.27796   0.17946 
 C                     4.8703   -2.70414   0.27427 
 O                     6.2914   -2.68926   0.27205 
 C                     6.76127  -4.01989   0.35944 
 C                     8.2725   -4.01465   0.3566 
 C                     8.71825  -5.37866   0.45818 
 C                     9.76554  -6.14952   0.48811 
 C                     10.54813  -7.38779   0.58354 
 O                     11.95698  -7.13758   0.56841 
 O                     12.54871  -8.47639   0.66047 
 C                     8.15891  -6.61666   0.62905 
 H                     0.58929   1.06325   0.02344 
 H                     0.60585  -0.42363   1.00505 
 H                     0.60586  -0.54076  -0.75214 
 H                     2.86135   0.64333   0.94693 
 H                     2.86136   0.52443  -0.83614 
 H                     4.77735  -0.70358   1.02991 
 H                     4.77723  -0.82141  -0.73968 
 H                     4.49853  -3.28983  -0.57541 
 H                     4.49936  -3.17194   1.19454 
 H                     6.38328  -4.59808  -0.49452 
 H                     6.38579  -4.4774    1.28499 
 H                     8.6541   -3.43204   1.20193 
 H                     8.65488  -3.54686  -0.55674 
 H                     10.32197  -8.01269  -0.28169 
 H                     10.32009  -7.88176   1.52954 
 H                     13.48029  -8.19781   0.64011 
 H                     7.79128  -6.83231   1.62158 
 H                     7.68427  -7.04901  -0.24028 
 

 GradGradGradGradGradGradGradGradGradGradGradGradGradGradGradGradGradGrad
 Berny optimization.
 Initialization pass.
                           ----------------------------
                           !    Initial Parameters    !
                           ! (Angstroms and Degrees)  !
 --------------------------                            --------------------------
 ! Name  Definition              Value          Derivative Info.                !
 --------------------------------------------------------------------------------
 ! R1    R(1,2)                  1.5107         estimate D2E/DX2                !
 ! R2    R(1,15)                 1.0926         estimate D2E/DX2                !
 ! R3    R(1,16)                 1.0948         estimate D2E/DX2                !
 ! R4    R(1,17)                 1.0948         estimate D2E/DX2                !
 ! R5    R(2,3)                  1.4216         estimate D2E/DX2                !
 ! R6    R(2,18)                 1.0952         estimate D2E/DX2                !
 ! R7    R(2,19)                 1.0952         estimate D2E/DX2                !
 ! R8    R(3,4)                  1.4221         estimate D2E/DX2                !
 ! R9    R(4,5)                  1.5076         estimate D2E/DX2                !
 ! R10   R(4,20)                 1.0966         estimate D2E/DX2                !
 ! R11   R(4,21)                 1.0966         estimate D2E/DX2                !
 ! R12   R(5,6)                  1.4212         estimate D2E/DX2                !
 ! R13   R(5,22)                 1.0969         estimate D2E/DX2                !
 ! R14   R(5,23)                 1.097          estimate D2E/DX2                !
 ! R15   R(6,7)                  1.4139         estimate D2E/DX2                !
 ! R16   R(7,8)                  1.5112         estimate D2E/DX2                !
 ! R17   R(7,24)                 1.0984         estimate D2E/DX2                !
 ! R18   R(7,25)                 1.0986         estimate D2E/DX2                !
 ! R19   R(8,9)                  1.4386         estimate D2E/DX2                !
 ! R20   R(8,26)                 1.0953         estimate D2E/DX2                !
 ! R21   R(8,27)                 1.0951         estimate D2E/DX2                !
 ! R22   R(9,10)                 1.3007         estimate D2E/DX2                !
 ! R23   R(9,14)                 1.3692         estimate D2E/DX2                !
 ! R24   R(10,11)                1.4679         estimate D2E/DX2                !
 ! R25   R(10,14)                1.6791         estimate D2E/DX2                !
 ! R26   R(11,12)                1.431          estimate D2E/DX2                !
 ! R27   R(11,28)                1.091          estimate D2E/DX2                !
 ! R28   R(11,29)                1.0913         estimate D2E/DX2                !
 ! R29   R(12,13)                1.4666         estimate D2E/DX2                !
 ! R30   R(13,30)                0.9726         estimate D2E/DX2                !
 ! R31   R(14,31)                1.0802         estimate D2E/DX2                !
 ! R32   R(14,32)                1.0807         estimate D2E/DX2                !
 ! A1    A(2,1,15)             110.2693         estimate D2E/DX2                !
 ! A2    A(2,1,16)             110.6153         estimate D2E/DX2                !
 ! A3    A(2,1,17)             110.6158         estimate D2E/DX2                !
 ! A4    A(15,1,16)            109.088          estimate D2E/DX2                !
 ! A5    A(15,1,17)            109.0882         estimate D2E/DX2                !
 ! A6    A(16,1,17)            107.0896         estimate D2E/DX2                !
 ! A7    A(1,2,3)              108.6508         estimate D2E/DX2                !
 ! A8    A(1,2,18)             110.0419         estimate D2E/DX2                !
 ! A9    A(1,2,19)             110.0413         estimate D2E/DX2                !
 ! A10   A(3,2,18)             109.3707         estimate D2E/DX2                !
 ! A11   A(3,2,19)             109.3732         estimate D2E/DX2                !
 ! A12   A(18,2,19)            109.3451         estimate D2E/DX2                !
 ! A13   A(2,3,4)              109.9377         estimate D2E/DX2                !
 ! A14   A(3,4,5)              108.9602         estimate D2E/DX2                !
 ! A15   A(3,4,20)             110.4218         estimate D2E/DX2                !
 ! A16   A(3,4,21)             110.4241         estimate D2E/DX2                !
 ! A17   A(5,4,20)             109.5506         estimate D2E/DX2                !
 ! A18   A(5,4,21)             109.5428         estimate D2E/DX2                !
 ! A19   A(20,4,21)            107.9256         estimate D2E/DX2                !
 ! A20   A(4,5,6)              107.9385         estimate D2E/DX2                !
 ! A21   A(4,5,22)             110.4026         estimate D2E/DX2                !
 ! A22   A(4,5,23)             110.4042         estimate D2E/DX2                !
 ! A23   A(6,5,22)             110.0773         estimate D2E/DX2                !
 ! A24   A(6,5,23)             110.1151         estimate D2E/DX2                !
 ! A25   A(22,5,23)            107.9107         estimate D2E/DX2                !
 ! A26   A(5,6,7)              108.8059         estimate D2E/DX2                !
 ! A27   A(6,7,8)              109.2051         estimate D2E/DX2                !
 ! A28   A(6,7,24)             109.4507         estimate D2E/DX2                !
 ! A29   A(6,7,25)             109.2943         estimate D2E/DX2                !
 ! A30   A(8,7,24)             110.1511         estimate D2E/DX2                !
 ! A31   A(8,7,25)             110.1697         estimate D2E/DX2                !
 ! A32   A(24,7,25)            108.5521         estimate D2E/DX2                !
 ! A33   A(7,8,9)              107.8442         estimate D2E/DX2                !
 ! A34   A(7,8,26)             110.4137         estimate D2E/DX2                !
 ! A35   A(7,8,27)             110.6232         estimate D2E/DX2                !
 ! A36   A(9,8,26)             109.9928         estimate D2E/DX2                !
 ! A37   A(9,8,27)             110.8377         estimate D2E/DX2                !
 ! A38   A(26,8,27)            107.1468         estimate D2E/DX2                !
 ! A39   A(8,9,10)             144.3909         estimate D2E/DX2                !
 ! A40   A(8,9,14)             137.6921         estimate D2E/DX2                !
 ! A41   A(9,10,11)            158.5349         estimate D2E/DX2                !
 ! A42   A(11,10,14)           105.6628         estimate D2E/DX2                !
 ! A43   A(10,11,12)           112.129          estimate D2E/DX2                !
 ! A44   A(10,11,28)           108.7289         estimate D2E/DX2                !
 ! A45   A(10,11,29)           109.0732         estimate D2E/DX2                !
 ! A46   A(12,11,28)           107.209          estimate D2E/DX2                !
 ! A47   A(12,11,29)           107.1002         estimate D2E/DX2                !
 ! A48   A(28,11,29)           112.6371         estimate D2E/DX2                !
 ! A49   A(11,12,13)           103.7063         estimate D2E/DX2                !
 ! A50   A(12,13,30)            97.1041         estimate D2E/DX2                !
 ! A51   A(9,14,31)            115.7357         estimate D2E/DX2                !
 ! A52   A(9,14,32)            116.1521         estimate D2E/DX2                !
 ! A53   A(10,14,31)           117.2792         estimate D2E/DX2                !
 ! A54   A(10,14,32)           117.6467         estimate D2E/DX2                !
 ! A55   A(31,14,32)           120.6499         estimate D2E/DX2                !
 ! D1    D(15,1,2,3)           179.9969         estimate D2E/DX2                !
 ! D2    D(15,1,2,18)           60.2773         estimate D2E/DX2                !
 ! D3    D(15,1,2,19)          -60.2808         estimate D2E/DX2                !
 ! D4    D(16,1,2,3)            59.2409         estimate D2E/DX2                !
 ! D5    D(16,1,2,18)          -60.4786         estimate D2E/DX2                !
 ! D6    D(16,1,2,19)          178.9633         estimate D2E/DX2                !
 ! D7    D(17,1,2,3)           -59.2467         estimate D2E/DX2                !
 ! D8    D(17,1,2,18)         -178.9663         estimate D2E/DX2                !
 ! D9    D(17,1,2,19)           60.4756         estimate D2E/DX2                !
 ! D10   D(1,2,3,4)            179.9938         estimate D2E/DX2                !
 ! D11   D(18,2,3,4)           -59.869          estimate D2E/DX2                !
 ! D12   D(19,2,3,4)            59.8558         estimate D2E/DX2                !
 ! D13   D(2,3,4,5)           -179.9865         estimate D2E/DX2                !
 ! D14   D(2,3,4,20)            59.6502         estimate D2E/DX2                !
 ! D15   D(2,3,4,21)           -59.6313         estimate D2E/DX2                !
 ! D16   D(3,4,5,6)            179.9534         estimate D2E/DX2                !
 ! D17   D(3,4,5,22)            59.596          estimate D2E/DX2                !
 ! D18   D(3,4,5,23)           -59.6421         estimate D2E/DX2                !
 ! D19   D(20,4,5,6)           -59.1482         estimate D2E/DX2                !
 ! D20   D(20,4,5,22)         -179.5056         estimate D2E/DX2                !
 ! D21   D(20,4,5,23)           61.2563         estimate D2E/DX2                !
 ! D22   D(21,4,5,6)            59.0568         estimate D2E/DX2                !
 ! D23   D(21,4,5,22)          -61.3005         estimate D2E/DX2                !
 ! D24   D(21,4,5,23)          179.4613         estimate D2E/DX2                !
 ! D25   D(4,5,6,7)           -179.9552         estimate D2E/DX2                !
 ! D26   D(22,5,6,7)           -59.3939         estimate D2E/DX2                !
 ! D27   D(23,5,6,7)            59.4591         estimate D2E/DX2                !
 ! D28   D(5,6,7,8)            179.9528         estimate D2E/DX2                !
 ! D29   D(5,6,7,24)            59.2961         estimate D2E/DX2                !
 ! D30   D(5,6,7,25)           -59.4635         estimate D2E/DX2                !
 ! D31   D(6,7,8,9)            179.5016         estimate D2E/DX2                !
 ! D32   D(6,7,8,26)            59.2992         estimate D2E/DX2                !
 ! D33   D(6,7,8,27)           -59.1369         estimate D2E/DX2                !
 ! D34   D(24,7,8,9)           -60.2708         estimate D2E/DX2                !
 ! D35   D(24,7,8,26)          179.5268         estimate D2E/DX2                !
 ! D36   D(24,7,8,27)           61.0908         estimate D2E/DX2                !
 ! D37   D(25,7,8,9)            59.4549         estimate D2E/DX2                !
 ! D38   D(25,7,8,26)          -60.7475         estimate D2E/DX2                !
 ! D39   D(25,7,8,27)         -179.1835         estimate D2E/DX2                !
 ! D40   D(7,8,9,10)           178.0239         estimate D2E/DX2                !
 ! D41   D(7,8,9,14)            -4.7861         estimate D2E/DX2                !
 ! D42   D(26,8,9,10)          -61.509          estimate D2E/DX2                !
 ! D43   D(26,8,9,14)          115.681          estimate D2E/DX2                !
 ! D44   D(27,8,9,10)           56.7959         estimate D2E/DX2                !
 ! D45   D(27,8,9,14)         -126.0141         estimate D2E/DX2                !
 ! D46   D(8,9,10,11)          178.2717         estimate D2E/DX2                !
 ! D47   D(8,9,14,31)          -73.4812         estimate D2E/DX2                !
 ! D48   D(8,9,14,32)           76.6491         estimate D2E/DX2                !
 ! D49   D(9,10,11,12)        -176.2809         estimate D2E/DX2                !
 ! D50   D(9,10,11,28)          65.3523         estimate D2E/DX2                !
 ! D51   D(9,10,11,29)         -57.8261         estimate D2E/DX2                !
 ! D52   D(14,10,11,12)       -176.1105         estimate D2E/DX2                !
 ! D53   D(14,10,11,28)         65.5227         estimate D2E/DX2                !
 ! D54   D(14,10,11,29)        -57.6557         estimate D2E/DX2                !
 ! D55   D(11,10,14,31)         78.5123         estimate D2E/DX2                !
 ! D56   D(11,10,14,32)        -78.0708         estimate D2E/DX2                !
 ! D57   D(10,11,12,13)       -179.5812         estimate D2E/DX2                !
 ! D58   D(28,11,12,13)        -60.3183         estimate D2E/DX2                !
 ! D59   D(29,11,12,13)         60.8031         estimate D2E/DX2                !
 ! D60   D(11,12,13,30)        179.8434         estimate D2E/DX2                !
 --------------------------------------------------------------------------------
 Trust Radius=3.00D-01 FncErr=1.00D-07 GrdErr=1.00D-06 EigMax=2.50D+02 EigMin=1.00D-04
 Number of steps in this run=    157 maximum allowed number of steps=    192.
 GradGradGradGradGradGradGradGradGradGradGradGradGradGradGradGradGradGrad

                          Input orientation:                          
 ---------------------------------------------------------------------
 Center     Atomic      Atomic             Coordinates (Angstroms)
 Number     Number       Type             X           Y           Z
 ---------------------------------------------------------------------
      1          6           0        0.983320    0.046420    0.091220
      2          6           0        2.493820    0.069300    0.089710
      3          8           0        2.968840   -1.267620    0.178900
      4          6           0        4.390860   -1.277960    0.179460
      5          6           0        4.870300   -2.704140    0.274270
      6          8           0        6.291400   -2.689260    0.272050
      7          6           0        6.761270   -4.019890    0.359440
      8          6           0        8.272500   -4.014650    0.356600
      9          6           0        8.718250   -5.378660    0.458180
     10          6           0        9.765540   -6.149520    0.488110
     11          6           0       10.548130   -7.387790    0.583540
     12          8           0       11.956980   -7.137580    0.568410
     13          8           0       12.548710   -8.476390    0.660470
     14          6           0        8.158910   -6.616660    0.629050
     15          1           0        0.589290    1.063250    0.023440
     16          1           0        0.605850   -0.423630    1.005050
     17          1           0        0.605860   -0.540760   -0.752140
     18          1           0        2.861350    0.643330    0.946930
     19          1           0        2.861360    0.524430   -0.836140
     20          1           0        4.777350   -0.703580    1.029910
     21          1           0        4.777230   -0.821410   -0.739680
     22          1           0        4.498530   -3.289830   -0.575410
     23          1           0        4.499360   -3.171940    1.194540
     24          1           0        6.383280   -4.598080   -0.494520
     25          1           0        6.385790   -4.477400    1.284990
     26          1           0        8.654100   -3.432040    1.201930
     27          1           0        8.654880   -3.546860   -0.556740
     28          1           0       10.321970   -8.012690   -0.281690
     29          1           0       10.320090   -7.881760    1.529540
     30          1           0       13.480290   -8.197810    0.640110
     31          1           0        7.791280   -6.832310    1.621580
     32          1           0        7.684270   -7.049010   -0.240280
 ---------------------------------------------------------------------
                    Distance matrix (angstroms):
                    1          2          3          4          5
     1  C    0.000000
     2  C    1.510674   0.000000
     3  O    2.382578   1.421603   0.000000
     4  C    3.656925   2.328503   1.422058   0.000000
     5  C    4.765260   3.657005   2.385002   1.507594   0.000000
     6  O    5.974308   4.697288   3.615127   2.369049   1.421180
     7  C    7.070469   5.916533   4.689361   3.628969   2.305259
     8  C    8.348345   7.081174   5.975497   4.752681   3.646804
     9  C    9.454909   8.280070   7.073497   5.968227   4.689733
    10  C   10.755212   9.576552   8.373989   7.260478   5.989970
    11  C   12.124168  10.987446   9.750172   8.683621   7.366816
    12  O   13.124739  11.904607  10.742198   9.577714   8.364385
    13  O   14.377781  13.208156  11.998841  10.890330   9.613844
    14  C    9.806885   8.779874   7.466705   6.549966   5.123342
    15  H    1.092610   2.149317   3.334574   4.467386   5.708169
    16  H    1.094767   2.155286   2.641697   3.967087   4.890838
    17  H    1.094766   2.155291   2.641749   3.967060   4.890724
    18  H    2.148380   1.095178   2.062318   2.572891   3.961554
    19  H    2.148377   1.095184   2.062353   2.572824   3.961378
    20  H    3.979736   2.587630   2.076793   1.096609   2.140531
    21  H    3.979608   2.587511   2.076817   1.096603   2.140427
    22  H    4.892000   3.967997   2.645424   2.151521   1.096906
    23  H    4.892616   3.968435   2.645836   2.151585   1.096964
    24  H    7.146610   6.103578   4.817038   3.930290   2.543060
    25  H    7.146798   6.103164   4.816811   3.929168   2.542187
    26  H    8.495542   7.172549   6.168751   4.884744   3.963273
    27  H    8.496137   7.173087   6.169858   4.885874   3.965325
    28  H   12.340936  11.257728   9.988825   8.985951   7.629581
    29  H   12.332886  11.249132   9.980579   8.977119   7.621264
    30  H   14.981417  13.760471  12.598842  11.433034  10.219891
    31  H    9.798329   8.834134   7.503534   6.670335   5.233465
    32  H    9.765129   8.815895   7.472313   6.657909   5.202027
                    6          7          8          9         10
     6  O    0.000000
     7  C    1.413857   0.000000
     8  C    2.385071   1.511242   0.000000
     9  C    3.627274   2.384487   1.438588   0.000000
    10  C    4.908129   3.684768   2.608473   1.300745   0.000000
    11  C    6.347674   5.072798   4.075300   2.720437   1.467946
    12  O    7.209312   6.062925   4.834558   3.687184   2.405228
    13  O    8.532038   7.310641   6.187522   4.930444   3.631813
    14  C    4.363429   2.961301   2.618700   1.369197   1.679090
    15  H    6.830607   8.002784   9.215627  10.381098  11.680905
    16  H    6.164077   7.158149   8.490785   9.521682  10.814479
    17  H    6.163634   7.157446   8.489675   9.522658  10.811852
    18  H    4.829789   6.107384   7.164203   8.414661   9.696451
    19  H    4.829189   6.106517   7.162842   8.415753   9.693449
    20  H    2.609526   3.922165   4.861338   6.141168   7.404988
    21  H    2.608672   3.921065   4.859581   6.142885   7.401315
    22  H    2.072017   2.554785   3.954346   4.820535   6.086895
    23  H    2.072529   2.555905   3.955868   4.817766   6.090786
    24  H    2.059045   1.098375   2.152661   2.639892   3.848663
    25  H    2.057280   1.098610   2.153072   2.633677   3.854052
    26  H    2.645515   2.153639   1.095279   2.084852   3.021512
    27  H    2.647340   2.156131   1.095094   2.095130   3.016474
    28  H    6.700077   5.388143   4.537848   3.171347   2.091317
    29  H    6.691314   5.380369   4.530227   3.158989   2.095891
    30  H    9.064200   7.917008   6.685827   5.536942   4.244757
    31  H    4.608225   3.250173   3.125853   2.079873   2.376691
    32  H    4.605430   3.222912   3.147955   2.084953   2.381453
                   11         12         13         14         15
    11  C    0.000000
    12  O    1.430976   0.000000
    13  O    2.278879   1.466640   0.000000
    14  C    2.510993   3.834106   4.767591   0.000000
    15  H   13.073342  14.027651  15.311377  10.800321   0.000000
    16  H   12.146033  13.195300  14.408247   9.774646   1.781753
    17  H   12.145559  13.195068  14.408378   9.791466   1.781754
    18  H   11.122838  11.975655  13.307753   8.992922   2.488257
    19  H   11.122282  11.975369  13.307868   9.011436   2.488274
    20  H    8.841935   9.651758  10.997595   6.823500   4.655590
    21  H    8.841467   9.651627  10.997956   6.847927   4.655442
    22  H    7.398250   8.470064   9.655734   5.090865   5.881334
    23  H    7.398265   8.469618   9.654763   5.057488   5.881918
    24  H    5.127443   6.216511   7.374810   2.913750   8.117220
    25  H    5.127131   6.215159   7.373163   2.854933   8.117248
    26  H    4.429189   5.004137   6.395829   3.273409   9.307934
    27  H    4.431408   5.006306   6.398733   3.328026   9.308247
    28  H    1.090996   2.040036   2.461921   2.730783  13.311305
    29  H    1.091295   2.038868   2.464876   2.661214  13.303008
    30  H    3.042515   1.857337   0.972555   5.551328  15.884754
    31  H    2.997717   4.307599   5.124439   1.080172  10.805673
    32  H    2.999191   4.349468   5.148936   1.080715  10.780401
                   16         17         18         19         20
    16  H    0.000000
    17  H    1.761089   0.000000
    18  H    2.495809   3.062049   0.000000
    19  H    3.062046   2.495790   1.787030   0.000000
    20  H    4.180957   4.539112   2.343525   2.942986   0.000000
    21  H    4.539022   4.180819   2.942909   2.343320   1.773509
    22  H    5.085854   4.768805   4.524116   4.158952   3.056711
    23  H    4.769542   5.086454   4.159408   4.524363   2.489414
    24  H    7.283779   7.064474   6.477202   6.225812   4.479959
    25  H    7.065347   7.283861   6.225579   6.476041   4.110214
    26  H    8.594395   8.772232   7.087286   7.305013   4.743762
    27  H    8.773861   8.594274   7.306415   7.086490   5.063293
    28  H   12.395665  12.265963  11.493348  11.351235   9.267480
    29  H   12.258273  12.388003  11.342372  11.484473   9.082834
    30  H   15.044011  15.043926  13.821063  13.820943  11.491588
    31  H    9.647885   9.841159   8.980231   9.190545   6.855303
    32  H    9.774995   9.629289   9.156534   8.998472   7.094226
                   21         22         23         24         25
    21  H    0.000000
    22  H    2.489529   0.000000
    23  H    3.056699   1.773872   0.000000
    24  H    4.111294   2.295723   2.904471   0.000000
    25  H    4.478059   2.903991   2.295871   1.783599   0.000000
    26  H    5.061162   4.521938   4.162880   3.064998   2.498981
    27  H    4.743176   4.164332   4.525030   2.503817   3.067025
    28  H    9.092217   7.503608   7.714590   5.217100   5.517814
    29  H    9.258574   7.707606   7.495033   5.511610   5.208473
    30  H   11.491664  10.307171  10.306496   8.038221   8.036744
    31  H    7.126778   5.312074   4.941397   3.384099   2.763023
    32  H    6.890812   4.938895   5.218624   2.786444   3.259705
                   26         27         28         29         30
    26  H    0.000000
    27  H    1.762414   0.000000
    28  H    5.095613   4.774775   0.000000
    29  H    4.762653   5.090859   1.815957   0.000000
    30  H    6.805903   6.807964   3.295295   3.298157   0.000000
    31  H    3.533044   4.035476   3.379368   2.739470   5.932344
    32  H    4.012856   3.647915   2.808533   3.282268   5.974000
                   31         32
    31  H    0.000000
    32  H    1.877480   0.000000
 Stoichiometry    C10H18O4
 Framework group  C1[X(C10H18O4)]
 Deg. of freedom    90
 Full point group                 C1      NOp   1
 Largest Abelian subgroup         C1      NOp   1
 Largest concise Abelian subgroup C1      NOp   1
                         Standard orientation:                         
 ---------------------------------------------------------------------
 Center     Atomic      Atomic             Coordinates (Angstroms)
 Number     Number       Type             X           Y           Z
 ---------------------------------------------------------------------
      1          6           0        7.213494    0.532578   -0.015809
      2          6           0        6.045597   -0.425255    0.010809
      3          8           0        4.839773    0.327366   -0.011646
      4          6           0        3.720406   -0.549377    0.012537
      5          6           0        2.455451    0.270450   -0.012222
      6          8           0        1.352583   -0.625583    0.011430
      7          6           0        0.154772    0.125200   -0.012344
      8          6           0       -1.024595   -0.819459    0.011385
      9          6           0       -2.224858   -0.026531   -0.001657
     10          6           0       -3.524509   -0.075548   -0.022660
     11          6           0       -4.910045    0.409379   -0.024775
     12          8           0       -5.856629   -0.663314    0.006840
     13          8           0       -7.155089    0.018389   -0.010911
     14          6           0       -2.563165    1.299275    0.048213
     15          1           0        8.156237   -0.019471    0.000760
     16          1           0        7.178459    1.207176    0.845705
     17          1           0        7.179799    1.156635   -0.914658
     18          1           0        6.078313   -1.031775    0.922114
     19          1           0        6.079645   -1.083026   -0.864180
     20          1           0        3.738785   -1.168514    0.917459
     21          1           0        3.740315   -1.219429   -0.855318
     22          1           0        2.418494    0.889296   -0.917134
     23          1           0        2.416430    0.939752    0.856019
     24          1           0        0.127522    0.741732   -0.920955
     25          1           0        0.125473    0.789741    0.861997
     26          1           0       -0.997061   -1.442374    0.911860
     27          1           0       -0.994827   -1.495312   -0.849758
     28          1           0       -5.084657    0.966898   -0.946162
     29          1           0       -5.078241    1.012216    0.869218
     30          1           0       -7.710305   -0.779840    0.009791
     31          1           0       -2.451225    1.776007    1.011005
     32          1           0       -2.423552    1.861147   -0.864340
 ---------------------------------------------------------------------
 Rotational constants (GHZ):           5.4308625           0.1237372           0.1217397
 Standard basis: 6-31G(2df,p) (6D, 7F)
 There are   524 symmetry adapted cartesian basis functions of A   symmetry.
 There are   482 symmetry adapted basis functions of A   symmetry.
   482 basis functions,   742 primitive gaussians,   524 cartesian basis functions
    55 alpha electrons       55 beta electrons
       nuclear repulsion energy       838.6310340782 Hartrees.
 NAtoms=   32 NActive=   32 NUniq=   32 SFac= 1.00D+00 NAtFMM=   60 NAOKFM=F Big=F
 Integral buffers will be    131072 words long.
 Raffenetti 2 integral format.
 Two-electron integral symmetry is turned on.
 One-electron integrals computed using PRISM.
 PrsmSu:  requested number of processors reduced to:  12 ShMem   1 Linda.
 NBasis=   482 RedAO= T EigKep=  2.62D-04  NBF=   482
 NBsUse=   482 1.00D-06 EigRej= -1.00D+00 NBFU=   482
 ExpMin= 1.61D-01 ExpMax= 5.48D+03 ExpMxC= 8.25D+02 IAcc=3 IRadAn=         5 AccDes= 0.00D+00
 Harris functional with IExCor=  402 and IRadAn=       5 diagonalized for initial guess.
 HarFok:  IExCor=  402 AccDes= 0.00D+00 IRadAn=         5 IDoV= 1 UseB2=F ITyADJ=14
 ICtDFT=  3500011 ScaDFX=  1.000000  1.000000  1.000000  1.000000
 FoFCou: FMM=F IPFlag=           0 FMFlag=      100000 FMFlg1=           0
         NFxFlg=           0 DoJE=T BraDBF=F KetDBF=T FulRan=T
         wScrn=  0.000000 ICntrl=       500 IOpCl=  0 I1Cent=   200000004 NGrid=           0
         NMat0=    1 NMatS0=      1 NMatT0=    0 NMatD0=    1 NMtDS0=    0 NMtDT0=    0
 Petite list used in FoFCou.
 Requested convergence on RMS density matrix=1.00D-08 within 128 cycles.
 Requested convergence on MAX density matrix=1.00D-06.
 Requested convergence on             energy=1.00D-06.
 No special actions if energy rises.
 Integral accuracy reduced to 1.0D-05 until final iterations.
 Initial convergence to 1.0D-05 achieved.  Increase integral accuracy.
 SCF Done:  E(RB3LYP) =  -692.584355132     A.U. after   14 cycles
            NFock= 14  Conv=0.37D-08     -V/T= 2.0066

 **********************************************************************

            Population analysis using the SCF density.

 **********************************************************************

 Orbital symmetries:
       Occupied  (A) (A) (A) (A) (A) (A) (A) (A) (A) (A) (A) (A)
                 (A) (A) (A) (A) (A) (A) (A) (A) (A) (A) (A) (A)
                 (A) (A) (A) (A) (A) (A) (A) (A) (A) (A) (A) (A)
                 (A) (A) (A) (A) (A) (A) (A) (A) (A) (A) (A) (A)
                 (A) (A) (A) (A) (A) (A) (A)
       Virtual   (A) (A) (A) (A) (A) (A) (A) (A) (A) (A) (A) (A)
                 (A) (A) (A) (A) (A) (A) (A) (A) (A) (A) (A) (A)
                 (A) (A) (A) (A) (A) (A) (A) (A) (A) (A) (A) (A)
                 (A) (A) (A) (A) (A) (A) (A) (A) (A) (A) (A) (A)
                 (A) (A) (A) (A) (A) (A) (A) (A) (A) (A) (A) (A)
                 (A) (A) (A) (A) (A) (A) (A) (A) (A) (A) (A) (A)
                 (A) (A) (A) (A) (A) (A) (A) (A) (A) (A) (A) (A)
                 (A) (A) (A) (A) (A) (A) (A) (A) (A) (A) (A) (A)
                 (A) (A) (A) (A) (A) (A) (A) (A) (A) (A) (A) (A)
                 (A) (A) (A) (A) (A) (A) (A) (A) (A) (A) (A) (A)
                 (A) (A) (A) (A) (A) (A) (A) (A) (A) (A) (A) (A)
                 (A) (A) (A) (A) (A) (A) (A) (A) (A) (A) (A) (A)
                 (A) (A) (A) (A) (A) (A) (A) (A) (A) (A) (A) (A)
                 (A) (A) (A) (A) (A) (A) (A) (A) (A) (A) (A) (A)
                 (A) (A) (A) (A) (A) (A) (A) (A) (A) (A) (A) (A)
                 (A) (A) (A) (A) (A) (A) (A) (A) (A) (A) (A) (A)
                 (A) (A) (A) (A) (A) (A) (A) (A) (A) (A) (A) (A)
                 (A) (A) (A) (A) (A) (A) (A) (A) (A) (A) (A) (A)
                 (A) (A) (A) (A) (A) (A) (A) (A) (A) (A) (A) (A)
                 (A) (A) (A) (A) (A) (A) (A) (A) (A) (A) (A) (A)
                 (A) (A) (A) (A) (A) (A) (A) (A) (A) (A) (A) (A)
                 (A) (A) (A) (A) (A) (A) (A) (A) (A) (A) (A) (A)
                 (A) (A) (A) (A) (A) (A) (A) (A) (A) (A) (A) (A)
                 (A) (A) (A) (A) (A) (A) (A) (A) (A) (A) (A) (A)
                 (A) (A) (A) (A) (A) (A) (A) (A) (A) (A) (A) (A)
                 (A) (A) (A) (A) (A) (A) (A) (A) (A) (A) (A) (A)
                 (A) (A) (A) (A) (A) (A) (A) (A) (A) (A) (A) (A)
                 (A) (A) (A) (A) (A) (A) (A) (A) (A) (A) (A) (A)
                 (A) (A) (A) (A) (A) (A) (A) (A) (A) (A) (A) (A)
                 (A) (A) (A) (A) (A) (A) (A) (A) (A) (A) (A) (A)
                 (A) (A) (A) (A) (A) (A) (A) (A) (A) (A) (A) (A)
                 (A) (A) (A) (A) (A) (A) (A) (A) (A) (A) (A) (A)
                 (A) (A) (A) (A) (A) (A) (A) (A) (A) (A) (A) (A)
                 (A) (A) (A) (A) (A) (A) (A) (A) (A) (A) (A) (A)
                 (A) (A) (A) (A) (A) (A) (A) (A) (A) (A) (A) (A)
                 (A) (A) (A) (A) (A) (A) (A)
 The electronic state is 1-A.
 Alpha  occ. eigenvalues --  -19.18490 -19.18168 -19.14279 -19.13795 -10.25274
 Alpha  occ. eigenvalues --  -10.22978 -10.22553 -10.22498 -10.22336 -10.20518
 Alpha  occ. eigenvalues --  -10.20257 -10.18811 -10.18443 -10.17437  -1.10136
 Alpha  occ. eigenvalues --   -1.03853  -1.02653  -0.91068  -0.88275  -0.78927
 Alpha  occ. eigenvalues --   -0.76402  -0.71917  -0.69504  -0.63740  -0.61044
 Alpha  occ. eigenvalues --   -0.60579  -0.58893  -0.52933  -0.51430  -0.50606
 Alpha  occ. eigenvalues --   -0.49009  -0.48939  -0.47818  -0.46976  -0.45652
 Alpha  occ. eigenvalues --   -0.45476  -0.44610  -0.43580  -0.42578  -0.41468
 Alpha  occ. eigenvalues --   -0.39813  -0.38317  -0.37459  -0.36566  -0.35619
 Alpha  occ. eigenvalues --   -0.34466  -0.34388  -0.33837  -0.32671  -0.31900
 Alpha  occ. eigenvalues --   -0.26160  -0.25379  -0.24704  -0.24089  -0.23145
 Alpha virt. eigenvalues --    0.01722   0.02251   0.05425   0.08054   0.08759
 Alpha virt. eigenvalues --    0.09647   0.10433   0.11809   0.12854   0.12970
 Alpha virt. eigenvalues --    0.14329   0.14791   0.15929   0.16969   0.17083
 Alpha virt. eigenvalues --    0.17946   0.18033   0.18231   0.18766   0.18971
 Alpha virt. eigenvalues --    0.19536   0.19823   0.19933   0.21288   0.22400
 Alpha virt. eigenvalues --    0.23200   0.23459   0.24678   0.25567   0.28699
 Alpha virt. eigenvalues --    0.30865   0.34359   0.38181   0.39766   0.40875
 Alpha virt. eigenvalues --    0.43926   0.45624   0.47599   0.48454   0.48702
 Alpha virt. eigenvalues --    0.50372   0.51119   0.51487   0.52347   0.52703
 Alpha virt. eigenvalues --    0.53294   0.53887   0.55569   0.56432   0.58604
 Alpha virt. eigenvalues --    0.59989   0.60335   0.60730   0.61617   0.63425
 Alpha virt. eigenvalues --    0.65020   0.65763   0.66862   0.67242   0.68494
 Alpha virt. eigenvalues --    0.68663   0.69614   0.69768   0.69906   0.70694
 Alpha virt. eigenvalues --    0.72313   0.72621   0.73779   0.74170   0.74449
 Alpha virt. eigenvalues --    0.75214   0.75796   0.75965   0.76330   0.77622
 Alpha virt. eigenvalues --    0.78492   0.79249   0.79951   0.80818   0.81050
 Alpha virt. eigenvalues --    0.81938   0.82606   0.83744   0.83891   0.84617
 Alpha virt. eigenvalues --    0.84847   0.86792   0.87036   0.88165   0.89599
 Alpha virt. eigenvalues --    0.89710   0.91789   0.92786   0.93590   0.95880
 Alpha virt. eigenvalues --    0.96542   0.97433   0.98647   0.99235   1.02612
 Alpha virt. eigenvalues --    1.02872   1.03741   1.04210   1.04611   1.09649
 Alpha virt. eigenvalues --    1.10650   1.12229   1.14312   1.15400   1.18252
 Alpha virt. eigenvalues --    1.18553   1.20045   1.20416   1.21002   1.21753
 Alpha virt. eigenvalues --    1.22790   1.23269   1.25988   1.26730   1.29218
 Alpha virt. eigenvalues --    1.31049   1.31791   1.34283   1.36666   1.37243
 Alpha virt. eigenvalues --    1.37406   1.38324   1.39778   1.40626   1.41966
 Alpha virt. eigenvalues --    1.43144   1.43820   1.46228   1.46850   1.48128
 Alpha virt. eigenvalues --    1.49722   1.50522   1.51144   1.53460   1.54411
 Alpha virt. eigenvalues --    1.55497   1.57035   1.58767   1.60696   1.62484
 Alpha virt. eigenvalues --    1.62654   1.64668   1.68305   1.68707   1.69433
 Alpha virt. eigenvalues --    1.70130   1.71875   1.73250   1.74148   1.74881
 Alpha virt. eigenvalues --    1.75380   1.77601   1.80401   1.83747   1.85115
 Alpha virt. eigenvalues --    1.85835   1.88370   1.90476   1.91019   1.91493
 Alpha virt. eigenvalues --    1.94039   1.95393   1.95820   1.96407   1.97353
 Alpha virt. eigenvalues --    1.98321   2.04816   2.08575   2.12765   2.15317
 Alpha virt. eigenvalues --    2.15994   2.16331   2.17183   2.18357   2.21061
 Alpha virt. eigenvalues --    2.21473   2.24661   2.24935   2.28059   2.28910
 Alpha virt. eigenvalues --    2.29950   2.33087   2.33658   2.37366   2.42515
 Alpha virt. eigenvalues --    2.42897   2.46030   2.48277   2.50191   2.51144
 Alpha virt. eigenvalues --    2.52225   2.53421   2.56022   2.56330   2.58090
 Alpha virt. eigenvalues --    2.61529   2.61582   2.65821   2.66902   2.69135
 Alpha virt. eigenvalues --    2.71490   2.73112   2.73592   2.74343   2.75637
 Alpha virt. eigenvalues --    2.76348   2.77289   2.78899   2.80167   2.82870
 Alpha virt. eigenvalues --    2.83079   2.84378   2.84508   2.84893   2.85175
 Alpha virt. eigenvalues --    2.85850   2.87505   2.88690   2.89333   2.90592
 Alpha virt. eigenvalues --    2.90846   2.92582   2.93468   2.95517   2.95774
 Alpha virt. eigenvalues --    2.96867   2.97962   2.98891   2.99112   3.00750
 Alpha virt. eigenvalues --    3.01617   3.04967   3.09048   3.12480   3.14154
 Alpha virt. eigenvalues --    3.14849   3.18304   3.20786   3.21175   3.21806
 Alpha virt. eigenvalues --    3.24895   3.28740   3.29023   3.29780   3.30778
 Alpha virt. eigenvalues --    3.30977   3.32081   3.32472   3.36597   3.37729
 Alpha virt. eigenvalues --    3.38389   3.39004   3.40205   3.42180   3.42550
 Alpha virt. eigenvalues --    3.44808   3.47071   3.47810   3.50522   3.50747
 Alpha virt. eigenvalues --    3.52755   3.57575   3.58158   3.60100   3.60480
 Alpha virt. eigenvalues --    3.63044   3.63635   3.64239   3.67238   3.67559
 Alpha virt. eigenvalues --    3.68209   3.71542   3.72519   3.73186   3.73913
 Alpha virt. eigenvalues --    3.74533   3.75089   3.79706   3.83037   3.85637
 Alpha virt. eigenvalues --    3.85923   3.91076   3.93701   3.93913   3.95819
 Alpha virt. eigenvalues --    3.95967   4.00681   4.01418   4.03961   4.05535
 Alpha virt. eigenvalues --    4.09417   4.11834   4.16400   4.19416   4.22155
 Alpha virt. eigenvalues --    4.22628   4.26790   4.26995   4.28110   4.33062
 Alpha virt. eigenvalues --    4.34869   4.35408   4.37660   4.37956   4.39809
 Alpha virt. eigenvalues --    4.40580   4.41065   4.41448   4.42402   4.43585
 Alpha virt. eigenvalues --    4.44829   4.45629   4.46692   4.47067   4.49027
 Alpha virt. eigenvalues --    4.51137   4.51389   4.51761   4.52431   4.53401
 Alpha virt. eigenvalues --    4.54735   4.55083   4.56678   4.56893   4.57551
 Alpha virt. eigenvalues --    4.58093   4.58499   4.60718   4.61322   4.62671
 Alpha virt. eigenvalues --    4.63330   4.63915   4.64933   4.66604   4.67893
 Alpha virt. eigenvalues --    4.68934   4.71697   4.73223   4.73649   4.74082
 Alpha virt. eigenvalues --    4.75521   4.75656   4.76665   4.76845   4.77783
 Alpha virt. eigenvalues --    4.78086   4.80016   4.81776   4.85098   4.86521
 Alpha virt. eigenvalues --    4.88045   4.89356   4.90824   4.91074   4.91536
 Alpha virt. eigenvalues --    4.92304   4.93079   4.93854   4.97527   4.99080
 Alpha virt. eigenvalues --    5.01301   5.02933   5.04091   5.06135   5.08759
 Alpha virt. eigenvalues --    5.17642   5.19685   5.30361   5.33395   5.37626
 Alpha virt. eigenvalues --    5.40317   5.41461   5.41866   5.43096   5.43996
 Alpha virt. eigenvalues --    5.45924   5.49954   5.51278   5.54921   5.56436
 Alpha virt. eigenvalues --    5.56920   5.58689   5.62320   5.63210   5.68921
 Alpha virt. eigenvalues --    5.77677   5.86016   5.86307   5.87617   5.88370
 Alpha virt. eigenvalues --    5.91005   5.97344   6.01354   6.01460   6.02782
 Alpha virt. eigenvalues --    6.07593   6.09701   6.14481   6.22783   6.24874
 Alpha virt. eigenvalues --    6.32232   6.38823   6.44686   6.72196   6.84074
 Alpha virt. eigenvalues --    7.06219   7.07496   7.10816  10.15298  11.18566
 Alpha virt. eigenvalues --   11.20706  11.33736  11.59227  11.79792  11.84156
 Alpha virt. eigenvalues --   11.92115  12.04082  12.51482  12.95114  13.39588
 Alpha virt. eigenvalues --   13.42471  13.48265
          Condensed to atoms (all electrons):
               1          2          3          4          5          6
     1  C    4.952755   0.422384  -0.034449   0.003990  -0.000327   0.000000
     2  C    0.422384   4.668918   0.356344  -0.068652   0.003415  -0.000044
     3  O   -0.034449   0.356344   7.736907   0.335366  -0.026719   0.000549
     4  C    0.003990  -0.068652   0.335366   4.766475   0.432048  -0.028529
     5  C   -0.000327   0.003415  -0.026719   0.432048   4.789018   0.333194
     6  O    0.000000  -0.000044   0.000549  -0.028529   0.333194   7.723437
     7  C   -0.000000  -0.000001  -0.000034   0.002709  -0.076549   0.363786
     8  C    0.000000  -0.000000   0.000000  -0.000259   0.003711  -0.025199
     9  C    0.000000   0.000000   0.000000   0.000002  -0.000598   0.000512
    10  C    0.000000  -0.000000   0.000000  -0.000000  -0.000005  -0.000043
    11  C   -0.000000  -0.000000  -0.000000  -0.000000  -0.000000   0.000000
    12  O    0.000000   0.000000   0.000000   0.000000  -0.000000  -0.000000
    13  O    0.000000   0.000000   0.000000  -0.000000   0.000000   0.000000
    14  C   -0.000000   0.000000   0.000000   0.000000   0.000039   0.000197
    15  H    0.366228  -0.022103   0.002255  -0.000228   0.000003  -0.000000
    16  H    0.375325  -0.025024   0.001960   0.000086   0.000017   0.000000
    17  H    0.375327  -0.025023   0.001961   0.000086   0.000017   0.000000
    18  H   -0.037276   0.360244  -0.033453  -0.006039   0.000337   0.000006
    19  H   -0.037275   0.360245  -0.033452  -0.006036   0.000338   0.000006
    20  H    0.000250  -0.006145  -0.028965   0.345971  -0.030124   0.005297
    21  H    0.000250  -0.006152  -0.028961   0.346002  -0.030134   0.005310
    22  H    0.000020   0.000150   0.004702  -0.028610   0.346043  -0.028910
    23  H    0.000020   0.000149   0.004707  -0.028672   0.345862  -0.028951
    24  H    0.000000   0.000000   0.000005   0.000385  -0.005994  -0.031864
    25  H    0.000000   0.000000   0.000005   0.000379  -0.006118  -0.032244
    26  H    0.000000   0.000000   0.000000   0.000018   0.000167   0.002586
    27  H    0.000000   0.000000   0.000000   0.000018   0.000175   0.002594
    28  H    0.000000  -0.000000   0.000000  -0.000000   0.000000  -0.000000
    29  H    0.000000  -0.000000   0.000000  -0.000000   0.000000   0.000000
    30  H    0.000000   0.000000   0.000000  -0.000000  -0.000000  -0.000000
    31  H    0.000000  -0.000000   0.000000   0.000000   0.000003  -0.000000
    32  H    0.000000  -0.000000   0.000000   0.000000   0.000004   0.000001
               7          8          9         10         11         12
     1  C   -0.000000   0.000000   0.000000   0.000000  -0.000000   0.000000
     2  C   -0.000001  -0.000000   0.000000  -0.000000  -0.000000   0.000000
     3  O   -0.000034   0.000000   0.000000   0.000000  -0.000000   0.000000
     4  C    0.002709  -0.000259   0.000002  -0.000000  -0.000000   0.000000
     5  C   -0.076549   0.003711  -0.000598  -0.000005  -0.000000  -0.000000
     6  O    0.363786  -0.025199   0.000512  -0.000043   0.000000  -0.000000
     7  C    4.730533   0.411605  -0.043416   0.001914  -0.000071  -0.000000
     8  C    0.411605   5.232776   0.312133  -0.054800   0.002865   0.000047
     9  C   -0.043416   0.312133   4.523498   0.639919  -0.034523   0.000109
    10  C    0.001914  -0.054800   0.639919   4.930031   0.432033  -0.025263
    11  C   -0.000071   0.002865  -0.034523   0.432033   4.731159   0.300529
    12  O   -0.000000   0.000047   0.000109  -0.025263   0.300529   7.931308
    13  O    0.000000  -0.000000   0.000008   0.002971  -0.038619   0.108237
    14  C   -0.012892  -0.112753   0.381732   0.186259  -0.008205   0.002467
    15  H    0.000000  -0.000000   0.000000   0.000000   0.000000   0.000000
    16  H    0.000000   0.000000   0.000000   0.000000   0.000000   0.000000
    17  H    0.000000   0.000000   0.000000   0.000000   0.000000   0.000000
    18  H    0.000001   0.000000   0.000000   0.000000   0.000000   0.000000
    19  H    0.000001   0.000000   0.000000   0.000000   0.000000   0.000000
    20  H    0.000339   0.000026   0.000001   0.000000   0.000000   0.000000
    21  H    0.000337   0.000027   0.000001   0.000000   0.000000   0.000000
    22  H   -0.004935   0.000186   0.000101   0.000001  -0.000000   0.000000
    23  H   -0.004744   0.000192   0.000104   0.000001  -0.000000   0.000000
    24  H    0.354399  -0.041507   0.004190  -0.000209  -0.000004  -0.000000
    25  H    0.354774  -0.040226   0.002900  -0.000053  -0.000002  -0.000000
    26  H   -0.026944   0.337996  -0.008979  -0.004736  -0.000075  -0.000002
    27  H   -0.026164   0.337819  -0.007115  -0.004721  -0.000087  -0.000002
    28  H    0.000009  -0.000091   0.001515  -0.020460   0.344496  -0.036518
    29  H    0.000008  -0.000130   0.001754  -0.021978   0.349087  -0.038281
    30  H   -0.000000   0.000000  -0.000004  -0.000798   0.001178  -0.029770
    31  H    0.000546   0.000830  -0.026623  -0.033514  -0.000207  -0.000015
    32  H    0.001435   0.000550  -0.023499  -0.034365  -0.000209  -0.000021
              13         14         15         16         17         18
     1  C    0.000000  -0.000000   0.366228   0.375325   0.375327  -0.037276
     2  C    0.000000   0.000000  -0.022103  -0.025024  -0.025023   0.360244
     3  O    0.000000   0.000000   0.002255   0.001960   0.001961  -0.033453
     4  C   -0.000000   0.000000  -0.000228   0.000086   0.000086  -0.006039
     5  C    0.000000   0.000039   0.000003   0.000017   0.000017   0.000337
     6  O    0.000000   0.000197  -0.000000   0.000000   0.000000   0.000006
     7  C    0.000000  -0.012892   0.000000   0.000000   0.000000   0.000001
     8  C   -0.000000  -0.112753  -0.000000   0.000000   0.000000   0.000000
     9  C    0.000008   0.381732   0.000000   0.000000   0.000000   0.000000
    10  C    0.002971   0.186259   0.000000   0.000000   0.000000   0.000000
    11  C   -0.038619  -0.008205   0.000000   0.000000   0.000000   0.000000
    12  O    0.108237   0.002467   0.000000   0.000000   0.000000   0.000000
    13  O    7.959493  -0.000080   0.000000   0.000000   0.000000   0.000000
    14  C   -0.000080   5.144634   0.000000   0.000000   0.000000   0.000000
    15  H    0.000000   0.000000   0.596255  -0.028508  -0.028508   0.000250
    16  H    0.000000   0.000000  -0.028508   0.584664  -0.033736  -0.006517
    17  H    0.000000   0.000000  -0.028508  -0.033736   0.584660   0.006157
    18  H    0.000000   0.000000   0.000250  -0.006517   0.006157   0.676116
    19  H    0.000000   0.000000   0.000250   0.006157  -0.006518  -0.059318
    20  H    0.000000   0.000000   0.000012  -0.000049   0.000044   0.014439
    21  H    0.000000   0.000000   0.000012   0.000044  -0.000049  -0.003037
    22  H   -0.000000  -0.000001   0.000000  -0.000000   0.000003   0.000036
    23  H   -0.000000  -0.000002   0.000000   0.000003  -0.000000  -0.000041
    24  H    0.000000   0.005133  -0.000000   0.000000  -0.000000  -0.000000
    25  H    0.000000   0.006476  -0.000000  -0.000000   0.000000   0.000000
    26  H    0.000000   0.005087  -0.000000  -0.000000   0.000000  -0.000000
    27  H    0.000000   0.005596  -0.000000   0.000000  -0.000000   0.000000
    28  H    0.005867  -0.006715   0.000000   0.000000  -0.000000  -0.000000
    29  H    0.005854  -0.009280   0.000000  -0.000000   0.000000   0.000000
    30  H    0.291786   0.000000   0.000000   0.000000   0.000000   0.000000
    31  H    0.000001   0.375529  -0.000000  -0.000000   0.000000   0.000000
    32  H    0.000001   0.375100  -0.000000   0.000000  -0.000000  -0.000000
              19         20         21         22         23         24
     1  C   -0.037275   0.000250   0.000250   0.000020   0.000020   0.000000
     2  C    0.360245  -0.006145  -0.006152   0.000150   0.000149   0.000000
     3  O   -0.033452  -0.028965  -0.028961   0.004702   0.004707   0.000005
     4  C   -0.006036   0.345971   0.346002  -0.028610  -0.028672   0.000385
     5  C    0.000338  -0.030124  -0.030134   0.346043   0.345862  -0.005994
     6  O    0.000006   0.005297   0.005310  -0.028910  -0.028951  -0.031864
     7  C    0.000001   0.000339   0.000337  -0.004935  -0.004744   0.354399
     8  C    0.000000   0.000026   0.000027   0.000186   0.000192  -0.041507
     9  C    0.000000   0.000001   0.000001   0.000101   0.000104   0.004190
    10  C    0.000000   0.000000   0.000000   0.000001   0.000001  -0.000209
    11  C    0.000000   0.000000   0.000000  -0.000000  -0.000000  -0.000004
    12  O    0.000000   0.000000   0.000000   0.000000   0.000000  -0.000000
    13  O    0.000000   0.000000   0.000000  -0.000000  -0.000000   0.000000
    14  C    0.000000   0.000000   0.000000  -0.000001  -0.000002   0.005133
    15  H    0.000250   0.000012   0.000012   0.000000   0.000000  -0.000000
    16  H    0.006157  -0.000049   0.000044  -0.000000   0.000003   0.000000
    17  H   -0.006518   0.000044  -0.000049   0.000003  -0.000000  -0.000000
    18  H   -0.059318   0.014439  -0.003037   0.000036  -0.000041  -0.000000
    19  H    0.676097  -0.003037   0.014441  -0.000041   0.000036   0.000000
    20  H   -0.003037   0.666757  -0.059495   0.007355  -0.008733   0.000040
    21  H    0.014441  -0.059495   0.666675  -0.008734   0.007357  -0.000043
    22  H   -0.000041   0.007355  -0.008734   0.662835  -0.059599   0.015054
    23  H    0.000036  -0.008733   0.007357  -0.059599   0.663027  -0.003215
    24  H    0.000000   0.000040  -0.000043   0.015054  -0.003215   0.670037
    25  H   -0.000000  -0.000044   0.000040  -0.003218   0.015008  -0.059600
    26  H    0.000000   0.000002  -0.000000   0.000038  -0.000061   0.006460
    27  H   -0.000000  -0.000000   0.000002  -0.000060   0.000036  -0.006978
    28  H    0.000000   0.000000  -0.000000   0.000000  -0.000000  -0.000002
    29  H   -0.000000  -0.000000   0.000000  -0.000000   0.000000   0.000001
    30  H    0.000000   0.000000   0.000000   0.000000   0.000000  -0.000000
    31  H   -0.000000  -0.000000   0.000000  -0.000000   0.000001   0.000050
    32  H    0.000000   0.000000  -0.000000   0.000001  -0.000001   0.000588
              25         26         27         28         29         30
     1  C    0.000000   0.000000   0.000000   0.000000   0.000000   0.000000
     2  C    0.000000   0.000000   0.000000  -0.000000  -0.000000   0.000000
     3  O    0.000005   0.000000   0.000000   0.000000   0.000000   0.000000
     4  C    0.000379   0.000018   0.000018  -0.000000  -0.000000  -0.000000
     5  C   -0.006118   0.000167   0.000175   0.000000   0.000000  -0.000000
     6  O   -0.032244   0.002586   0.002594  -0.000000   0.000000  -0.000000
     7  C    0.354774  -0.026944  -0.026164   0.000009   0.000008  -0.000000
     8  C   -0.040226   0.337996   0.337819  -0.000091  -0.000130   0.000000
     9  C    0.002900  -0.008979  -0.007115   0.001515   0.001754  -0.000004
    10  C   -0.000053  -0.004736  -0.004721  -0.020460  -0.021978  -0.000798
    11  C   -0.000002  -0.000075  -0.000087   0.344496   0.349087   0.001178
    12  O   -0.000000  -0.000002  -0.000002  -0.036518  -0.038281  -0.029770
    13  O    0.000000   0.000000   0.000000   0.005867   0.005854   0.291786
    14  C    0.006476   0.005087   0.005596  -0.006715  -0.009280   0.000000
    15  H   -0.000000  -0.000000  -0.000000   0.000000   0.000000   0.000000
    16  H   -0.000000  -0.000000   0.000000   0.000000  -0.000000   0.000000
    17  H    0.000000   0.000000  -0.000000  -0.000000   0.000000   0.000000
    18  H    0.000000  -0.000000   0.000000  -0.000000   0.000000   0.000000
    19  H   -0.000000   0.000000  -0.000000   0.000000  -0.000000   0.000000
    20  H   -0.000044   0.000002  -0.000000   0.000000  -0.000000   0.000000
    21  H    0.000040  -0.000000   0.000002  -0.000000   0.000000   0.000000
    22  H   -0.003218   0.000038  -0.000060   0.000000  -0.000000   0.000000
    23  H    0.015008  -0.000061   0.000036  -0.000000   0.000000   0.000000
    24  H   -0.059600   0.006460  -0.006978  -0.000002   0.000001  -0.000000
    25  H    0.668425  -0.006987   0.006351   0.000001  -0.000001  -0.000000
    26  H   -0.006987   0.603954  -0.036846  -0.000011   0.000034  -0.000000
    27  H    0.006351  -0.036846   0.602093   0.000029  -0.000010  -0.000000
    28  H    0.000001  -0.000011   0.000029   0.630450  -0.051680   0.000167
    29  H   -0.000001   0.000034  -0.000010  -0.051680   0.631482   0.000153
    30  H   -0.000000  -0.000000  -0.000000   0.000167   0.000153   0.420675
    31  H    0.000770   0.000570  -0.000219  -0.000892   0.005400   0.000000
    32  H   -0.000089  -0.000243   0.000315   0.004653  -0.001062   0.000000
              31         32
     1  C    0.000000   0.000000
     2  C   -0.000000  -0.000000
     3  O    0.000000   0.000000
     4  C    0.000000   0.000000
     5  C    0.000003   0.000004
     6  O   -0.000000   0.000001
     7  C    0.000546   0.001435
     8  C    0.000830   0.000550
     9  C   -0.026623  -0.023499
    10  C   -0.033514  -0.034365
    11  C   -0.000207  -0.000209
    12  O   -0.000015  -0.000021
    13  O    0.000001   0.000001
    14  C    0.375529   0.375100
    15  H   -0.000000  -0.000000
    16  H   -0.000000   0.000000
    17  H    0.000000  -0.000000
    18  H    0.000000  -0.000000
    19  H   -0.000000   0.000000
    20  H   -0.000000   0.000000
    21  H    0.000000  -0.000000
    22  H   -0.000000   0.000001
    23  H    0.000001  -0.000001
    24  H    0.000050   0.000588
    25  H    0.000770  -0.000089
    26  H    0.000570  -0.000243
    27  H   -0.000219   0.000315
    28  H   -0.000892   0.004653
    29  H    0.005400  -0.001062
    30  H    0.000000   0.000000
    31  H    0.630542  -0.052701
    32  H   -0.052701   0.629255
 Mulliken charges:
               1
     1  C   -0.387222
     2  C   -0.018705
     3  O   -0.258727
     4  C   -0.066510
     5  C   -0.077822
     6  O   -0.261690
     7  C   -0.026647
     8  C   -0.365799
     9  C    0.276276
    10  C    0.007815
    11  C   -0.079346
    12  O   -0.212826
    13  O   -0.335519
    14  C   -0.338321
    15  H    0.114084
    16  H    0.125578
    17  H    0.125580
    18  H    0.088095
    19  H    0.088107
    20  H    0.096060
    21  H    0.096108
    22  H    0.097583
    23  H    0.097517
    24  H    0.093073
    25  H    0.093453
    26  H    0.127973
    27  H    0.127174
    28  H    0.129183
    29  H    0.128648
    30  H    0.316613
    31  H    0.099930
    32  H    0.100285
 Sum of Mulliken charges =  -0.00000
 Mulliken charges with hydrogens summed into heavy atoms:
               1
     1  C   -0.021981
     2  C    0.157496
     3  O   -0.258727
     4  C    0.125658
     5  C    0.117278
     6  O   -0.261690
     7  C    0.159880
     8  C   -0.110653
     9  C    0.276276
    10  C    0.007815
    11  C    0.178485
    12  O   -0.212826
    13  O   -0.018906
    14  C   -0.138106
 Electronic spatial extent (au):  <R**2>=           8412.7116
 Charge=             -0.0000 electrons
 Dipole moment (field-independent basis, Debye):
    X=              0.8912    Y=             -0.2116    Z=              0.0152  Tot=              0.9161
 Quadrupole moment (field-independent basis, Debye-Ang):
   XX=            -77.2813   YY=            -85.4965   ZZ=            -83.2128
   XY=             -0.3323   XZ=              0.0279   YZ=             -0.0026
 Traceless Quadrupole moment (field-independent basis, Debye-Ang):
   XX=              4.7156   YY=             -3.4997   ZZ=             -1.2160
   XY=             -0.3323   XZ=              0.0279   YZ=             -0.0026
 Octapole moment (field-independent basis, Debye-Ang**2):
  XXX=            -30.0049  YYY=             -6.5382  ZZZ=              0.1072  XYY=            -14.2956
  XXY=            -68.0141  XXZ=              1.4887  XZZ=             -5.9886  YZZ=              0.0809
  YYZ=             -0.1387  XYZ=              0.4024
 Hexadecapole moment (field-independent basis, Debye-Ang**3):
 XXXX=          -8699.5333 YYYY=           -330.3757 ZZZZ=           -133.6294 XXXY=            311.3308
 XXXZ=             -4.5506 YYYX=             36.1358 YYYZ=             -0.0105 ZZZX=             -0.3408
 ZZZY=             -0.2540 XXYY=          -1708.5493 XXZZ=          -1706.7376 YYZZ=            -70.8493
 XXYZ=             -1.0676 YYXZ=              0.1007 ZZXY=              2.4094
 N-N= 8.386310340782D+02 E-N=-3.294957198416D+03  KE= 6.880619788401D+02
 PrsmSu:  requested number of processors reduced to:  13 ShMem   1 Linda.
 Calling FoFJK, ICntrl=      2127 FMM=F ISym2X=0 I1Cent= 0 IOpClX= 0 NMat=1 NMatS=1 NMatT=0.
 ***** Axes restored to original set *****
 -------------------------------------------------------------------
 Center     Atomic                   Forces (Hartrees/Bohr)
 Number     Number              X              Y              Z
 -------------------------------------------------------------------
      1        6          -0.004813073   -0.003653959    0.000245093
      2        6          -0.004783035   -0.010579962    0.000708982
      3        8           0.009379625    0.004893073   -0.000330386
      4        6          -0.009222650    0.000296132   -0.000018827
      5        6           0.006445577    0.001948272   -0.000170306
      6        8          -0.008744545   -0.005507900    0.000166125
      7        6          -0.001541805    0.015426348   -0.000789835
      8        6          -0.001058385    0.023793971   -0.001855698
      9        6           0.049311843    0.047637255   -0.008258965
     10        6          -0.032285209   -0.033603771    0.005681767
     11        6           0.020137066    0.014708899   -0.000966208
     12        8           0.001876815    0.003123868   -0.000955894
     13        8           0.004387569    0.008170772   -0.000646838
     14        6          -0.008108908   -0.033354085    0.002996724
     15        1          -0.001271932    0.000331524   -0.000022576
     16        1           0.000206304    0.001612671    0.000467724
     17        1           0.000207360    0.001536393   -0.000678271
     18        1           0.003087551    0.004330471    0.001098927
     19        1           0.003090105    0.004140111   -0.001661241
     20        1           0.001890812    0.001937174    0.001722417
     21        1           0.001885580    0.001689295   -0.001965665
     22        1          -0.002456864   -0.001095577   -0.001659339
     23        1          -0.002377581   -0.000873008    0.001790519
     24        1          -0.000873639   -0.003442983    0.000139604
     25        1          -0.000604196   -0.003542831   -0.000020112
     26        1          -0.001005741    0.003840896   -0.000206640
     27        1          -0.000668240    0.002943896    0.000000846
     28        1          -0.004575274   -0.007452510    0.000654233
     29        1          -0.003847428   -0.006755815    0.000088891
     30        1          -0.005132509   -0.004111111    0.000296425
     31        1          -0.004407884   -0.014259105    0.004366603
     32        1          -0.004127309   -0.014128408   -0.000218080
 -------------------------------------------------------------------
 Cartesian Forces:  Max     0.049311843 RMS     0.010710613

 GradGradGradGradGradGradGradGradGradGradGradGradGradGradGradGradGradGrad
 Berny optimization.
 FormGI is forming the generalized inverse of G from B-inverse, IUseBI=4.
 Internal  Forces:  Max     0.075054927 RMS     0.009288751
 Search for a local minimum.
 Step number   1 out of a maximum of  157
 All quantities printed in internal units (Hartrees-Bohrs-Radians)
 Mixed Optimization -- RFO/linear search
 Second derivative matrix not updated -- first step.
 ITU=  0
     Eigenvalues ---    0.00413   0.00617   0.00625   0.00665   0.01190
     Eigenvalues ---    0.01282   0.01400   0.01406   0.01412   0.01508
     Eigenvalues ---    0.01569   0.01578   0.02321   0.03966   0.04648
     Eigenvalues ---    0.04947   0.05354   0.05382   0.05437   0.05467
     Eigenvalues ---    0.05757   0.05762   0.05815   0.05974   0.05991
     Eigenvalues ---    0.06010   0.06118   0.06513   0.07659   0.09060
     Eigenvalues ---    0.11185   0.11194   0.11253   0.11356   0.11688
     Eigenvalues ---    0.12494   0.12772   0.13647   0.13677   0.13711
     Eigenvalues ---    0.13743   0.14007   0.14057   0.16000   0.16000
     Eigenvalues ---    0.16000   0.16000   0.19724   0.21851   0.21971
     Eigenvalues ---    0.22002   0.22023   0.22046   0.22302   0.24978
     Eigenvalues ---    0.25000   0.25000   0.25000   0.25000   0.31226
     Eigenvalues ---    0.31283   0.31593   0.33836   0.33862   0.34020
     Eigenvalues ---    0.34027   0.34060   0.34061   0.34210   0.34220
     Eigenvalues ---    0.34221   0.34230   0.34267   0.34268   0.34513
     Eigenvalues ---    0.34663   0.34698   0.35908   0.35973   0.35987
     Eigenvalues ---    0.36145   0.39780   0.40849   0.42152   0.42220
     Eigenvalues ---    0.42283   0.43399   0.48041   0.52858   0.62752
 RFO step:  Lambda=-3.60738925D-02 EMin= 4.13291098D-03
 Linear search not attempted -- first point.
 Maximum step size (   0.300) exceeded in Quadratic search.
    -- Step size scaled by   0.939
 Iteration  1 RMS(Cart)=  0.21469467 RMS(Int)=  0.00787905
 Iteration  2 RMS(Cart)=  0.03034985 RMS(Int)=  0.00115149
 Iteration  3 RMS(Cart)=  0.00040496 RMS(Int)=  0.00113936
 Iteration  4 RMS(Cart)=  0.00000061 RMS(Int)=  0.00113936
 Variable       Old X    -DE/DX   Delta X   Delta X   Delta X     New X
                                 (Linear)    (Quad)   (Total)
    R1        2.85476   0.00567   0.00000   0.01528   0.01528   2.87004
    R2        2.06473   0.00077   0.00000   0.00189   0.00189   2.06663
    R3        2.06881  -0.00037   0.00000  -0.00093  -0.00093   2.06789
    R4        2.06881  -0.00037   0.00000  -0.00093  -0.00093   2.06788
    R5        2.68644  -0.00073   0.00000  -0.00149  -0.00149   2.68495
    R6        2.06959   0.00417   0.00000   0.01035   0.01035   2.07993
    R7        2.06960   0.00416   0.00000   0.01033   0.01033   2.07993
    R8        2.68730  -0.00508   0.00000  -0.01043  -0.01043   2.67686
    R9        2.84894   0.00632   0.00000   0.01685   0.01685   2.86580
   R10        2.07229   0.00302   0.00000   0.00752   0.00752   2.07981
   R11        2.07228   0.00302   0.00000   0.00752   0.00752   2.07980
   R12        2.68564  -0.00134   0.00000  -0.00273  -0.00273   2.68291
   R13        2.07285   0.00270   0.00000   0.00675   0.00675   2.07960
   R14        2.07296   0.00268   0.00000   0.00669   0.00669   2.07965
   R15        2.67180   0.00345   0.00000   0.00689   0.00689   2.67869
   R16        2.85583   0.01046   0.00000   0.02821   0.02821   2.88405
   R17        2.07563   0.00200   0.00000   0.00503   0.00503   2.08065
   R18        2.07607   0.00166   0.00000   0.00418   0.00418   2.08025
   R19        2.71854   0.04226   0.00000   0.09150   0.09150   2.81004
   R20        2.06978   0.00153   0.00000   0.00381   0.00381   2.07359
   R21        2.06943   0.00102   0.00000   0.00254   0.00254   2.07197
   R22        2.45805   0.00130   0.00000   0.00397   0.00490   2.46295
   R23        2.58741   0.07505   0.00000   0.13476   0.13470   2.72211
   R24        2.77402   0.00027   0.00000   0.00063   0.00063   2.77465
   R25        3.17302  -0.01056   0.00000  -0.06095  -0.06163   3.11139
   R26        2.70415   0.00238   0.00000   0.00504   0.00504   2.70919
   R27        2.06168   0.00470   0.00000   0.01152   0.01152   2.07320
   R28        2.06225   0.00394   0.00000   0.00967   0.00967   2.07192
   R29        2.77155  -0.00403   0.00000  -0.00952  -0.00952   2.76203
   R30        1.83786  -0.00610   0.00000  -0.01015  -0.01015   1.82771
   R31        2.04123   0.00836   0.00000   0.01984   0.01984   2.06107
   R32        2.04225   0.00764   0.00000   0.01816   0.01816   2.06042
    A1        1.92456   0.00120   0.00000   0.00395   0.00396   1.92852
    A2        1.93060  -0.00019   0.00000   0.00000  -0.00000   1.93060
    A3        1.93061  -0.00019   0.00000  -0.00001  -0.00001   1.93060
    A4        1.90394  -0.00095   0.00000  -0.00628  -0.00628   1.89766
    A5        1.90395  -0.00095   0.00000  -0.00628  -0.00628   1.89766
    A6        1.86907   0.00104   0.00000   0.00850   0.00849   1.87756
    A7        1.89631  -0.00087   0.00000   0.00003   0.00000   1.89632
    A8        1.92059   0.00134   0.00000   0.00671   0.00670   1.92730
    A9        1.92058   0.00135   0.00000   0.00672   0.00671   1.92730
   A10        1.90888   0.00047   0.00000   0.00405   0.00403   1.91290
   A11        1.90892   0.00046   0.00000   0.00400   0.00398   1.91291
   A12        1.90843  -0.00273   0.00000  -0.02131  -0.02130   1.88714
   A13        1.91877   0.01338   0.00000   0.04393   0.04393   1.96270
   A14        1.90171  -0.00426   0.00000  -0.01536  -0.01535   1.88636
   A15        1.92722   0.00169   0.00000   0.00717   0.00716   1.93439
   A16        1.92726   0.00169   0.00000   0.00718   0.00717   1.93444
   A17        1.91202   0.00099   0.00000   0.00292   0.00293   1.91495
   A18        1.91188   0.00099   0.00000   0.00294   0.00296   1.91484
   A19        1.88366  -0.00103   0.00000  -0.00462  -0.00464   1.87902
   A20        1.88388  -0.00137   0.00000  -0.00415  -0.00414   1.87975
   A21        1.92689  -0.00057   0.00000  -0.00491  -0.00491   1.92198
   A22        1.92692  -0.00053   0.00000  -0.00482  -0.00482   1.92209
   A23        1.92121   0.00144   0.00000   0.00900   0.00899   1.93020
   A24        1.92187   0.00136   0.00000   0.00840   0.00839   1.93026
   A25        1.88340  -0.00030   0.00000  -0.00335  -0.00341   1.87999
   A26        1.89902   0.02072   0.00000   0.06803   0.06803   1.96705
   A27        1.90599  -0.00131   0.00000  -0.00196  -0.00196   1.90403
   A28        1.91027   0.00137   0.00000   0.00949   0.00949   1.91977
   A29        1.90754   0.00170   0.00000   0.01199   0.01199   1.91953
   A30        1.92250   0.00010   0.00000  -0.00169  -0.00171   1.92079
   A31        1.92282  -0.00009   0.00000  -0.00222  -0.00224   1.92059
   A32        1.89459  -0.00174   0.00000  -0.01542  -0.01547   1.87912
   A33        1.88224   0.01550   0.00000   0.06284   0.06278   1.94502
   A34        1.92708  -0.00563   0.00000  -0.02434  -0.02509   1.90199
   A35        1.93074  -0.00557   0.00000  -0.02514  -0.02566   1.90508
   A36        1.91974  -0.00252   0.00000   0.00290   0.00309   1.92283
   A37        1.93448  -0.00345   0.00000  -0.00449  -0.00419   1.93029
   A38        1.87006   0.00129   0.00000  -0.01309  -0.01378   1.85628
   A39        2.52010   0.00561   0.00000   0.00645   0.00562   2.52572
   A40        2.40318   0.02520   0.00000   0.07091   0.07010   2.47328
   A41        2.76696   0.04492   0.00000   0.12786   0.12811   2.89507
   A42        1.84416   0.01093   0.00000   0.05556   0.05528   1.89944
   A43        1.95702  -0.01226   0.00000  -0.03992  -0.03967   1.91735
   A44        1.89768   0.00373   0.00000   0.01353   0.01372   1.91140
   A45        1.90369   0.00393   0.00000   0.01565   0.01588   1.91956
   A46        1.87115   0.00501   0.00000   0.02280   0.02291   1.89406
   A47        1.86925   0.00545   0.00000   0.02642   0.02657   1.89582
   A48        1.96589  -0.00637   0.00000  -0.04037  -0.04046   1.92542
   A49        1.81002  -0.00188   0.00000  -0.00617  -0.00617   1.80384
   A50        1.69479   0.00455   0.00000   0.02178   0.02178   1.71657
   A51        2.01997   0.00835   0.00000   0.06950   0.06706   2.08703
   A52        2.02724   0.00831   0.00000   0.06835   0.06421   2.09144
   A53        2.04691   0.00189   0.00000  -0.01311  -0.01655   2.03036
   A54        2.05332   0.00136   0.00000  -0.01701  -0.02026   2.03306
   A55        2.10574  -0.00951   0.00000  -0.05076  -0.06028   2.04546
    D1        3.14154   0.00000   0.00000   0.00002   0.00002   3.14156
    D2        1.05204  -0.00083   0.00000  -0.00894  -0.00895   1.04309
    D3       -1.05210   0.00083   0.00000   0.00893   0.00894  -1.04316
    D4        1.03395   0.00053   0.00000   0.00529   0.00529   1.03924
    D5       -1.05555  -0.00031   0.00000  -0.00367  -0.00368  -1.05923
    D6        3.12350   0.00136   0.00000   0.01420   0.01421   3.13771
    D7       -1.03405  -0.00053   0.00000  -0.00526  -0.00526  -1.03931
    D8       -3.12355  -0.00136   0.00000  -0.01422  -0.01423  -3.13778
    D9        1.05550   0.00030   0.00000   0.00365   0.00366   1.05916
   D10        3.14148  -0.00000   0.00000  -0.00002  -0.00002   3.14146
   D11       -1.04491   0.00138   0.00000   0.01055   0.01056  -1.03435
   D12        1.04468  -0.00139   0.00000  -0.01059  -0.01059   1.03409
   D13       -3.14136  -0.00000   0.00000  -0.00006  -0.00006  -3.14141
   D14        1.04109   0.00043   0.00000   0.00165   0.00168   1.04278
   D15       -1.04076  -0.00044   0.00000  -0.00173  -0.00176  -1.04253
   D16        3.14078   0.00003   0.00000   0.00028   0.00028   3.14106
   D17        1.04015  -0.00054   0.00000  -0.00522  -0.00522   1.03493
   D18       -1.04095   0.00053   0.00000   0.00510   0.00509  -1.03586
   D19       -1.03233   0.00006   0.00000   0.00133   0.00134  -1.03100
   D20       -3.13296  -0.00051   0.00000  -0.00417  -0.00416  -3.13712
   D21        1.06912   0.00056   0.00000   0.00616   0.00615   1.07527
   D22        1.03074  -0.00001   0.00000  -0.00080  -0.00080   1.02993
   D23       -1.06990  -0.00058   0.00000  -0.00631  -0.00630  -1.07620
   D24        3.13219   0.00049   0.00000   0.00402   0.00401   3.13620
   D25       -3.14081  -0.00001   0.00000  -0.00022  -0.00022  -3.14103
   D26       -1.03662  -0.00069   0.00000  -0.00342  -0.00346  -1.04008
   D27        1.03776   0.00067   0.00000   0.00323   0.00327   1.04103
   D28        3.14077   0.00002   0.00000  -0.00013  -0.00013   3.14064
   D29        1.03491  -0.00014   0.00000  -0.00268  -0.00267   1.03224
   D30       -1.03783   0.00015   0.00000   0.00329   0.00328  -1.03455
   D31        3.13289   0.00042   0.00000   0.00407   0.00407   3.13696
   D32        1.03497  -0.00277   0.00000  -0.02396  -0.02361   1.01136
   D33       -1.03213   0.00267   0.00000   0.02335   0.02300  -1.00913
   D34       -1.05192   0.00135   0.00000   0.01349   0.01347  -1.03846
   D35        3.13333  -0.00184   0.00000  -0.01455  -0.01421   3.11913
   D36        1.06624   0.00360   0.00000   0.03276   0.03240   1.09864
   D37        1.03768  -0.00080   0.00000  -0.00808  -0.00808   1.02961
   D38       -1.06024  -0.00399   0.00000  -0.03612  -0.03575  -1.09599
   D39       -3.12734   0.00145   0.00000   0.01119   0.01086  -3.11648
   D40        3.10710  -0.00036   0.00000  -0.00747  -0.00738   3.09972
   D41       -0.08353  -0.00012   0.00000  -0.00171  -0.00199  -0.08552
   D42       -1.07353   0.00079   0.00000   0.00307   0.00355  -1.06998
   D43        2.01901   0.00103   0.00000   0.00884   0.00895   2.02796
   D44        0.99128  -0.00134   0.00000  -0.01406  -0.01408   0.97719
   D45       -2.19936  -0.00109   0.00000  -0.00830  -0.00869  -2.20805
   D46        3.11143  -0.00033   0.00000  -0.01043  -0.01031   3.10112
   D47       -1.28249  -0.00488   0.00000  -0.07264  -0.07572  -1.35821
   D48        1.33778   0.00519   0.00000   0.07037   0.07265   1.41042
   D49       -3.07668  -0.00030   0.00000  -0.00619  -0.00596  -3.08264
   D50        1.14061  -0.00150   0.00000  -0.01898  -0.01873   1.12188
   D51       -1.00926   0.00150   0.00000   0.01229   0.01246  -0.99679
   D52       -3.07371  -0.00122   0.00000  -0.01961  -0.01982  -3.09353
   D53        1.14359  -0.00242   0.00000  -0.03240  -0.03259   1.11100
   D54       -1.00628   0.00058   0.00000  -0.00114  -0.00140  -1.00768
   D55        1.37030  -0.00944   0.00000  -0.11348  -0.10858   1.26171
   D56       -1.36259   0.00856   0.00000   0.10162   0.09846  -1.26413
   D57       -3.13428   0.00023   0.00000   0.00283   0.00281  -3.13147
   D58       -1.05275   0.00088   0.00000   0.01074   0.01054  -1.04221
   D59        1.06121  -0.00092   0.00000  -0.01001  -0.00980   1.05141
   D60        3.13886   0.00001   0.00000   0.00024   0.00024   3.13910
         Item               Value     Threshold  Converged?
 Maximum Force            0.075055     0.000450     NO 
 RMS     Force            0.009289     0.000300     NO 
 Maximum Displacement     1.057040     0.001800     NO 
 RMS     Displacement     0.237964     0.001200     NO 
 Predicted change in Energy=-2.025690D-02
 GradGradGradGradGradGradGradGradGradGradGradGradGradGradGradGradGradGrad

                          Input orientation:                          
 ---------------------------------------------------------------------
 Center     Atomic      Atomic             Coordinates (Angstroms)
 Number     Number       Type             X           Y           Z
 ---------------------------------------------------------------------
      1          6           0        1.023618    0.262411    0.061768
      2          6           0        2.542074    0.233095    0.069275
      3          8           0        2.969983   -1.118466    0.163545
      4          6           0        4.381277   -1.239490    0.176785
      5          6           0        4.726394   -2.712681    0.278856
      6          8           0        6.141651   -2.824686    0.290769
      7          6           0        6.583368   -4.168413    0.383511
      8          6           0        8.109333   -4.193068    0.388436
      9          6           0        8.630206   -5.582094    0.490865
     10          6           0        9.707509   -6.315252    0.514973
     11          6           0       10.683937   -7.409304    0.589075
     12          8           0       12.014569   -6.879617    0.524432
     13          8           0       12.856444   -8.072362    0.594331
     14          6           0        8.193076   -6.943455    0.665760
     15          1           0        0.660848    1.291594   -0.010113
     16          1           0        0.625047   -0.187559    0.976160
     17          1           0        0.631429   -0.308349   -0.785499
     18          1           0        2.933079    0.804715    0.924729
     19          1           0        2.939518    0.682734   -0.853383
     20          1           0        4.812640   -0.696944    1.031694
     21          1           0        4.818904   -0.818427   -0.741076
     22          1           0        4.301911   -3.261029   -0.575648
     23          1           0        4.296526   -3.139565    1.197599
     24          1           0        6.199120   -4.750663   -0.468320
     25          1           0        6.195646   -4.629079    1.305066
     26          1           0        8.473230   -3.589544    1.229502
     27          1           0        8.479891   -3.708351   -0.522561
     28          1           0       10.537811   -8.089045   -0.259577
     29          1           0       10.568392   -7.951198    1.535182
[...]
 3491,0.00006171,-0.00001092,-0.02283168,-0.01989669,0.01461814,-0.1540
 1944,-0.10135993,0.07894319,0.00872025,0.00837042,-0.00662203,0.000577
 03,-0.00138114,-0.00013713,-0.00011348,0.00005132,-0.00010467,0.000014
 28,-0.00008550,-0.00002815,-0.00006836,-0.00008536,0.00003287,0.000413
 67,0.00235250,0.00016715,-0.00000051,0.00000153,0.00000006,0.00000440,
 0.00000044,-0.00000119,-0.00000068,-0.00000125,0.00000009,0.00000015,0
 .00000034,-0.00000134,0.00000491,0.00000635,-0.00000495,-0.00000147,0.
 00000550,0.00000031,-0.00000102,0.00009520,-0.00001762,0.00001222,-0.0
 0002047,0.00002773,0.00038539,0.00006483,-0.00004330,0.00173197,0.0001
 9966,-0.00000189,-0.00469135,0.00139387,-0.00303312,-0.00138219,-0.000
 88867,0.00058553,0.16878464,-0.00000030,-0.00000061,0.00000100,-0.0000
 0736,0.00001097,0.00000188,-0.00000166,-0.00000352,0.00000165,-0.00003
 372,0.00000430,-0.00000974,0.00016867,0.00016265,-0.00004677,-0.000054
 68,0.00102351,-0.00001155,0.00166733,0.00132051,-0.00165707,-0.1014389
 8,-0.14158220,0.07338818,-0.02009616,-0.02487410,0.01595087,0.00108898
 ,0.00179546,-0.00094133,-0.00016754,-0.00045599,0.00004936,0.00000391,
 0.00009366,0.00000575,0.00010064,0.00035857,-0.00013771,0.00051124,-0.
 00081105,-0.00026441,0.00000065,-0.00000093,-0.00000004,0.00000037,0.0
 0000067,-0.00000042,-0.00000047,0.00000032,-0.00000022,0.00000040,-0.0
 0000103,-0.00000158,0.00000108,-0.00000117,0.00000049,0.00000228,-0.00
 000100,-0.00000089,0.00000117,-0.00001433,0.00000625,-0.00002268,-0.00
 000565,-0.00002240,0.00001524,-0.00015220,0.00004660,-0.00027044,0.000
 01328,-0.00023977,0.00095045,0.00021749,0.00008371,0.00613036,0.006130
 05,-0.00412023,0.11047917,0.15745882,0.00000022,0.00000112,0.00000210,
 0.00001300,-0.00001691,-0.00000054,-0.00003270,-0.00001072,-0.00001488
 ,0.00011960,0.00004854,-0.00001547,-0.00004467,-0.00024713,0.00005549,
 0.00127373,-0.00047134,0.00007393,-0.01118632,-0.00955657,0.00672294,0
 .07994318,0.07509020,-0.10771691,-0.00182084,-0.00123870,0.00054377,-0
 .00072828,0.00058592,0.00037877,-0.00003048,0.00002870,-0.00033460,-0.
 00004865,0.00001941,-0.00004289,-0.00005113,-0.00005596,-0.00002828,0.
 00029592,-0.00114168,0.00141164,-0.00000105,0.00000128,-0.00000051,-0.
 00000134,-0.00000121,-0.00000061,-0.00000103,-0.00000073,-0.00000155,0
 .00000095,0.00000293,-0.00000099,-0.00000093,0.00000160,0.00000364,0.0
 0000693,0.00000033,-0.00000842,-0.00001141,0.00001519,0.00002800,-0.00
 002708,-0.00001117,-0.00002972,0.00004466,0.00005354,-0.00007884,0.000
 65552,-0.00062519,0.00105347,-0.00331278,0.00058147,-0.00013263,0.0193
 2891,0.01875944,-0.01389316,-0.08428293,-0.08168655,0.11205062,-0.0000
 0048,0.00000833,0.00000268,0.00001069,-0.00005619,-0.00000722,-0.00005
 811,0.00008649,-0.00000846,0.00000439,-0.00006056,-0.00000913,0.000168
 34,0.00004516,0.00011323,-0.00040561,0.00019532,-0.00018353,0.00036944
 ,0.00032979,0.00025025,-0.00093393,-0.00063597,-0.00029785,-0.00086795
 ,-0.00035799,-0.00036994,0.00145067,0.02213343,0.02525526,-0.05108447,
 -0.01689791,-0.02645991,-0.00574259,-0.01976869,-0.00406570,0.00242681
 ,-0.00015879,-0.00208364,-0.00001884,-0.00049203,-0.00188615,-0.000004
 74,0.00000356,-0.00000130,0.00000029,-0.00000178,-0.00000039,-0.000000
 15,-0.00000188,-0.00000125,-0.00000092,0.00000600,0.00000322,0.0000019
 1,0.00000812,-0.00000070,-0.00000224,0.00000196,-0.00000062,-0.0000007
 5,0.00000639,-0.00000246,-0.00001509,-0.00000161,-0.00002334,-0.000020
 83,-0.00000512,-0.00000444,-0.00002254,-0.00000777,-0.00006495,0.00001
 230,-0.00001204,0.00000983,0.00005931,0.00003303,0.00000322,0.00002214
 ,0.00008770,0.00003104,0.05675044,-0.00000039,0.00000089,-0.00000055,0
 .00000083,-0.00001163,-0.00000204,-0.00000219,0.00001507,0.00000285,-0
 .00000363,-0.00001170,-0.00000048,0.00000768,-0.00000318,-0.00000279,-
 0.00003889,0.00005953,0.00002164,0.00000253,0.00005157,-0.00010126,-0.
 00017529,-0.00020885,-0.00028635,-0.00093327,0.00138275,0.00044015,0.0
 0448814,-0.00585976,-0.00791757,-0.02308199,-0.13409252,-0.11242404,-0
 .01381838,-0.03654751,-0.01570680,0.00221254,0.00235993,0.00045532,0.0
 0115688,0.00051157,0.00013445,-0.00000081,0.00000118,0.00000010,0.0000
 0071,-0.00000019,-0.00000038,0.00000016,-0.00000070,0.00000072,-0.0000
 0023,0.00000101,0.00000197,0.00000114,0.00000185,-0.00000109,-0.000001
 53,0.00000231,0.00000228,0.00000063,0.00000313,-0.00000250,-0.00000100
 ,-0.00000143,0.00000439,-0.00000074,0.00000130,-0.00000066,0.00001361,
 -0.00000555,0.00003407,0.00001346,0.00000440,0.00001081,-0.00000798,-0
 .00000683,0.00002391,-0.00003529,0.00004350,-0.00004292,0.02648907,0.1
 6277660,0.00000039,-0.00000739,-0.00000232,-0.00001445,0.00005372,0.00
 000567,0.00006021,-0.00007661,0.00001084,-0.00001991,0.00004899,-0.000
 00028,-0.00014991,-0.00001788,-0.00009178,0.00029829,-0.00015506,0.000
 11880,-0.00031258,-0.00012387,-0.00016684,0.00055560,0.00028820,0.0001
 6660,-0.00131100,0.00106341,0.00036446,0.00265142,-0.00936765,-0.00983
 553,-0.03009589,-0.11958269,-0.19940552,0.00557338,0.01227511,0.014239
 05,-0.00187025,0.00058894,0.00147436,0.00057395,0.00038201,0.00120366,
 0.00000435,-0.00000362,0.00000105,0.00000010,0.00000203,0.00000017,0.0
 0000003,0.00000194,0.00000155,0.00000091,-0.00000577,-0.00000227,-0.00
 000096,-0.00000719,0.00000006,0.00000200,-0.00000142,0.00000228,0.0000
 0213,-0.00000345,0.00000108,0.00001212,0.00000154,0.00001905,0.0000191
 7,0.00000472,0.00000251,0.00000455,0.00000680,0.00003652,0.00000904,0.
 00000588,-0.00000535,-0.00004416,-0.00003910,-0.00000392,-0.00001463,-
 0.00003181,-0.00002743,0.02815374,0.12693587,0.21006759,-0.00000094,0.
 00001047,0.00000250,0.00002362,-0.00008699,-0.00001207,-0.00008746,0.0
 0011666,-0.00001148,0.00004059,-0.00007255,0.00000432,0.00021662,-0.00
 002595,0.00010279,-0.00034481,0.00026030,-0.00008205,0.00045738,-0.000
 15919,0.00002580,-0.00021609,-0.00025470,0.00122438,0.00093757,-0.0013
 7252,-0.00048925,-0.02244697,0.01571868,-0.01581967,-0.14114479,0.0637
 0989,-0.10263423,0.00853100,-0.01243613,0.01522149,0.00411311,-0.00012
 335,-0.00073376,0.00159975,-0.00005022,0.00176380,-0.00000667,0.000006
 44,-0.00000141,0.00000032,-0.00000328,-0.00000079,0.00000021,-0.000003
 32,-0.00000094,-0.00000150,0.00000924,0.00000620,0.00000204,0.00001146
 ,-0.00000069,-0.00000464,0.00000429,-0.00000042,-0.00000354,0.00000611
 ,-0.00000263,-0.00002183,-0.00000148,-0.00002147,-0.00002948,-0.000005
 31,-0.00000468,-0.00000907,-0.00000063,-0.00000327,-0.00003190,0.00001
 706,0.00000699,-0.00021879,0.00052834,-0.00007262,-0.00004274,0.000022
 30,-0.00011016,-0.00187505,0.00289765,-0.00420802,0.15109866,-0.000000
 22,0.00000084,0.00000039,-0.00000096,-0.00000752,0.00000261,-0.0000027
 1,0.00001027,-0.00000404,-0.00000300,-0.00000833,0.00000576,0.00001401
 ,-0.00000177,0.00001278,-0.00001629,0.00003606,-0.00001513,-0.00001624
 ,-0.00003602,-0.00000872,0.00018636,-0.00015280,0.00037080,-0.00085371
 ,0.00127287,0.00000275,0.00984901,-0.00475161,0.00306279,0.05680594,-0
 .08559375,0.06379336,0.01134232,-0.02942538,0.02767958,0.00019329,0.00
 203657,-0.00331676,0.00033777,0.00026304,-0.00103583,-0.00000057,0.000
 00048,0.00000005,0.00000069,0.00000013,-0.00000024,-0.00000031,-0.0000
 0050,-0.00000046,0.00000008,0.00000057,-0.00000070,0.00000131,0.000001
 84,-0.00000081,0.00000072,0.00000009,-0.00000219,0.00000116,0.00000386
 ,-0.00000147,-0.00000337,-0.00000180,-0.00000366,0.00000132,0.00000108
 ,-0.00000287,-0.00001143,-0.00000807,-0.00000392,0.00002417,-0.0000015
 6,-0.00000365,0.00001098,0.00010788,0.00000054,0.00000909,0.00006098,0
 .00003412,-0.01046327,0.00910890,-0.01285274,-0.06734217,0.10696758,-0
 .00000003,-0.00000076,-0.00000093,0.00000307,0.00000102,-0.00000310,-0
 .00000017,-0.00000425,0.00000492,0.00000574,0.00000697,-0.00000371,-0.
 00002142,0.00000238,-0.00002683,0.00004576,-0.00002332,0.00003096,-0.0
 0011626,0.00002544,-0.00005105,0.00001632,0.00020788,-0.00064850,0.000
 96880,-0.00068335,-0.00097049,0.01048365,-0.00798356,0.01229492,-0.098
 50778,0.06249001,-0.15354734,0.00112779,0.01690633,-0.00634685,-0.0004
 1793,-0.00192334,0.00164095,-0.00103864,-0.00000949,0.00009535,0.00000
 025,0.00000043,0.00000016,-0.00000039,-0.00000043,0.00000003,0.0000004
 4,-0.00000004,0.00000080,-0.00000016,0.00000002,0.00000145,-0.00000101
 ,-0.00000109,0.00000048,-0.00000130,0.00000127,0.00000293,-0.00000128,
 -0.00000308,0.00000082,0.00000461,0.00000071,0.00000943,0.00000240,-0.
 00000067,0.00000288,0.00000728,0.00000581,0.00001600,0.00000492,-0.000
 00381,0.00000583,0.00008304,-0.00029442,0.00000901,0.00000744,-0.00004
 886,0.00002420,-0.01851811,0.00855191,-0.01733018,0.10615269,-0.078216
 62,0.16583450,0.00000081,-0.00000544,-0.00000129,-0.00001751,0.0000547
 6,0.00000693,0.00005802,-0.00006915,0.00000805,-0.00003490,0.00003637,
 -0.00000499,-0.00011112,0.00001536,-0.00004796,0.00016361,-0.00012040,
 0.00003722,-0.00012636,0.00007048,-0.00003465,0.00005208,0.00003767,0.
 00003941,-0.00014806,0.00010275,-0.00003726,-0.00013679,-0.00087462,0.
 00047441,-0.00459043,0.00083719,0.00004536,-0.03486243,-0.00752886,-0.
 00972962,-0.23500418,-0.09859655,-0.18196901,0.00009119,-0.00001300,0.
 00020953,0.00000410,-0.00000456,0.00000056,-0.00000020,0.00000216,0.00
 000061,-0.00000022,0.00000237,0.00000065,0.00000104,-0.00000568,-0.000
 00371,-0.00000114,-0.00000677,0.00000023,0.00000333,-0.00000211,0.0000
 0045,0.00000315,-0.00000086,0.00000059,0.00000881,0.00000021,0.0000089
 0,0.00001463,0.00000307,0.00000143,0.00000322,-0.00000735,0.00000185,0
 .00002106,-0.00000605,0.00000015,0.00000979,-0.00001841,-0.00000944,-0
 .00002920,0.00004933,-0.00000540,0.00017017,0.00063088,-0.00012139,0.0
 0004549,-0.00041884,-0.00002819,0.27438668,0.00000068,-0.00000193,-0.0
 0000071,0.00000797,0.00001746,-0.00000320,-0.00000546,-0.00002734,0.00
 000197,0.00002034,0.00002845,-0.00000339,-0.00003295,0.00000613,-0.000
 03367,0.00007643,-0.00010524,0.00003413,-0.00008995,0.00003475,-0.0000
 2997,0.00004153,0.00010446,-0.00007596,-0.00005358,0.00004364,0.000041
 48,0.00026452,0.00015930,0.00057528,-0.00248563,-0.00180343,-0.0009316
 9,0.02252934,0.00220698,0.00414517,-0.12601942,-0.06947645,-0.12737801
 ,-0.00012199,-0.00006524,-0.00008023,0.00000129,-0.00000057,-0.0000000
 4,-0.00000236,-0.00000094,0.00000093,0.00000059,0.00000088,-0.00000005
 ,-0.00000014,-0.00000105,-0.00000003,-0.00000431,-0.00000472,0.0000029
 9,-0.00000010,-0.00000147,0.00000060,-0.00000423,-0.00001080,0.0000059
 6,0.00000625,0.00000239,0.00000635,-0.00000006,-0.00000417,0.00000640,
 0.00000254,0.00000314,0.00000081,-0.00002330,-0.00000607,0.00000368,0.
 00002706,-0.00005823,-0.00000681,0.00001785,-0.00003514,0.00004099,0.0
 0044333,0.00035316,0.00015362,-0.00035028,-0.00003814,0.00063127,0.105
 70853,0.06861504,0.,0.00000001,0.00000028,-0.00000230,0.00000211,0.000
 00518,0.00000424,-0.00000452,-0.00000464,-0.00000387,0.00000235,0.0000
 0779,-0.00000955,0.00000038,0.00000245,0.00001755,-0.00001771,-0.00000
 508,-0.00001361,0.00000540,-0.00000422,-0.00002466,-0.00001569,0.00000
 166,-0.00006159,-0.00006392,0.00012293,0.00072631,0.00136442,-0.001017
 89,0.00392132,-0.00332947,0.00147938,0.03066689,0.00932447,0.01107723,
 -0.22591103,-0.13090753,-0.23929105,0.00004554,-0.00003657,-0.00011101
 ,0.00000008,-0.00000034,0.00000027,0.00000043,0.00000047,-0.00000005,-
 0.00000043,-0.00000028,-0.00000079,0.00000030,-0.00000042,-0.00000221,
 0.00000088,0.00000039,-0.00000042,0.00000155,-0.00000081,-0.00000345,0
 .00000106,0.00000141,-0.00000020,-0.00000004,-0.00000138,-0.00000202,0
 .00000211,0.00000148,-0.00000112,-0.00000813,-0.00000225,-0.00000730,-
 0.00000473,0.00000105,-0.00000189,0.00002959,-0.00001291,-0.00001736,0
 .00000711,-0.00000354,0.00002570,0.00004615,0.00027344,-0.00036424,-0.
 00075872,0.00054046,-0.00065342,0.19120921,0.12289920,0.22884559,0.000
 00001,-0.00000421,-0.00000173,-0.00000973,0.00003242,0.00000076,0.0000
 4202,-0.00004486,0.00001315,-0.00001698,0.00002596,-0.00000975,-0.0001
 0325,-0.00000781,-0.00005546,0.00020789,-0.00001376,0.00010343,-0.0003
 0844,-0.00005167,-0.00007682,0.00013251,0.00019342,-0.00273214,-0.0056
 1927,-0.00195582,0.00146398,0.00518335,-0.01137837,0.02483986,0.003133
 94,-0.00088805,0.00083614,-0.00010797,0.00013600,0.00031461,-0.0004075
 0,-0.00006506,-0.00018139,-0.05076783,0.00423148,-0.03968070,0.0000027
 5,-0.00000199,0.00000077,0.00000028,0.00000112,-0.00000046,0.00000005,
 0.00000081,0.00000185,0.00000066,-0.00000307,-0.00000013,-0.00000047,-
 0.00000426,0.00000025,0.00000050,0.00000358,0.00000542,0.00000151,0.,0
 .00000180,0.00000898,-0.00000369,0.00002135,0.00001287,-0.00000023,-0.
 00000508,-0.00003774,-0.00000314,0.00007805,0.00007301,-0.00001675,-0.
 00010212,0.00024336,-0.00054237,-0.00010756,-0.00007562,0.00037573,0.0
 0008805,0.00000295,0.00020094,-0.00020488,-0.00058172,0.00011151,-0.00
 024056,-0.00007023,0.00002358,0.00010719,0.05133712,-0.00000086,-0.000
 00416,-0.00000022,-0.00000798,0.00001468,0.00001181,0.00003182,-0.0000
 2752,-0.00000631,-0.00000852,0.00001985,0.00001993,-0.00011409,-0.0000
 2502,-0.00002382,0.00032872,-0.00007053,0.00002117,-0.00046784,-0.0002
 7549,-0.00012216,0.00018127,0.00123950,0.00195156,-0.00418242,-0.00470
 440,0.02878610,-0.00136961,-0.00986408,0.00172716,-0.00090252,0.001222
 42,-0.00238013,0.00027323,0.00002570,-0.00017783,0.00000554,0.00000192
 ,0.00009670,0.00412832,-0.05998897,0.06095660,0.00000176,-0.00000059,0
 .00000084,0.00000204,0.00000123,-0.00000026,-0.00000049,0.00000011,-0.
 00000063,0.00000041,-0.00000289,-0.00000413,0.00000216,-0.00000033,-0.
 00000202,0.00000214,-0.00000419,-0.00000527,0.00000345,0.00000832,-0.0
 0000429,0.00001065,0.00000025,0.00000589,0.00003533,0.00000990,-0.0000
 0700,-0.00004593,0.00000686,-0.00005737,0.00015869,0.00001194,-0.00001
 329,0.00033984,-0.00029376,-0.00046602,0.00016984,-0.00033945,-0.00018
 469,-0.00018070,-0.00003530,0.00015182,-0.00073654,0.00017932,0.000326
 61,0.00008480,0.00005067,-0.00001521,0.00322387,0.06853000,-0.00000017
 ,0.00001149,0.00000122,0.00002655,-0.00008198,-0.00002246,-0.00009010,
 0.00011385,0.00000237,0.00004008,-0.00007068,-0.00001667,0.00023420,0.
 00000244,0.00007548,-0.00039638,0.00027865,-0.00003345,0.00039968,0.00
 000251,-0.00008777,-0.00044589,-0.00000117,0.00096096,0.00825737,0.002
 82830,0.00073053,0.00080701,0.00980410,-0.00719404,-0.00153672,0.00023
 182,-0.00057831,-0.00000390,-0.00020659,-0.00008949,0.00028473,0.00002
 701,0.00003966,-0.04100141,0.05871691,-0.28164220,-0.00000647,0.000006
 25,-0.00000166,-0.00000155,-0.00000424,-0.00000077,0.00000075,-0.00000
 306,0.00000085,-0.00000143,0.00001022,0.00001017,-0.00000059,0.0000091
 2,0.00000140,-0.00000632,0.00001074,0.00000808,-0.00000588,0.00000061,
 0.00000168,-0.00002270,-0.00000372,-0.00000573,-0.00003770,-0.00001309
 ,-0.00000291,0.00000055,-0.00002856,0.00005173,-0.00006938,-0.00001605
 ,-0.00001844,-0.00020920,0.00062168,-0.00023144,-0.00001980,-0.0001800
 9,-0.00008644,0.00007240,-0.00015732,-0.00010233,0.00058475,0.00007790
 ,-0.00030021,-0.00001243,-0.00001248,-0.00006518,0.03494066,-0.0757070
 7,0.30228964,-0.00000053,-0.00001080,-0.00000309,-0.00001971,0.0000656
 7,0.00001030,0.00008941,-0.00010185,0.00001429,-0.00002080,0.00006704,
 0.00000849,-0.00021905,-0.00006795,-0.00013118,0.00061140,-0.00021950,
 0.00019728,-0.00055873,-0.00063145,-0.00021101,0.00226403,0.00086230,0
 .00067487,-0.00113325,-0.00030576,0.01079769,-0.01330192,-0.01711486,-
 0.00795281,0.00072420,-0.00164600,-0.00291189,-0.00027030,0.00017055,-
 0.00006051,-0.00042762,0.00000896,0.00042814,-0.16199578,-0.08911709,-
 0.09824121,0.00000596,-0.00000406,0.00000185,0.00000165,0.00000290,-0.
 00000058,-0.00000016,0.00000178,0.00000230,0.00000120,-0.00000776,-0.0
 0000352,0.00000043,-0.00000807,-0.00000095,0.00000222,-0.00000040,0.00
 000263,0.00000386,0.00000088,0.00000003,0.00001668,0.00000039,0.000031
 73,0.00003773,0.00001038,-0.00000395,-0.00004455,0.00002073,0.00005201
 ,0.00002316,0.00011763,-0.00009561,0.00004141,-0.00026948,-0.00005784,
 -0.00017770,0.00043696,-0.00010452,-0.00039554,-0.00001527,0.00044665,
 0.00000160,0.00024335,-0.00002097,0.00009559,0.00002194,0.00001116,-0.
 00227704,-0.00096639,-0.00178073,0.17692213,-0.00000219,-0.00000298,-0
 .00000045,-0.00000324,-0.00000714,0.00000382,0.00002854,-0.00000141,0.
 00000335,0.00000407,-0.00000354,0.00001008,-0.00009696,-0.00010890,-0.
 00000507,0.00040086,0.00027237,0.00014636,-0.00058207,-0.00047436,-0.0
 0028766,-0.00180909,0.00055874,-0.00105012,-0.02403991,-0.01140368,-0.
 00790829,0.00046748,-0.00927404,0.00437436,0.00118266,0.00190131,0.001
 59176,0.00028356,0.00003856,-0.00012238,0.00000703,0.00000616,-0.00013
 346,-0.09063174,-0.10574560,-0.06636977,0.00000078,0.00000162,0.000000
 87,0.00000321,0.00000031,-0.00000150,-0.00000012,-0.00000123,0.0000011
 0,-0.00000029,-0.00000033,0.00000059,0.00000351,0.00000308,-0.00000268
 ,-0.00000224,0.00000239,0.00000256,0.00000316,0.00001505,-0.00000580,0
 .00000947,-0.00000455,0.00001366,0.00003506,0.00000494,-0.00001976,0.0
 0003736,-0.00002584,0.00013633,0.00045428,-0.00001183,-0.00016903,0.00
 007999,-0.00020388,-0.00002030,0.00031383,-0.00041634,0.00002666,-0.00
 077539,0.00010650,0.00031164,-0.00029425,-0.00002512,0.00003904,0.0000
 4270,0.00001448,-0.00000450,0.00642471,0.00431399,0.00373252,0.1084552
 2,0.12047123,-0.00000132,0.00000224,0.00000135,0.00000358,-0.00002396,
 -0.00000494,-0.00001366,0.00003551,0.00000174,0.00000152,-0.00002212,-
 0.00001286,0.00000721,0.00000122,0.00004600,-0.00007856,0.00014838,-0.
 00007768,-0.00016382,0.00000438,0.00026046,-0.00129401,-0.00050666,-0.
 00063711,0.00806347,0.00293170,0.00242884,0.01147452,0.01177472,0.0104
 8537,-0.00108159,0.00046466,0.00111059,0.00012735,0.00002804,0.0000665
 3,0.00018467,-0.00003058,-0.00023244,-0.09666240,-0.06530705,-0.125495
 18,-0.00000157,0.00000210,-0.00000044,0.00000118,-0.00000075,-0.000000
 90,0.00000009,-0.00000102,0.00000035,-0.00000066,0.00000230,0.00000270
 ,0.00000167,0.00000382,-0.00000074,-0.00000257,0.00000237,0.00000338,0
 .00000013,0.00000706,-0.00000122,-0.00000198,0.00000260,-0.00000566,0.
 00000443,-0.00000061,-0.00000941,-0.00003004,0.00004765,-0.00008106,0.
 00004326,0.00003369,-0.00008972,0.00000106,0.00005924,-0.00006580,0.00
 005516,-0.00013077,0.00003962,0.00004807,-0.00024713,-0.00037731,-0.00
 012738,-0.00011411,-0.00009301,-0.00004022,0.00000542,-0.00001491,-0.0
 1941856,-0.01487845,-0.01369427,0.09890096,0.06570610,0.12644772\\0.00
 000114,0.00000137,0.00000086,0.00000057,0.00001751,0.00000239,-0.00000
 502,-0.00000760,-0.00000223,0.00001213,-0.00000249,0.00000249,-0.00001
 760,0.00000349,-0.00001075,0.00000821,0.00000219,0.00000737,0.00000608
 ,-0.00000606,-0.00000168,0.00001256,-0.00000030,0.00001245,-0.00004231
 ,0.00002023,-0.00002741,0.00001147,0.00000321,0.00002338,0.00002250,-0
 .00000388,0.00000308,-0.00001780,0.00000033,0.00000527,0.00001448,-0.0
 0000168,0.00000161,0.00000095,-0.00002662,-0.00000779,-0.00000032,-0.0
 0000004,-0.00000057,0.00000011,-0.00000023,-0.00000055,0.00000019,-0.0
 0000116,0.00000046,-0.00000212,-0.00000486,-0.00000139,-0.00000091,-0.
 00000439,-0.00000092,-0.00000245,-0.00000055,-0.00000130,-0.00000197,-
 0.00000086,-0.00000085,0.00000379,0.00000028,0.00000264,0.00000378,0.0
 0000020,0.00000286,0.00000035,-0.00000002,-0.00000023,-0.00000054,0.00
 000367,0.00000122,0.00000083,-0.00000371,0.00000102,-0.00000101,-0.000
 00256,-0.00000301,-0.00000840,-0.00000058,-0.00000453,-0.00000301,0.00
 000123,-0.00001045,-0.00000424,-0.00000117,-0.00000120,0.00000521,0.00
 001115,0.00000642,0.00000337,0.00000391,0.00000135\\\@


 The arm of the moral universe is long, but it bends toward justice.
 -- Martin Luther King, Jr.
 Job cpu time:       0 days  5 hours 12 minutes 11.8 seconds.
 Elapsed time:       0 days  1 hours 18 minutes  3.8 seconds.
 File lengths (MBytes):  RWF=    542 Int=      0 D2E=      0 Chk=     20 Scr=      1
 Normal termination of Gaussian 16 at Sun May 28 03:22:55 2023.
### All Done ###
