### Starting Gaussian ###
 Entering Gaussian System, Link 0=g16
 Initial command:
 /cluster/software/gaussian/gaussian-16-A.03/avx2/g16/l1.exe "/local/scratch/cz9n3/Gau-13045.inp" -scrdir="/local/scratch/cz9n3/"
 Entering Link 1 = /cluster/software/gaussian/gaussian-16-A.03/avx2/g16/l1.exe PID=     13046.
  
 Copyright (c) 1988,1990,1992,1993,1995,1998,2003,2009,2016,
            Gaussian, Inc.  All Rights Reserved.
  
 This is part of the Gaussian(R) 16 program.  It is based on
 the Gaussian(R) 09 system (copyright 2009, Gaussian, Inc.),
 the Gaussian(R) 03 system (copyright 2003, Gaussian, Inc.),
 the Gaussian(R) 98 system (copyright 1998, Gaussian, Inc.),
 the Gaussian(R) 94 system (copyright 1995, Gaussian, Inc.),
 the Gaussian 92(TM) system (copyright 1992, Gaussian, Inc.),
 the Gaussian 90(TM) system (copyright 1990, Gaussian, Inc.),
 the Gaussian 88(TM) system (copyright 1988, Gaussian, Inc.),
 the Gaussian 86(TM) system (copyright 1986, Carnegie Mellon
 University), and the Gaussian 82(TM) system (copyright 1983,
 Carnegie Mellon University). Gaussian is a federally registered
 trademark of Gaussian, Inc.
  
 This software contains proprietary and confidential information,
 including trade secrets, belonging to Gaussian, Inc.
  
 This software is provided under written license and may be
 used, copied, transmitted, or stored only in accord with that
 written license.
  
 The following legend is applicable only to US Government
 contracts under FAR:
  
                    RESTRICTED RIGHTS LEGEND
  
 Use, reproduction and disclosure by the US Government is
 subject to restrictions as set forth in subparagraphs (a)
 and (c) of the Commercial Computer Software - Restricted
 Rights clause in FAR 52.227-19.
  
 Gaussian, Inc.
 340 Quinnipiac St., Bldg. 40, Wallingford CT 06492
  
  
 ---------------------------------------------------------------
 Warning -- This program may not be used in any manner that
 competes with the business of Gaussian, Inc. or will provide
 assistance to any competitor of Gaussian, Inc.  The licensee
 of this program is prohibited from giving any competitor of
 Gaussian, Inc. access to this program.  By using this program,
 the user acknowledges that Gaussian, Inc. is engaged in the
 business of creating and licensing software in the field of
 computational chemistry and represents and warrants to the
 licensee that it is not a competitor of Gaussian, Inc. and that
 it will not use this program in any manner prohibited above.
 ---------------------------------------------------------------
  

 Cite this work as:
 Gaussian 16, Revision A.03,
 M. J. Frisch, G. W. Trucks, H. B. Schlegel, G. E. Scuseria, 
 M. A. Robb, J. R. Cheeseman, G. Scalmani, V. Barone, 
 G. A. Petersson, H. Nakatsuji, X. Li, M. Caricato, A. V. Marenich, 
 J. Bloino, B. G. Janesko, R. Gomperts, B. Mennucci, H. P. Hratchian, 
 J. V. Ortiz, A. F. Izmaylov, J. L. Sonnenberg, D. Williams-Young, 
 F. Ding, F. Lipparini, F. Egidi, J. Goings, B. Peng, A. Petrone, 
 T. Henderson, D. Ranasinghe, V. G. Zakrzewski, J. Gao, N. Rega, 
 G. Zheng, W. Liang, M. Hada, M. Ehara, K. Toyota, R. Fukuda, 
 J. Hasegawa, M. Ishida, T. Nakajima, Y. Honda, O. Kitao, H. Nakai, 
 T. Vreven, K. Throssell, J. A. Montgomery, Jr., J. E. Peralta, 
 F. Ogliaro, M. J. Bearpark, J. J. Heyd, E. N. Brothers, K. N. Kudin, 
 V. N. Staroverov, T. A. Keith, R. Kobayashi, J. Normand, 
 K. Raghavachari, A. P. Rendell, J. C. Burant, S. S. Iyengar, 
 J. Tomasi, M. Cossi, J. M. Millam, M. Klene, C. Adamo, R. Cammi, 
 J. W. Ochterski, R. L. Martin, K. Morokuma, O. Farkas, 
 J. B. Foresman, and D. J. Fox, Gaussian, Inc., Wallingford CT, 2016.
 
 ******************************************
 Gaussian 16:  ES64L-G16RevA.03 25-Dec-2016
                25-May-2023 
 ******************************************
 %chk=CCOCqCOrCCCqCrO.chk
 %NProcShared=20
 Will use up to   20 processors via shared memory.
 ----------------------------------------------------------------
 # opt freq b3lyp/6-31+g(2df,p) Geom=AllCheckpoint TD(NStates=10)
 ----------------------------------------------------------------
 1/18=20,19=15,26=3,29=7,38=1/1,3;
 2/9=110,12=2,40=1/2;
 3/5=1,6=6,7=114,11=9,14=-4,25=1,30=1,71=1,74=-5/1,2,3,8;
 4//1;
 5/5=2,38=5/2;
 8/6=1,10=2,108=10/1;
 9/15=2,41=10,42=1,70=2/14;
 10/5=4/2;
 6/7=2,8=2,9=2,10=2/1;
 7/12=6,13=5/1,2,3,16;
 1/18=20,19=15,26=3/3(2);
 2/9=110/2;
 99//99;
 2/9=110/2;
 3/5=1,6=6,7=114,11=9,14=-2,25=1,30=1,71=1,74=-5/1,2,3,8;
 4/5=5,16=3,69=1/1;
 5/5=2,38=5/2;
 8/6=1,10=2,108=10/1;
 9/15=2,41=10,42=1,49=4,70=2/14;
 10/5=4/2;
 7/12=6,13=5/1,2,3,16;
 1/18=20,19=15,26=3/3(-8);
 2/9=110/2;
 6/7=2,8=2,9=2,10=2/1;
 99//99;
 Structure from the checkpoint file:  "CCOCqCOrCCCqCrO.chk"
 -------------------
 Title Card Required
 -------------------
 Charge =  0 Multiplicity = 1
 Redundant internal coordinates found in file.  (old form).
 C,0,3.8515357423,-1.8334229614,0.0300252318
 C,0,3.0318340821,-0.6184215609,0.4323609086
 O,0,1.8045113273,-0.6647655451,-0.2822564262
 C,0,0.8200432261,0.284294554,0.0907673546
 C,0,1.1054586995,1.6720731111,-0.5004317083
 O,0,2.2192917123,2.3379036047,0.0786800469
 C,0,-0.5272877013,-0.2721144532,-0.3950792683
 C,0,-1.7507100369,0.3397381141,0.2977675777
 C,0,-3.1019791314,-0.134811859,-0.2587008655
 C,0,-3.3633609642,-1.627433033,-0.0531365235
 O,0,-4.1641107618,0.6472258109,0.2844420402
 H,0,4.8066011698,-1.8420518653,0.5642158118
 H,0,4.0574185089,-1.8178781149,-1.0442016657
 H,0,3.3135108249,-2.757510648,0.2609064736
 H,0,3.5726523652,0.3103312506,0.2178720238
 H,0,2.8288496493,-0.6346634826,1.5174179309
 H,0,0.7959715126,0.3706169164,1.1942999253
 H,0,0.2014777635,2.2966184916,-0.4370766797
 H,0,1.3500122834,1.5451062957,-1.5601287764
 H,0,2.0052463065,2.5273288616,0.9978732243
 H,0,-0.4949494986,-1.3523804498,-0.2271833336
 H,0,-0.6010850972,-0.1300892522,-1.4819625462
 H,0,-1.7403546972,1.4320388359,0.2110493452
 H,0,-1.7133888924,0.1129216967,1.374295848
 H,0,-3.1302859953,0.0854538315,-1.3335633924
 H,0,-3.3158958094,-1.8858395072,1.0128722727
 H,0,-2.6294461336,-2.245926236,-0.5780302098
 H,0,-4.3591106108,-1.8857979321,-0.4231128449
 H,0,-4.2179653698,0.4493988745,1.2260950631
 Recover connectivity data from disk.

 GradGradGradGradGradGradGradGradGradGradGradGradGradGradGradGradGradGrad
 Berny optimization.
 Initialization pass.
                           ----------------------------
                           !    Initial Parameters    !
                           ! (Angstroms and Degrees)  !
 --------------------------                            --------------------------
 ! Name  Definition              Value          Derivative Info.                !
 --------------------------------------------------------------------------------
 ! R1    R(1,2)                  1.5199         estimate D2E/DX2                !
 ! R2    R(1,12)                 1.0943         estimate D2E/DX2                !
 ! R3    R(1,13)                 1.0939         estimate D2E/DX2                !
 ! R4    R(1,14)                 1.0939         estimate D2E/DX2                !
 ! R5    R(2,3)                  1.421          estimate D2E/DX2                !
 ! R6    R(2,15)                 1.0959         estimate D2E/DX2                !
 ! R7    R(2,16)                 1.104          estimate D2E/DX2                !
 ! R8    R(3,4)                  1.4174         estimate D2E/DX2                !
 ! R9    R(4,5)                  1.5352         estimate D2E/DX2                !
 ! R10   R(4,7)                  1.5365         estimate D2E/DX2                !
 ! R11   R(4,17)                 1.1072         estimate D2E/DX2                !
 ! R12   R(5,6)                  1.421          estimate D2E/DX2                !
 ! R13   R(5,18)                 1.1006         estimate D2E/DX2                !
 ! R14   R(5,19)                 1.0949         estimate D2E/DX2                !
 ! R15   R(6,20)                 0.9626         estimate D2E/DX2                !
 ! R16   R(7,8)                  1.5334         estimate D2E/DX2                !
 ! R17   R(7,21)                 1.0937         estimate D2E/DX2                !
 ! R18   R(7,22)                 1.0986         estimate D2E/DX2                !
 ! R19   R(8,9)                  1.5365         estimate D2E/DX2                !
 ! R20   R(8,23)                 1.0958         estimate D2E/DX2                !
 ! R21   R(8,24)                 1.1008         estimate D2E/DX2                !
 ! R22   R(9,10)                 1.5292         estimate D2E/DX2                !
 ! R23   R(9,11)                 1.4264         estimate D2E/DX2                !
 ! R24   R(9,25)                 1.0976         estimate D2E/DX2                !
 ! R25   R(10,26)                1.0979         estimate D2E/DX2                !
 ! R26   R(10,27)                1.0939         estimate D2E/DX2                !
 ! R27   R(10,28)                1.0932         estimate D2E/DX2                !
 ! R28   R(11,29)                0.9637         estimate D2E/DX2                !
 ! A1    A(2,1,12)             110.3509         estimate D2E/DX2                !
 ! A2    A(2,1,13)             110.4938         estimate D2E/DX2                !
 ! A3    A(2,1,14)             110.7423         estimate D2E/DX2                !
 ! A4    A(12,1,13)            108.374          estimate D2E/DX2                !
 ! A5    A(12,1,14)            108.6353         estimate D2E/DX2                !
 ! A6    A(13,1,14)            108.1696         estimate D2E/DX2                !
 ! A7    A(1,2,3)              107.856          estimate D2E/DX2                !
 ! A8    A(1,2,15)             111.0701         estimate D2E/DX2                !
 ! A9    A(1,2,16)             110.3391         estimate D2E/DX2                !
 ! A10   A(3,2,15)             110.8205         estimate D2E/DX2                !
 ! A11   A(3,2,16)             109.5722         estimate D2E/DX2                !
 ! A12   A(15,2,16)            107.1908         estimate D2E/DX2                !
 ! A13   A(2,3,4)              116.4691         estimate D2E/DX2                !
 ! A14   A(3,4,5)              112.0118         estimate D2E/DX2                !
 ! A15   A(3,4,7)              106.4603         estimate D2E/DX2                !
 ! A16   A(3,4,17)             109.2455         estimate D2E/DX2                !
 ! A17   A(5,4,7)              111.6291         estimate D2E/DX2                !
 ! A18   A(5,4,17)             108.5051         estimate D2E/DX2                !
 ! A19   A(7,4,17)             108.9248         estimate D2E/DX2                !
 ! A20   A(4,5,6)              114.3519         estimate D2E/DX2                !
 ! A21   A(4,5,18)             109.7613         estimate D2E/DX2                !
 ! A22   A(4,5,19)             108.023          estimate D2E/DX2                !
 ! A23   A(6,5,18)             110.7603         estimate D2E/DX2                !
 ! A24   A(6,5,19)             105.8834         estimate D2E/DX2                !
 ! A25   A(18,5,19)            107.7564         estimate D2E/DX2                !
 ! A26   A(5,6,20)             107.8823         estimate D2E/DX2                !
 ! A27   A(4,7,8)              114.3467         estimate D2E/DX2                !
 ! A28   A(4,7,21)             106.4514         estimate D2E/DX2                !
 ! A29   A(4,7,22)             108.9602         estimate D2E/DX2                !
 ! A30   A(8,7,21)             110.3865         estimate D2E/DX2                !
 ! A31   A(8,7,22)             109.9895         estimate D2E/DX2                !
 ! A32   A(21,7,22)            106.3525         estimate D2E/DX2                !
 ! A33   A(7,8,9)              114.5071         estimate D2E/DX2                !
 ! A34   A(7,8,23)             110.7605         estimate D2E/DX2                !
 ! A35   A(7,8,24)             109.4279         estimate D2E/DX2                !
 ! A36   A(9,8,23)             106.7096         estimate D2E/DX2                !
 ! A37   A(9,8,24)             108.6849         estimate D2E/DX2                !
 ! A38   A(23,8,24)            106.4074         estimate D2E/DX2                !
 ! A39   A(8,9,10)             113.7722         estimate D2E/DX2                !
 ! A40   A(8,9,11)             110.3416         estimate D2E/DX2                !
 ! A41   A(8,9,25)             108.3836         estimate D2E/DX2                !
 ! A42   A(10,9,11)            110.8959         estimate D2E/DX2                !
 ! A43   A(10,9,25)            108.8517         estimate D2E/DX2                !
 ! A44   A(11,9,25)            104.1029         estimate D2E/DX2                !
 ! A45   A(9,10,26)            110.6624         estimate D2E/DX2                !
 ! A46   A(9,10,27)            111.8813         estimate D2E/DX2                !
 ! A47   A(9,10,28)            109.9298         estimate D2E/DX2                !
 ! A48   A(26,10,27)           107.6865         estimate D2E/DX2                !
 ! A49   A(26,10,28)           108.2007         estimate D2E/DX2                !
 ! A50   A(27,10,28)           108.3652         estimate D2E/DX2                !
 ! A51   A(9,11,29)            107.525          estimate D2E/DX2                !
 ! D1    D(12,1,2,3)          -179.5992         estimate D2E/DX2                !
 ! D2    D(12,1,2,15)           58.7799         estimate D2E/DX2                !
 ! D3    D(12,1,2,16)          -59.9451         estimate D2E/DX2                !
 ! D4    D(13,1,2,3)            60.5624         estimate D2E/DX2                !
 ! D5    D(13,1,2,15)          -61.0585         estimate D2E/DX2                !
 ! D6    D(13,1,2,16)         -179.7835         estimate D2E/DX2                !
 ! D7    D(14,1,2,3)           -59.2737         estimate D2E/DX2                !
 ! D8    D(14,1,2,15)          179.1054         estimate D2E/DX2                !
 ! D9    D(14,1,2,16)           60.3804         estimate D2E/DX2                !
 ! D10   D(1,2,3,4)            171.5724         estimate D2E/DX2                !
 ! D11   D(15,2,3,4)           -66.652          estimate D2E/DX2                !
 ! D12   D(16,2,3,4)            51.434          estimate D2E/DX2                !
 ! D13   D(2,3,4,5)             78.6419         estimate D2E/DX2                !
 ! D14   D(2,3,4,7)           -159.0812         estimate D2E/DX2                !
 ! D15   D(2,3,4,17)           -41.6064         estimate D2E/DX2                !
 ! D16   D(3,4,5,6)            -70.7856         estimate D2E/DX2                !
 ! D17   D(3,4,5,18)           164.0428         estimate D2E/DX2                !
 ! D18   D(3,4,5,19)            46.8063         estimate D2E/DX2                !
 ! D19   D(7,4,5,6)            169.9346         estimate D2E/DX2                !
 ! D20   D(7,4,5,18)            44.763          estimate D2E/DX2                !
 ! D21   D(7,4,5,19)           -72.4735         estimate D2E/DX2                !
 ! D22   D(17,4,5,6)            49.893          estimate D2E/DX2                !
 ! D23   D(17,4,5,18)          -75.2785         estimate D2E/DX2                !
 ! D24   D(17,4,5,19)          167.4849         estimate D2E/DX2                !
 ! D25   D(3,4,7,8)            160.4685         estimate D2E/DX2                !
 ! D26   D(3,4,7,21)            38.3078         estimate D2E/DX2                !
 ! D27   D(3,4,7,22)           -76.0135         estimate D2E/DX2                !
 ! D28   D(5,4,7,8)            -77.0132         estimate D2E/DX2                !
 ! D29   D(5,4,7,21)           160.8262         estimate D2E/DX2                !
 ! D30   D(5,4,7,22)            46.5049         estimate D2E/DX2                !
 ! D31   D(17,4,7,8)            42.7813         estimate D2E/DX2                !
 ! D32   D(17,4,7,21)          -79.3794         estimate D2E/DX2                !
 ! D33   D(17,4,7,22)          166.2993         estimate D2E/DX2                !
 ! D34   D(4,5,6,20)           -65.6273         estimate D2E/DX2                !
 ! D35   D(18,5,6,20)           59.0157         estimate D2E/DX2                !
 ! D36   D(19,5,6,20)          175.5643         estimate D2E/DX2                !
 ! D37   D(4,7,8,9)            175.5717         estimate D2E/DX2                !
 ! D38   D(4,7,8,23)            54.8584         estimate D2E/DX2                !
 ! D39   D(4,7,8,24)           -62.1434         estimate D2E/DX2                !
 ! D40   D(21,7,8,9)           -64.443          estimate D2E/DX2                !
 ! D41   D(21,7,8,23)          174.8437         estimate D2E/DX2                !
 ! D42   D(21,7,8,24)           57.8419         estimate D2E/DX2                !
 ! D43   D(22,7,8,9)            52.609          estimate D2E/DX2                !
 ! D44   D(22,7,8,23)          -68.1043         estimate D2E/DX2                !
 ! D45   D(22,7,8,24)          174.894          estimate D2E/DX2                !
 ! D46   D(7,8,9,10)            64.4175         estimate D2E/DX2                !
 ! D47   D(7,8,9,11)          -170.2052         estimate D2E/DX2                !
 ! D48   D(7,8,9,25)           -56.8109         estimate D2E/DX2                !
 ! D49   D(23,8,9,10)         -172.6545         estimate D2E/DX2                !
 ! D50   D(23,8,9,11)          -47.2772         estimate D2E/DX2                !
 ! D51   D(23,8,9,25)           66.1171         estimate D2E/DX2                !
 ! D52   D(24,8,9,10)          -58.2705         estimate D2E/DX2                !
 ! D53   D(24,8,9,11)           67.1068         estimate D2E/DX2                !
 ! D54   D(24,8,9,25)         -179.4989         estimate D2E/DX2                !
 ! D55   D(8,9,10,26)           57.569          estimate D2E/DX2                !
 ! D56   D(8,9,10,27)          -62.5209         estimate D2E/DX2                !
 ! D57   D(8,9,10,28)          177.0293         estimate D2E/DX2                !
 ! D58   D(11,9,10,26)         -67.513          estimate D2E/DX2                !
 ! D59   D(11,9,10,27)         172.3971         estimate D2E/DX2                !
 ! D60   D(11,9,10,28)          51.9473         estimate D2E/DX2                !
 ! D61   D(25,9,10,26)         178.5359         estimate D2E/DX2                !
 ! D62   D(25,9,10,27)          58.446          estimate D2E/DX2                !
 ! D63   D(25,9,10,28)         -62.0038         estimate D2E/DX2                !
 ! D64   D(8,9,11,29)          -67.2331         estimate D2E/DX2                !
 ! D65   D(10,9,11,29)          59.7599         estimate D2E/DX2                !
 ! D66   D(25,9,11,29)         176.6662         estimate D2E/DX2                !
 --------------------------------------------------------------------------------
 Trust Radius=3.00D-01 FncErr=1.00D-07 GrdErr=1.00D-06 EigMax=2.50D+02 EigMin=1.00D-04
 Number of steps in this run=    155 maximum allowed number of steps=    174.
 GradGradGradGradGradGradGradGradGradGradGradGradGradGradGradGradGradGrad

                          Input orientation:                          
 ---------------------------------------------------------------------
 Center     Atomic      Atomic             Coordinates (Angstroms)
 Number     Number       Type             X           Y           Z
 ---------------------------------------------------------------------
      1          6           0        3.851536   -1.833423    0.030025
      2          6           0        3.031834   -0.618422    0.432361
      3          8           0        1.804511   -0.664766   -0.282256
      4          6           0        0.820043    0.284295    0.090767
      5          6           0        1.105459    1.672073   -0.500432
      6          8           0        2.219292    2.337904    0.078680
      7          6           0       -0.527288   -0.272114   -0.395079
      8          6           0       -1.750710    0.339738    0.297768
      9          6           0       -3.101979   -0.134812   -0.258701
     10          6           0       -3.363361   -1.627433   -0.053137
     11          8           0       -4.164111    0.647226    0.284442
     12          1           0        4.806601   -1.842052    0.564216
     13          1           0        4.057419   -1.817878   -1.044202
     14          1           0        3.313511   -2.757511    0.260906
     15          1           0        3.572652    0.310331    0.217872
     16          1           0        2.828850   -0.634663    1.517418
     17          1           0        0.795972    0.370617    1.194300
     18          1           0        0.201478    2.296618   -0.437077
     19          1           0        1.350012    1.545106   -1.560129
     20          1           0        2.005246    2.527329    0.997873
     21          1           0       -0.494949   -1.352380   -0.227183
     22          1           0       -0.601085   -0.130089   -1.481963
     23          1           0       -1.740355    1.432039    0.211049
     24          1           0       -1.713389    0.112922    1.374296
     25          1           0       -3.130286    0.085454   -1.333563
     26          1           0       -3.315896   -1.885840    1.012872
     27          1           0       -2.629446   -2.245926   -0.578030
     28          1           0       -4.359111   -1.885798   -0.423113
     29          1           0       -4.217965    0.449399    1.226095
 ---------------------------------------------------------------------
                    Distance matrix (angstroms):
                    1          2          3          4          5
     1  C    0.000000
     2  C    1.519873   0.000000
     3  O    2.377728   1.420967   0.000000
     4  C    3.698427   2.413214   1.417406   0.000000
     5  C    4.484510   3.134867   2.448896   1.535222   0.000000
     6  O    4.479571   3.086288   3.052596   2.485026   1.421029
     7  C    4.668243   3.670413   2.367317   1.536535   2.541028
     8  C    6.014937   4.879438   3.739660   2.579670   3.251144
     9  C    7.163799   6.191535   4.935084   3.959803   4.585390
    10  C    7.218316   6.492483   5.261761   4.601769   5.572895
    11  O    8.394578   7.307897   6.137338   5.001102   5.425376
    12  H    1.094342   2.159735   3.333926   4.542923   5.213540
    13  H    1.093889   2.161193   2.643070   4.023417   4.603207
    14  H    1.093945   2.164357   2.636605   3.936865   5.007628
    15  H    2.169964   1.095934   2.080208   2.755665   2.908152
    16  H    2.166852   1.104000   2.070991   2.629661   3.516081
    17  H    3.943323   2.560826   2.066250   1.107165   2.159094
    18  H    5.531578   4.155033   3.370976   2.170412   1.100569
    19  H    4.494515   3.388125   2.592887   2.143822   1.094936
    20  H    4.833391   3.356998   3.445068   2.694207   1.945764
    21  H    4.380581   3.662226   2.400701   2.123441   3.432680
    22  H    5.001328   4.135360   2.740815   2.159815   2.668986
    23  H    6.478059   5.198765   4.148013   2.808455   2.943208
    24  H    6.046793   4.892775   3.965424   2.845188   3.727125
    25  H    7.367991   6.448694   5.101010   4.203969   4.599239
    26  H    7.234695   6.499001   5.420973   4.760856   5.873432
    27  H    6.522501   5.976601   4.716729   4.329929   5.413525
    28  H    8.223308   7.547459   6.284982   5.638884   6.521192
    29  H    8.471051   7.370878   6.307671   5.166987   5.728409
                    6          7          8          9         10
     6  O    0.000000
     7  C    3.818421   0.000000
     8  C    4.449896   1.533350   0.000000
     9  C    5.877420   2.581954   1.536484   0.000000
    10  C    6.848889   3.161823   2.567789   1.529214   0.000000
    11  O    6.606705   3.812272   2.432947   1.426433   2.435002
    12  H    4.939832   5.642280   6.915890   8.132497   8.196064
    13  H    4.680822   4.881626   6.339601   7.396398   7.489089
    14  H    5.214764   4.621606   5.936383   6.950327   6.779109
    15  H    2.441723   4.186223   5.324043   6.706413   7.206709
    16  H    3.358226   3.879787   4.838323   6.211214   6.464960
    17  H    2.672202   2.165697   2.700058   4.190548   4.779995
    18  H    2.083094   2.670440   2.860142   4.105667   5.315418
    19  H    2.017392   2.860749   3.810403   4.933160   5.878088
    20  H    0.962608   4.023795   4.402603   5.894890   6.869397
    21  H    4.591171   1.093714   2.171583   2.877511   2.886820
    22  H    4.059694   1.098605   2.170211   2.784037   3.451630
    23  H    4.064100   2.177857   1.095787   2.128311   3.473372
    24  H    4.700547   2.164666   1.100796   2.157831   2.790843
    25  H    5.973771   2.790019   2.151542   1.097564   2.151232
    26  H    7.025028   3.516073   2.813250   2.174570   1.097908
    27  H    6.704702   2.889373   2.867902   2.186793   1.093928
    28  H    7.833698   4.157839   3.503774   2.161796   1.093230
    29  H    6.805975   4.095106   2.638402   1.947138   2.584572
                   11         12         13         14         15
    11  O    0.000000
    12  H    9.313885   0.000000
    13  H    8.685366   1.774504   0.000000
    14  H    8.216301   1.777465   1.771896   0.000000
    15  H    7.744381   2.505062   2.521330   3.079068   0.000000
    16  H    7.215606   2.505570   3.077543   2.514000   1.770615
    17  H    5.050423   4.623641   4.520778   4.122428   2.943977
    18  H    4.722229   6.272028   5.671504   5.976299   3.967255
    19  H    5.883382   5.285233   4.348091   5.067939   3.102593
    20  H    6.488816   5.208372   5.221332   5.494015   2.824932
    21  H    4.209861   5.382614   4.648469   4.088642   4.416794
    22  H    4.052105   6.029986   4.974125   5.026430   4.528078
    23  H    2.548708   7.328508   6.764007   6.564782   5.430131
    24  H    2.734831   6.854810   6.548232   5.894806   5.414658
    25  H    2.000581   8.385167   7.441068   7.221309   6.883815
    26  H    2.768844   8.134996   7.655190   6.728618   7.273740
    27  H    3.386648   7.534098   6.716748   6.023643   6.755290
    28  H    2.637208   9.218840   8.439688   7.752218   8.255102
    29  H    0.963715   9.334433   8.875628   8.242511   7.856817
                   16         17         18         19         20
    16  H    0.000000
    17  H    2.290761   0.000000
    18  H    4.394946   2.593124   0.000000
    19  H    4.050883   3.045203   1.773457   0.000000
    20  H    3.308541   2.480390   2.316439   2.817351   0.000000
    21  H    3.821831   2.579886   3.720787   3.684570   4.775342
    22  H    4.584248   3.060205   2.761305   2.572775   4.472630
    23  H    5.182228   2.919991   2.222224   3.563737   3.980990
    24  H    4.605573   2.528971   3.422911   4.477324   4.449641
    25  H    6.645146   4.678345   4.097998   4.717519   6.145896
    26  H    6.291097   4.693822   5.653956   6.337383   6.913091
    27  H    6.064657   4.660573   5.354317   5.583237   6.837237
    28  H    7.549687   5.855109   6.188034   6.757070   7.874003
    29  H    7.135661   5.014657   5.070487   6.321866   6.564925
                   21         22         23         24         25
    21  H    0.000000
    22  H    1.754916   0.000000
    23  H    3.081570   2.569916   0.000000
    24  H    2.489265   3.074815   1.758960   0.000000
    25  H    3.199444   2.542703   2.476091   3.056281   0.000000
    26  H    3.127308   4.083755   3.759464   2.587219   3.070213
    27  H    2.340426   3.067264   3.865302   3.196076   2.501400
    28  H    3.905722   4.280938   4.274118   3.771658   2.494948
    29  H    4.383979   4.555349   2.852096   2.531419   2.804880
                   26         27         28         29
    26  H    0.000000
    27  H    1.769702   0.000000
    28  H    1.774923   1.773536   0.000000
    29  H    2.512475   3.611515   2.862333   0.000000
 Stoichiometry    C8H18O3
 Framework group  C1[X(C8H18O3)]
 Deg. of freedom    81
 Full point group                 C1      NOp   1
 Largest Abelian subgroup         C1      NOp   1
 Largest concise Abelian subgroup C1      NOp   1
                         Standard orientation:                         
 ---------------------------------------------------------------------
 Center     Atomic      Atomic             Coordinates (Angstroms)
 Number     Number       Type             X           Y           Z
 ---------------------------------------------------------------------
      1          6           0       -3.851536    1.833423    0.030025
      2          6           0       -3.031834    0.618422    0.432361
      3          8           0       -1.804511    0.664766   -0.282256
      4          6           0       -0.820043   -0.284295    0.090767
      5          6           0       -1.105459   -1.672073   -0.500432
      6          8           0       -2.219292   -2.337904    0.078680
      7          6           0        0.527288    0.272114   -0.395079
      8          6           0        1.750710   -0.339738    0.297768
      9          6           0        3.101979    0.134812   -0.258701
     10          6           0        3.363361    1.627433   -0.053137
     11          8           0        4.164111   -0.647226    0.284442
     12          1           0       -4.806601    1.842052    0.564216
     13          1           0       -4.057419    1.817878   -1.044202
     14          1           0       -3.313511    2.757511    0.260906
     15          1           0       -3.572652   -0.310331    0.217872
     16          1           0       -2.828850    0.634663    1.517418
     17          1           0       -0.795972   -0.370617    1.194300
     18          1           0       -0.201478   -2.296618   -0.437077
     19          1           0       -1.350012   -1.545106   -1.560129
     20          1           0       -2.005246   -2.527329    0.997873
     21          1           0        0.494949    1.352380   -0.227183
     22          1           0        0.601085    0.130089   -1.481963
     23          1           0        1.740355   -1.432039    0.211049
     24          1           0        1.713389   -0.112922    1.374296
     25          1           0        3.130286   -0.085454   -1.333563
     26          1           0        3.315896    1.885840    1.012872
     27          1           0        2.629446    2.245926   -0.578030
     28          1           0        4.359111    1.885798   -0.423113
     29          1           0        4.217965   -0.449399    1.226095
 ---------------------------------------------------------------------
 Rotational constants (GHZ):           1.7418099           0.4245242           0.3556468
 Standard basis: 6-31+G(2df,p) (6D, 7F)
 There are   475 symmetry adapted cartesian basis functions of A   symmetry.
 There are   442 symmetry adapted basis functions of A   symmetry.
   442 basis functions,   654 primitive gaussians,   475 cartesian basis functions
    45 alpha electrons       45 beta electrons
       nuclear repulsion energy       663.3832502655 Hartrees.
 NAtoms=   29 NActive=   29 NUniq=   29 SFac= 1.00D+00 NAtFMM=   60 NAOKFM=F Big=F
 Integral buffers will be    131072 words long.
 Regular integral format.
 Two-electron integral symmetry is turned on.
 One-electron integrals computed using PRISM.
 PrsmSu:  requested number of processors reduced to:  12 ShMem   1 Linda.
 NBasis=   442 RedAO= T EigKep=  1.04D-05  NBF=   442
 NBsUse=   442 1.00D-06 EigRej= -1.00D+00 NBFU=   442
 ExpMin= 4.38D-02 ExpMax= 5.48D+03 ExpMxC= 8.25D+02 IAcc=3 IRadAn=         5 AccDes= 0.00D+00
 Harris functional with IExCor=  402 and IRadAn=       5 diagonalized for initial guess.
 HarFok:  IExCor=  402 AccDes= 0.00D+00 IRadAn=         5 IDoV= 1 UseB2=F ITyADJ=14
 ICtDFT=  3500011 ScaDFX=  1.000000  1.000000  1.000000  1.000000
 FoFCou: FMM=F IPFlag=           0 FMFlag=      100000 FMFlg1=           0
         NFxFlg=           0 DoJE=T BraDBF=F KetDBF=T FulRan=T
         wScrn=  0.000000 ICntrl=       500 IOpCl=  0 I1Cent=   200000004 NGrid=           0
         NMat0=    1 NMatS0=      1 NMatT0=    0 NMatD0=    1 NMtDS0=    0 NMtDT0=    0
 Petite list used in FoFCou.
 Requested convergence on RMS density matrix=1.00D-08 within 128 cycles.
 Requested convergence on MAX density matrix=1.00D-06.
 Requested convergence on             energy=1.00D-06.
 No special actions if energy rises.
 SCF Done:  E(RB3LYP) =  -541.412471196     A.U. after   12 cycles
            NFock= 12  Conv=0.80D-08     -V/T= 2.0077
 DoSCS=F DFT=T ScalE2(SS,OS)=  1.000000  1.000000
 ExpMin= 4.38D-02 ExpMax= 5.48D+03 ExpMxC= 8.25D+02 IAcc=3 IRadAn=         5 AccDes= 0.00D+00
 HarFok:  IExCor=  205 AccDes= 0.00D+00 IRadAn=         5 IDoV=-2 UseB2=F ITyADJ=14
 ICtDFT= 12500011 ScaDFX=  1.000000  1.000000  1.000000  1.000000
 Range of M.O.s used for correlation:    12   442
 NBasis=   442 NAE=    45 NBE=    45 NFC=    11 NFV=     0
 NROrb=    431 NOA=    34 NOB=    34 NVA=   397 NVB=   397

 **** Warning!!: The largest alpha MO coefficient is  0.64072964D+02

 Orbital symmetries:
       Occupied  (A) (A) (A) (A) (A) (A) (A) (A) (A) (A) (A) (A)
                 (A) (A) (A) (A) (A) (A) (A) (A) (A) (A) (A) (A)
                 (A) (A) (A) (A) (A) (A) (A) (A) (A) (A) (A) (A)
                 (A) (A) (A) (A) (A) (A) (A) (A) (A)
       Virtual   (A) (A) (A) (A) (A) (A) (A) (A) (A) (A) (A) (A)
                 (A) (A) (A) (A) (A) (A) (A) (A) (A) (A) (A) (A)
                 (A) (A) (A) (A) (A) (A) (A) (A) (A) (A) (A) (A)
                 (A) (A) (A) (A) (A) (A) (A) (A) (A) (A) (A) (A)
                 (A) (A) (A) (A) (A) (A) (A) (A) (A) (A) (A) (A)
                 (A) (A) (A) (A) (A) (A) (A) (A) (A) (A) (A) (A)
                 (A) (A) (A) (A) (A) (A) (A) (A) (A) (A) (A) (A)
                 (A) (A) (A) (A) (A) (A) (A) (A) (A) (A) (A) (A)
                 (A) (A) (A) (A) (A) (A) (A) (A) (A) (A) (A) (A)
                 (A) (A) (A) (A) (A) (A) (A) (A) (A) (A) (A) (A)
                 (A) (A) (A) (A) (A) (A) (A) (A) (A) (A) (A) (A)
                 (A) (A) (A) (A) (A) (A) (A) (A) (A) (A) (A) (A)
                 (A) (A) (A) (A) (A) (A) (A) (A) (A) (A) (A) (A)
                 (A) (A) (A) (A) (A) (A) (A) (A) (A) (A) (A) (A)
                 (A) (A) (A) (A) (A) (A) (A) (A) (A) (A) (A) (A)
                 (A) (A) (A) (A) (A) (A) (A) (A) (A) (A) (A) (A)
                 (A) (A) (A) (A) (A) (A) (A) (A) (A) (A) (A) (A)
                 (A) (A) (A) (A) (A) (A) (A) (A) (A) (A) (A) (A)
                 (A) (A) (A) (A) (A) (A) (A) (A) (A) (A) (A) (A)
                 (A) (A) (A) (A) (A) (A) (A) (A) (A) (A) (A) (A)
                 (A) (A) (A) (A) (A) (A) (A) (A) (A) (A) (A) (A)
                 (A) (A) (A) (A) (A) (A) (A) (A) (A) (A) (A) (A)
                 (A) (A) (A) (A) (A) (A) (A) (A) (A) (A) (A) (A)
                 (A) (A) (A) (A) (A) (A) (A) (A) (A) (A) (A) (A)
                 (A) (A) (A) (A) (A) (A) (A) (A) (A) (A) (A) (A)
                 (A) (A) (A) (A) (A) (A) (A) (A) (A) (A) (A) (A)
                 (A) (A) (A) (A) (A) (A) (A) (A) (A) (A) (A) (A)
                 (A) (A) (A) (A) (A) (A) (A) (A) (A) (A) (A) (A)
                 (A) (A) (A) (A) (A) (A) (A) (A) (A) (A) (A) (A)
                 (A) (A) (A) (A) (A) (A) (A) (A) (A) (A) (A) (A)
                 (A) (A) (A) (A) (A) (A) (A) (A) (A) (A) (A) (A)
                 (A) (A) (A) (A) (A) (A) (A) (A) (A) (A) (A) (A)
                 (A) (A) (A) (A) (A) (A) (A) (A) (A) (A) (A) (A)
                 (A)
    40 initial guesses have been made.
 Convergence on wavefunction:    0.000001000000000
 Iteration     1 Dimension    40 NMult     0 NNew     40
 CISAX will form     5 AO SS matrices at one time.
 Iteration     2 Dimension    60 NMult    40 NNew     20
 Iteration     3 Dimension    80 NMult    60 NNew     20
 Iteration     4 Dimension   100 NMult    80 NNew     20
 Iteration     5 Dimension   120 NMult   100 NNew     20
 Iteration     6 Dimension   140 NMult   120 NNew     20
 Iteration     7 Dimension   160 NMult   140 NNew     20
 Iteration     8 Dimension   180 NMult   160 NNew     20
 Iteration     9 Dimension   200 NMult   180 NNew     20
 Iteration    10 Dimension   218 NMult   200 NNew     18
 Iteration    11 Dimension   228 NMult   218 NNew     10
 Iteration    12 Dimension   230 NMult   228 NNew      2
 ***********************************************************************
 Excited states from <AA,BB:AA,BB> singles matrix:
 ***********************************************************************
 
 Ground to excited state transition densities written to RWF  633
 Ground to excited state transition electric dipole moments (Au):
       state          X           Y           Z        Dip. S.      Osc.
         1         0.1691      0.0742      0.2039      0.0757      0.0107
         2         0.0706     -0.1044     -0.0184      0.0162      0.0025
         3         0.0728      0.1438     -0.0940      0.0348      0.0055
         4        -0.2047      0.0151      0.2771      0.1189      0.0188
         5         0.1795      0.3177     -0.1106      0.1454      0.0236
         6         0.0252     -0.0127     -0.0408      0.0025      0.0004
         7         0.1816     -0.1730     -0.0240      0.0635      0.0108
         8         0.0599     -0.0229      0.1867      0.0390      0.0067
         9        -0.0413      0.1505     -0.1288      0.0409      0.0071
        10         0.0044      0.2463      0.0396      0.0623      0.0109
 Ground to excited state transition velocity dipole moments (Au):
       state          X           Y           Z        Dip. S.      Osc.
         1        -0.0358     -0.0180     -0.0442      0.0036      0.0112
         2        -0.0170      0.0253      0.0062      0.0010      0.0028
         3        -0.0190     -0.0370      0.0206      0.0022      0.0061
         4         0.0485     -0.0034     -0.0647      0.0065      0.0183
         5        -0.0473     -0.0828      0.0267      0.0098      0.0268
         6        -0.0078      0.0030      0.0098      0.0002      0.0004
         7        -0.0462      0.0461      0.0047      0.0043      0.0112
         8        -0.0169      0.0040     -0.0472      0.0025      0.0065
         9         0.0127     -0.0413      0.0330      0.0030      0.0076
        10        -0.0016     -0.0664     -0.0131      0.0046      0.0117
 Ground to excited state transition magnetic dipole moments (Au):
       state          X           Y           Z
         1         0.3872     -0.2538      0.2714
         2         0.1855     -0.2960     -0.6631
         3        -0.2106     -0.0040     -0.2627
         4        -0.0177     -0.3135      0.0263
         5         0.2407     -0.4096     -0.5978
         6        -0.0673      0.1670      0.4682
         7        -0.0296     -0.0710     -0.3324
         8         0.0029     -0.2186     -0.2620
         9         0.4280      0.2905      0.0318
        10         0.0141      0.1345      0.2842
 Ground to excited state transition velocity quadrupole moments (Au):
       state          XX          YY          ZZ          XY          XZ          YZ
         1         0.1371      0.2126     -0.2029      0.1448      0.1734      0.0419
         2        -0.1823     -0.0044     -0.0927     -0.2083      0.0427     -0.0795
         3        -0.5316     -0.1709      0.2855     -0.2005     -0.0170     -0.0050
         4         0.0168      0.0476     -0.1095     -0.1050      0.1863      0.1001
         5        -0.6365      0.1984      0.0577     -0.4748      0.1036     -0.1261
         6         0.3715      0.0110      0.0095      0.1435     -0.0560      0.0078
         7         0.4267     -0.0812     -0.0998      0.0277     -0.0035     -0.0993
         8        -0.0494     -0.2562     -0.1521     -0.2130      0.1640      0.0477
         9        -0.4156      0.3749      0.1524      0.0494     -0.1367     -0.0018
        10        -0.1032      0.1217      0.0452      0.2574      0.1400     -0.0527
 <0|del|b> * <b|rxdel|0> + <0|del|b> * <b|delr+rdel|0>
 Rotatory Strengths (R) in cgs (10**-40 erg-esu-cm/Gauss)
       state          XX          YY          ZZ    R(velocity)    E-M Angle
         1       -17.8805    -34.9538    -18.1988    -23.6777      131.66
         2       -21.5749     -7.1272    -16.8868    -15.1963      129.20
         3       -14.9678      4.2094      7.0014     -1.2523       94.61
         4        10.0673     -6.6864     -7.8499     -1.4897       93.38
         5        20.1237    -12.6250     11.5637      6.3541       85.01
         6         9.4201      5.1516      1.2896      5.2871       29.45
         7        -6.3128      5.9319     -9.2539     -3.2116       98.93
         8        28.6388      2.0054      0.7386     10.4609       48.18
         9       -20.3898      6.5521     -1.2517     -5.0298      101.34
        10        -9.0932     -0.3908    -24.7769    -11.4203      126.51
 1/2[<0|r|b>*<b|rxdel|0> + (<0|rxdel|b>*<b|r|0>)*]
 Rotatory Strengths (R) in cgs (10**-40 erg-esu-cm/Gauss)
       state          XX          YY          ZZ     R(length)
         1       -46.3126     13.3235    -39.1266    -24.0386
         2        -9.2636    -21.8585     -8.6515    -13.2579
         3        10.8368      0.4116    -17.4532     -2.0683
         4        -2.5589      3.3484     -5.1495     -1.4534
         5       -30.5559     92.0337    -46.7518      4.9087
         6         1.2019      1.4961     13.5022      5.4000
         7         3.7972     -8.6880     -5.6398     -3.5102
         8        -0.1212     -3.5435     34.5928     10.3094
         9        12.4886    -30.9111      2.8945     -5.1760
        10        -0.0440    -23.4240     -7.9618    -10.4766
  1/2[<0|del|b>*<b|r|0> + (<0|r|b>*<b|del|0>)*] (Au)
       state          X           Y           Z        Dip. S.   Osc.(frdel)
         1        -0.0060     -0.0013     -0.0090      0.0164      0.0109
         2        -0.0012     -0.0026     -0.0001      0.0039      0.0026
         3        -0.0014     -0.0053     -0.0019      0.0086      0.0058
         4        -0.0099     -0.0001     -0.0179      0.0279      0.0186
         5        -0.0085     -0.0263     -0.0030      0.0378      0.0252
         6        -0.0002     -0.0000     -0.0004      0.0006      0.0004
         7        -0.0084     -0.0080     -0.0001      0.0165      0.0110
         8        -0.0010     -0.0001     -0.0088      0.0099      0.0066
         9        -0.0005     -0.0062     -0.0042      0.0110      0.0073
        10        -0.0000     -0.0164     -0.0005      0.0169      0.0113

 Excitation energies and oscillator strengths:
 
 Excited State   1:      Singlet-A      5.7637 eV  215.11 nm  f=0.0107  <S**2>=0.000
      45 -> 46         0.66831
      45 -> 47        -0.19421
 This state for optimization and/or second-order correction.
 Total Energy, E(TD-HF/TD-DFT) =  -541.200658325    
 Copying the excited state density for this state as the 1-particle RhoCI density.
 
 Excited State   2:      Singlet-A      6.2060 eV  199.78 nm  f=0.0025  <S**2>=0.000
      45 -> 46         0.17677
      45 -> 47         0.63033
      45 -> 48        -0.15108
      45 -> 49         0.11697
      45 -> 51         0.13544
 
 Excited State   3:      Singlet-A      6.4393 eV  192.54 nm  f=0.0055  <S**2>=0.000
      44 -> 46         0.15496
      44 -> 47         0.14082
      45 -> 47         0.13085
      45 -> 48         0.60236
      45 -> 49        -0.20378
 
 Excited State   4:      Singlet-A      6.4697 eV  191.64 nm  f=0.0188  <S**2>=0.000
      45 -> 48         0.23418
      45 -> 49         0.63506
      45 -> 52         0.11001
 
 Excited State   5:      Singlet-A      6.6349 eV  186.87 nm  f=0.0236  <S**2>=0.000
      44 -> 46         0.44000
      44 -> 47         0.40642
      44 -> 48         0.18843
      45 -> 47        -0.11854
      45 -> 48        -0.13899
      45 -> 50         0.15998
      45 -> 51        -0.13599
 
 Excited State   6:      Singlet-A      6.8180 eV  181.85 nm  f=0.0004  <S**2>=0.000
      44 -> 46        -0.17620
      45 -> 47         0.10253
      45 -> 48         0.12914
      45 -> 50         0.48298
      45 -> 51        -0.42799
 
 Excited State   7:      Singlet-A      6.9172 eV  179.24 nm  f=0.0108  <S**2>=0.000
      43 -> 46        -0.11645
      44 -> 47        -0.11175
      45 -> 47        -0.10798
      45 -> 50         0.43598
      45 -> 51         0.47447
      45 -> 54        -0.10013
 
 Excited State   8:      Singlet-A      7.0139 eV  176.77 nm  f=0.0067  <S**2>=0.000
      43 -> 46        -0.16598
      44 -> 46        -0.41494
      44 -> 47         0.44641
      45 -> 51         0.10633
      45 -> 52         0.23627
 
 Excited State   9:      Singlet-A      7.0692 eV  175.39 nm  f=0.0071  <S**2>=0.000
      43 -> 46         0.53126
      43 -> 47        -0.19618
      44 -> 46        -0.15945
      44 -> 47         0.17281
      45 -> 50         0.13945
      45 -> 51         0.13142
      45 -> 52        -0.20778
 
 Excited State  10:      Singlet-A      7.1200 eV  174.14 nm  f=0.0109  <S**2>=0.000
      43 -> 46         0.27333
      44 -> 46         0.13199
      44 -> 47        -0.10209
      44 -> 48        -0.10425
      45 -> 52         0.57605
      45 -> 54        -0.13578
 SavETr:  write IOETrn=   770 NScale= 10 NData=  16 NLR=1 NState=   10 LETran=     190.
          IDoAtm=11111111111111111111111111111
          Differentiating once with respect to electric field.
                with respect to dipole field.
          Differentiating once with respect to nuclear coordinates.
          There are     1 degrees of freedom in the 1st order CPHF.  IDoFFX=0 NUNeed=     1.
 LinEq1:  Iter=  0 NonCon=     1 RMS=8.26D-03 Max=1.54D-01 NDo=     1
 AX will form     1 AO Fock derivatives at one time.
 LinEq1:  Iter=  1 NonCon=     1 RMS=3.03D-03 Max=5.50D-02 NDo=     1
 LinEq1:  Iter=  2 NonCon=     1 RMS=1.76D-03 Max=3.89D-02 NDo=     1
 LinEq1:  Iter=  3 NonCon=     1 RMS=5.51D-04 Max=1.03D-02 NDo=     1
 LinEq1:  Iter=  4 NonCon=     1 RMS=2.51D-04 Max=3.54D-03 NDo=     1
 LinEq1:  Iter=  5 NonCon=     1 RMS=1.18D-04 Max=2.27D-03 NDo=     1
 LinEq1:  Iter=  6 NonCon=     1 RMS=5.02D-05 Max=9.36D-04 NDo=     1
 LinEq1:  Iter=  7 NonCon=     1 RMS=2.90D-05 Max=3.68D-04 NDo=     1
 LinEq1:  Iter=  8 NonCon=     1 RMS=1.15D-05 Max=2.22D-04 NDo=     1
 LinEq1:  Iter=  9 NonCon=     1 RMS=4.51D-06 Max=7.71D-05 NDo=     1
 LinEq1:  Iter= 10 NonCon=     1 RMS=2.04D-06 Max=3.25D-05 NDo=     1
 LinEq1:  Iter= 11 NonCon=     1 RMS=7.77D-07 Max=1.56D-05 NDo=     1
 LinEq1:  Iter= 12 NonCon=     1 RMS=2.83D-07 Max=5.24D-06 NDo=     1
 LinEq1:  Iter= 13 NonCon=     1 RMS=1.66D-07 Max=2.94D-06 NDo=     1
 LinEq1:  Iter= 14 NonCon=     1 RMS=8.53D-08 Max=1.80D-06 NDo=     1
 LinEq1:  Iter= 15 NonCon=     1 RMS=3.86D-08 Max=6.01D-07 NDo=     1
 LinEq1:  Iter= 16 NonCon=     1 RMS=1.66D-08 Max=2.89D-07 NDo=     1
 LinEq1:  Iter= 17 NonCon=     1 RMS=4.86D-09 Max=8.40D-08 NDo=     1
 LinEq1:  Iter= 18 NonCon=     1 RMS=1.79D-09 Max=2.56D-08 NDo=     1
 LinEq1:  Iter= 19 NonCon=     1 RMS=7.69D-10 Max=1.63D-08 NDo=     1
 LinEq1:  Iter= 20 NonCon=     1 RMS=1.84D-10 Max=2.42D-09 NDo=     1
 LinEq1:  Iter= 21 NonCon=     0 RMS=4.70D-11 Max=5.29D-10 NDo=     1
 Linear equations converged to 1.000D-10 1.000D-09 after    21 iterations.
 End of Minotr F.D. properties file   721 does not exist.
 End of Minotr F.D. properties file   722 does not exist.
 End of Minotr F.D. properties file   788 does not exist.

 **********************************************************************

            Population analysis using the SCF density.

 **********************************************************************

 Orbital symmetries:
       Occupied  (A) (A) (A) (A) (A) (A) (A) (A) (A) (A) (A) (A)
                 (A) (A) (A) (A) (A) (A) (A) (A) (A) (A) (A) (A)
                 (A) (A) (A) (A) (A) (A) (A) (A) (A) (A) (A) (A)
                 (A) (A) (A) (A) (A) (A) (A) (A) (A)
       Virtual   (A) (A) (A) (A) (A) (A) (A) (A) (A) (A) (A) (A)
                 (A) (A) (A) (A) (A) (A) (A) (A) (A) (A) (A) (A)
                 (A) (A) (A) (A) (A) (A) (A) (A) (A) (A) (A) (A)
                 (A) (A) (A) (A) (A) (A) (A) (A) (A) (A) (A) (A)
                 (A) (A) (A) (A) (A) (A) (A) (A) (A) (A) (A) (A)
                 (A) (A) (A) (A) (A) (A) (A) (A) (A) (A) (A) (A)
                 (A) (A) (A) (A) (A) (A) (A) (A) (A) (A) (A) (A)
                 (A) (A) (A) (A) (A) (A) (A) (A) (A) (A) (A) (A)
                 (A) (A) (A) (A) (A) (A) (A) (A) (A) (A) (A) (A)
                 (A) (A) (A) (A) (A) (A) (A) (A) (A) (A) (A) (A)
                 (A) (A) (A) (A) (A) (A) (A) (A) (A) (A) (A) (A)
                 (A) (A) (A) (A) (A) (A) (A) (A) (A) (A) (A) (A)
                 (A) (A) (A) (A) (A) (A) (A) (A) (A) (A) (A) (A)
                 (A) (A) (A) (A) (A) (A) (A) (A) (A) (A) (A) (A)
                 (A) (A) (A) (A) (A) (A) (A) (A) (A) (A) (A) (A)
                 (A) (A) (A) (A) (A) (A) (A) (A) (A) (A) (A) (A)
                 (A) (A) (A) (A) (A) (A) (A) (A) (A) (A) (A) (A)
                 (A) (A) (A) (A) (A) (A) (A) (A) (A) (A) (A) (A)
                 (A) (A) (A) (A) (A) (A) (A) (A) (A) (A) (A) (A)
                 (A) (A) (A) (A) (A) (A) (A) (A) (A) (A) (A) (A)
                 (A) (A) (A) (A) (A) (A) (A) (A) (A) (A) (A) (A)
                 (A) (A) (A) (A) (A) (A) (A) (A) (A) (A) (A) (A)
                 (A) (A) (A) (A) (A) (A) (A) (A) (A) (A) (A) (A)
                 (A) (A) (A) (A) (A) (A) (A) (A) (A) (A) (A) (A)
                 (A) (A) (A) (A) (A) (A) (A) (A) (A) (A) (A) (A)
                 (A) (A) (A) (A) (A) (A) (A) (A) (A) (A) (A) (A)
                 (A) (A) (A) (A) (A) (A) (A) (A) (A) (A) (A) (A)
                 (A) (A) (A) (A) (A) (A) (A) (A) (A) (A) (A) (A)
                 (A) (A) (A) (A) (A) (A) (A) (A) (A) (A) (A) (A)
                 (A) (A) (A) (A) (A) (A) (A) (A) (A) (A) (A) (A)
                 (A) (A) (A) (A) (A) (A) (A) (A) (A) (A) (A) (A)
                 (A) (A) (A) (A) (A) (A) (A) (A) (A) (A) (A) (A)
                 (A) (A) (A) (A) (A) (A) (A) (A) (A) (A) (A) (A)
                 (A)
 The electronic state is 1-A.
 Alpha  occ. eigenvalues --  -19.15729 -19.15078 -19.14714 -10.24193 -10.24185
 Alpha  occ. eigenvalues --  -10.23467 -10.22623 -10.19236 -10.19172 -10.18451
 Alpha  occ. eigenvalues --  -10.17585  -1.04435  -1.03000  -1.02732  -0.81529
 Alpha  occ. eigenvalues --   -0.77356  -0.73784  -0.70928  -0.66437  -0.62061
 Alpha  occ. eigenvalues --   -0.59986  -0.59192  -0.52742  -0.50411  -0.49179
 Alpha  occ. eigenvalues --   -0.48125  -0.47304  -0.44684  -0.44337  -0.43183
 Alpha  occ. eigenvalues --   -0.42842  -0.41456  -0.39462  -0.38230  -0.37975
 Alpha  occ. eigenvalues --   -0.36558  -0.35905  -0.35332  -0.34847  -0.33649
 Alpha  occ. eigenvalues --   -0.32752  -0.32358  -0.29897  -0.28177  -0.24953
 Alpha virt. eigenvalues --   -0.00624   0.00253   0.01356   0.01668   0.02614
 Alpha virt. eigenvalues --    0.02765   0.03718   0.04441   0.04981   0.05547
 Alpha virt. eigenvalues --    0.06334   0.06740   0.07102   0.07622   0.07982
 Alpha virt. eigenvalues --    0.08486   0.08868   0.09584   0.10617   0.10758
 Alpha virt. eigenvalues --    0.11414   0.11793   0.12329   0.13104   0.13970
 Alpha virt. eigenvalues --    0.15081   0.15562   0.16130   0.16514   0.16803
 Alpha virt. eigenvalues --    0.18205   0.18545   0.19392   0.19628   0.20450
 Alpha virt. eigenvalues --    0.20562   0.21168   0.21542   0.22076   0.22708
 Alpha virt. eigenvalues --    0.22850   0.23753   0.24182   0.24540   0.25419
 Alpha virt. eigenvalues --    0.25630   0.26349   0.26698   0.27606   0.28145
 Alpha virt. eigenvalues --    0.28477   0.28905   0.29866   0.30414   0.30983
 Alpha virt. eigenvalues --    0.31208   0.31575   0.32006   0.32429   0.34212
 Alpha virt. eigenvalues --    0.34396   0.34745   0.35480   0.36641   0.37412
 Alpha virt. eigenvalues --    0.38035   0.38800   0.40886   0.41756   0.43208
 Alpha virt. eigenvalues --    0.43632   0.44636   0.54265   0.55536   0.56254
 Alpha virt. eigenvalues --    0.57646   0.58481   0.59403   0.60988   0.61256
 Alpha virt. eigenvalues --    0.62905   0.63646   0.64509   0.65276   0.66178
 Alpha virt. eigenvalues --    0.67579   0.68565   0.69681   0.71096   0.71226
 Alpha virt. eigenvalues --    0.72098   0.73938   0.75768   0.76067   0.76720
 Alpha virt. eigenvalues --    0.78174   0.78824   0.80678   0.81108   0.82185
 Alpha virt. eigenvalues --    0.82629   0.83127   0.84189   0.85372   0.85650
 Alpha virt. eigenvalues --    0.87779   0.89895   0.90840   0.91604   0.92353
 Alpha virt. eigenvalues --    0.93177   0.94674   0.95125   0.96957   0.98233
 Alpha virt. eigenvalues --    1.00105   1.00397   1.01319   1.02515   1.02867
 Alpha virt. eigenvalues --    1.03730   1.06144   1.06627   1.08558   1.09875
 Alpha virt. eigenvalues --    1.11138   1.12391   1.13799   1.14617   1.16398
 Alpha virt. eigenvalues --    1.16803   1.17873   1.19694   1.21467   1.22715
 Alpha virt. eigenvalues --    1.23777   1.26258   1.27054   1.28383   1.30338
 Alpha virt. eigenvalues --    1.31165   1.31400   1.31911   1.35058   1.36564
 Alpha virt. eigenvalues --    1.37004   1.39955   1.41263   1.43270   1.43846
 Alpha virt. eigenvalues --    1.45513   1.47450   1.48312   1.51014   1.51804
 Alpha virt. eigenvalues --    1.54302   1.55604   1.56507   1.59370   1.60000
 Alpha virt. eigenvalues --    1.60536   1.62377   1.64539   1.66236   1.68503
 Alpha virt. eigenvalues --    1.69747   1.70091   1.74310   1.75878   1.77453
 Alpha virt. eigenvalues --    1.78859   1.80066   1.81963   1.83205   1.84265
 Alpha virt. eigenvalues --    1.86435   1.87257   1.89390   1.90496   1.92720
 Alpha virt. eigenvalues --    1.95048   1.95969   1.96770   1.98215   2.00317
 Alpha virt. eigenvalues --    2.03162   2.03662   2.12301   2.16073   2.16726
 Alpha virt. eigenvalues --    2.17592   2.20201   2.22482   2.26796   2.28686
 Alpha virt. eigenvalues --    2.29816   2.30279   2.31966   2.34457   2.37006
 Alpha virt. eigenvalues --    2.39671   2.40211   2.42377   2.46735   2.47136
 Alpha virt. eigenvalues --    2.51074   2.51793   2.53807   2.54612   2.58262
 Alpha virt. eigenvalues --    2.60820   2.62985   2.64429   2.68409   2.71323
 Alpha virt. eigenvalues --    2.76020   2.76538   2.78666   2.80260   2.80869
 Alpha virt. eigenvalues --    2.81229   2.82292   2.84217   2.85092   2.86220
 Alpha virt. eigenvalues --    2.88615   2.89203   2.90699   2.91567   2.91782
 Alpha virt. eigenvalues --    2.94963   2.95768   2.96602   2.97833   2.98232
 Alpha virt. eigenvalues --    3.00483   3.00901   3.01693   3.02537   3.03342
 Alpha virt. eigenvalues --    3.03989   3.06115   3.08523   3.09235   3.12054
 Alpha virt. eigenvalues --    3.15342   3.17765   3.19396   3.22588   3.24347
 Alpha virt. eigenvalues --    3.25767   3.27527   3.30494   3.33736   3.36676
 Alpha virt. eigenvalues --    3.37568   3.38655   3.40599   3.40709   3.41960
 Alpha virt. eigenvalues --    3.46567   3.47968   3.48830   3.51395   3.51984
 Alpha virt. eigenvalues --    3.54535   3.56153   3.56664   3.58470   3.60222
 Alpha virt. eigenvalues --    3.62874   3.65879   3.66286   3.68170   3.70150
 Alpha virt. eigenvalues --    3.71586   3.73453   3.75247   3.75645   3.78976
 Alpha virt. eigenvalues --    3.80273   3.84468   3.87246   3.93287   3.94013
 Alpha virt. eigenvalues --    3.95524   3.96835   4.01579   4.05917   4.08640
 Alpha virt. eigenvalues --    4.11186   4.16786   4.18182   4.21417   4.26051
 Alpha virt. eigenvalues --    4.29927   4.32526   4.33451   4.34027   4.36729
 Alpha virt. eigenvalues --    4.39086   4.42687   4.42961   4.44243   4.45023
 Alpha virt. eigenvalues --    4.45806   4.47898   4.48498   4.49869   4.50665
 Alpha virt. eigenvalues --    4.51749   4.53167   4.53638   4.53985   4.56660
 Alpha virt. eigenvalues --    4.58996   4.59570   4.61379   4.62098   4.62969
 Alpha virt. eigenvalues --    4.65084   4.66121   4.66902   4.67120   4.69641
 Alpha virt. eigenvalues --    4.70034   4.70785   4.71949   4.74496   4.75298
 Alpha virt. eigenvalues --    4.75567   4.76440   4.78129   4.79605   4.81161
 Alpha virt. eigenvalues --    4.82324   4.83909   4.84953   4.85565   4.87752
 Alpha virt. eigenvalues --    4.88991   4.89314   4.89664   4.92797   4.93829
 Alpha virt. eigenvalues --    4.95798   4.99131   5.02488   5.05828   5.14103
 Alpha virt. eigenvalues --    5.15928   5.19411   5.25098   5.28015   5.29642
 Alpha virt. eigenvalues --    5.33492   5.37259   5.40259   5.42720   5.43355
 Alpha virt. eigenvalues --    5.45726   5.47905   5.48680   5.49979   5.52818
 Alpha virt. eigenvalues --    5.55851   5.59970   5.66003   5.68010   5.79002
 Alpha virt. eigenvalues --    5.86410   5.88258   5.93467   5.98190   6.00433
 Alpha virt. eigenvalues --    6.05129   6.07023   6.09941   6.12092   6.15949
 Alpha virt. eigenvalues --    6.24108   6.34666   6.57949   7.09889   7.11761
 Alpha virt. eigenvalues --    7.27058  11.54874  11.57257  11.85804  12.04000
 Alpha virt. eigenvalues --   12.38576  12.47352  12.61011  12.78933  13.29899
 Alpha virt. eigenvalues --   13.35724  13.77168
          Condensed to atoms (all electrons):
               1          2          3          4          5          6
     1  C    5.494493  -0.015761  -0.044846  -0.017160  -0.005228   0.016397
     2  C   -0.015761   5.586008   0.161688   0.006746   0.036490  -0.031187
     3  O   -0.044846   0.161688   7.895360   0.396581  -0.088731   0.003500
     4  C   -0.017160   0.006746   0.396581   6.764450   0.107791   0.002006
     5  C   -0.005228   0.036490  -0.088731   0.107791   5.524173   0.147348
     6  O    0.016397  -0.031187   0.003500   0.002006   0.147348   8.089596
     7  C   -0.050033  -0.189632  -0.178644  -1.021859  -0.275462   0.012071
     8  C    0.001135  -0.018553   0.016875   0.201427   0.036391   0.001349
     9  C    0.003328  -0.017202  -0.003165  -0.437789   0.007677  -0.001544
    10  C   -0.000391  -0.000181  -0.003279   0.014114  -0.005661   0.000232
    11  O   -0.000004   0.000112  -0.000038   0.015675  -0.002911  -0.000038
    12  H    0.413835  -0.057638   0.003771  -0.000544   0.000448  -0.000017
    13  H    0.455231  -0.096253  -0.005174   0.013679  -0.000520   0.000051
    14  H    0.453722  -0.087626   0.000215   0.000334   0.001134  -0.000035
    15  H    0.022855   0.387262  -0.025518  -0.042563   0.013648  -0.011704
    16  H    0.003892   0.345002  -0.056621   0.039240  -0.005092   0.000652
    17  H   -0.007625  -0.044632  -0.035708   0.210239  -0.032920  -0.010469
    18  H    0.000020  -0.000301   0.000473   0.012279   0.324306  -0.028523
    19  H    0.000883  -0.025335  -0.002682  -0.202815   0.462787  -0.048854
    20  H   -0.000623  -0.012214  -0.000618  -0.028542   0.001435   0.260480
    21  H   -0.004086   0.002695  -0.003387  -0.002961  -0.008064  -0.000496
    22  H   -0.001498   0.001262   0.003335  -0.055778   0.033341   0.000254
    23  H   -0.000057   0.000789   0.000018   0.012804  -0.027273  -0.000095
    24  H    0.000163   0.003408   0.001265   0.048103   0.011882   0.000073
    25  H    0.000023   0.000177   0.000013   0.011648  -0.000251   0.000008
    26  H    0.000005   0.000073   0.000001   0.007809   0.000164  -0.000000
    27  H   -0.000057  -0.000057   0.000023   0.005673  -0.000576   0.000000
    28  H   -0.000003  -0.000030   0.000006  -0.002400   0.000317   0.000000
    29  H    0.000001   0.000017   0.000003   0.000395   0.000382   0.000000
               7          8          9         10         11         12
     1  C   -0.050033   0.001135   0.003328  -0.000391  -0.000004   0.413835
     2  C   -0.189632  -0.018553  -0.017202  -0.000181   0.000112  -0.057638
     3  O   -0.178644   0.016875  -0.003165  -0.003279  -0.000038   0.003771
     4  C   -1.021859   0.201427  -0.437789   0.014114   0.015675  -0.000544
     5  C   -0.275462   0.036391   0.007677  -0.005661  -0.002911   0.000448
     6  O    0.012071   0.001349  -0.001544   0.000232  -0.000038  -0.000017
     7  C    7.306485  -0.351187   0.321673  -0.016950  -0.005532   0.000320
     8  C   -0.351187   6.221631  -0.357736   0.040058   0.016777   0.000196
     9  C    0.321673  -0.357736   5.929945   0.026164   0.114487   0.000009
    10  C   -0.016950   0.040058   0.026164   5.414901   0.002929  -0.000003
    11  O   -0.005532   0.016777   0.114487   0.002929   8.067968  -0.000000
    12  H    0.000320   0.000196   0.000009  -0.000003  -0.000000   0.535485
    13  H   -0.006087   0.000336   0.000009   0.000002   0.000000  -0.026430
    14  H   -0.006014  -0.000258  -0.000009  -0.000005   0.000000  -0.027327
    15  H   -0.016508  -0.001666  -0.000192  -0.000036  -0.000000  -0.000795
    16  H   -0.025462   0.007032   0.000315   0.000060   0.000000  -0.001120
    17  H    0.107615   0.029656   0.017400  -0.001592   0.000075   0.000001
    18  H   -0.002486  -0.002223   0.004299  -0.000546  -0.000090  -0.000000
    19  H    0.120657   0.005959   0.008437  -0.000150   0.000013   0.000000
    20  H    0.027662  -0.004702   0.000108   0.000048   0.000001  -0.000000
    21  H    0.385781  -0.032090  -0.015630   0.002279   0.000117   0.000001
    22  H    0.345705   0.004833  -0.025190  -0.005661   0.000405  -0.000000
    23  H   -0.003517   0.355380  -0.031379   0.009997   0.000732  -0.000000
    24  H   -0.109368   0.405027  -0.049878  -0.006450  -0.004146  -0.000000
    25  H    0.022362  -0.082365   0.377513  -0.027793  -0.046189  -0.000000
    26  H   -0.008267   0.026378  -0.081180   0.409465  -0.005930  -0.000000
    27  H   -0.005799   0.022173  -0.062854   0.401305   0.003705   0.000000
    28  H   -0.000071   0.002566  -0.061556   0.426200  -0.000038   0.000000
    29  H    0.008794  -0.059522   0.067062  -0.030301   0.248829  -0.000000
              13         14         15         16         17         18
     1  C    0.455231   0.453722   0.022855   0.003892  -0.007625   0.000020
     2  C   -0.096253  -0.087626   0.387262   0.345002  -0.044632  -0.000301
     3  O   -0.005174   0.000215  -0.025518  -0.056621  -0.035708   0.000473
     4  C    0.013679   0.000334  -0.042563   0.039240   0.210239   0.012279
     5  C   -0.000520   0.001134   0.013648  -0.005092  -0.032920   0.324306
     6  O    0.000051  -0.000035  -0.011704   0.000652  -0.010469  -0.028523
     7  C   -0.006087  -0.006014  -0.016508  -0.025462   0.107615  -0.002486
     8  C    0.000336  -0.000258  -0.001666   0.007032   0.029656  -0.002223
     9  C    0.000009  -0.000009  -0.000192   0.000315   0.017400   0.004299
    10  C    0.000002  -0.000005  -0.000036   0.000060  -0.001592  -0.000546
    11  O    0.000000   0.000000  -0.000000   0.000000   0.000075  -0.000090
    12  H   -0.026430  -0.027327  -0.000795  -0.001120   0.000001  -0.000000
    13  H    0.519927  -0.028701  -0.004981   0.004608   0.000006   0.000000
    14  H   -0.028701   0.524823   0.004158  -0.005211  -0.000029  -0.000000
    15  H   -0.004981   0.004158   0.552601  -0.048571  -0.001734  -0.000185
    16  H    0.004608  -0.005211  -0.048571   0.614392   0.008457   0.000026
    17  H    0.000006  -0.000029  -0.001734   0.008457   0.652338   0.000432
    18  H    0.000000  -0.000000  -0.000185   0.000026   0.000432   0.599390
    19  H   -0.000012   0.000000   0.000218  -0.000018   0.005026  -0.036150
    20  H   -0.000001  -0.000000  -0.000317  -0.000117   0.003606  -0.006542
    21  H   -0.000001   0.000004  -0.000004  -0.000005  -0.002121   0.000018
    22  H   -0.000001   0.000000   0.000002  -0.000006   0.005206  -0.000582
    23  H   -0.000000  -0.000000  -0.000001  -0.000000  -0.000598   0.003371
    24  H   -0.000000   0.000000   0.000000  -0.000008   0.002778  -0.000031
    25  H   -0.000000  -0.000000  -0.000000  -0.000000  -0.000001   0.000018
    26  H   -0.000000   0.000000   0.000000  -0.000000   0.000001  -0.000000
    27  H   -0.000000   0.000000   0.000000  -0.000000   0.000007  -0.000001
    28  H    0.000000   0.000000   0.000000   0.000000   0.000000  -0.000000
    29  H    0.000000  -0.000000  -0.000000  -0.000000  -0.000001   0.000002
              19         20         21         22         23         24
     1  C    0.000883  -0.000623  -0.004086  -0.001498  -0.000057   0.000163
     2  C   -0.025335  -0.012214   0.002695   0.001262   0.000789   0.003408
     3  O   -0.002682  -0.000618  -0.003387   0.003335   0.000018   0.001265
     4  C   -0.202815  -0.028542  -0.002961  -0.055778   0.012804   0.048103
     5  C    0.462787   0.001435  -0.008064   0.033341  -0.027273   0.011882
     6  O   -0.048854   0.260480  -0.000496   0.000254  -0.000095   0.000073
     7  C    0.120657   0.027662   0.385781   0.345705  -0.003517  -0.109368
     8  C    0.005959  -0.004702  -0.032090   0.004833   0.355380   0.405027
     9  C    0.008437   0.000108  -0.015630  -0.025190  -0.031379  -0.049878
    10  C   -0.000150   0.000048   0.002279  -0.005661   0.009997  -0.006450
    11  O    0.000013   0.000001   0.000117   0.000405   0.000732  -0.004146
    12  H    0.000000  -0.000000   0.000001  -0.000000  -0.000000  -0.000000
    13  H   -0.000012  -0.000001  -0.000001  -0.000001  -0.000000  -0.000000
    14  H    0.000000  -0.000000   0.000004   0.000000  -0.000000   0.000000
    15  H    0.000218  -0.000317  -0.000004   0.000002  -0.000001   0.000000
    16  H   -0.000018  -0.000117  -0.000005  -0.000006  -0.000000  -0.000008
    17  H    0.005026   0.003606  -0.002121   0.005206  -0.000598   0.002778
    18  H   -0.036150  -0.006542   0.000018  -0.000582   0.003371  -0.000031
    19  H    0.542354   0.006654  -0.000122   0.002209   0.000036  -0.000011
    20  H    0.006654   0.428805  -0.000004   0.000004   0.000018  -0.000002
    21  H   -0.000122  -0.000004   0.546950  -0.031983   0.004727  -0.005142
    22  H    0.002209   0.000004  -0.031983   0.570895  -0.004095   0.005212
    23  H    0.000036   0.000018   0.004727  -0.004095   0.565592  -0.035774
    24  H   -0.000011  -0.000002  -0.005142   0.005212  -0.035774   0.585129
    25  H   -0.000004  -0.000000  -0.000127   0.003122  -0.003976   0.005327
    26  H    0.000000  -0.000000   0.000165   0.000053   0.000026   0.002689
    27  H    0.000000   0.000000   0.000454   0.000178  -0.000023  -0.000055
    28  H   -0.000000  -0.000000   0.000008  -0.000001  -0.000117   0.000021
    29  H   -0.000000  -0.000000   0.000005   0.000002  -0.000549   0.002764
              25         26         27         28         29
     1  C    0.000023   0.000005  -0.000057  -0.000003   0.000001
     2  C    0.000177   0.000073  -0.000057  -0.000030   0.000017
     3  O    0.000013   0.000001   0.000023   0.000006   0.000003
     4  C    0.011648   0.007809   0.005673  -0.002400   0.000395
     5  C   -0.000251   0.000164  -0.000576   0.000317   0.000382
     6  O    0.000008  -0.000000   0.000000   0.000000   0.000000
     7  C    0.022362  -0.008267  -0.005799  -0.000071   0.008794
     8  C   -0.082365   0.026378   0.022173   0.002566  -0.059522
     9  C    0.377513  -0.081180  -0.062854  -0.061556   0.067062
    10  C   -0.027793   0.409465   0.401305   0.426200  -0.030301
    11  O   -0.046189  -0.005930   0.003705  -0.000038   0.248829
    12  H   -0.000000  -0.000000   0.000000   0.000000  -0.000000
    13  H   -0.000000  -0.000000  -0.000000   0.000000   0.000000
    14  H   -0.000000   0.000000   0.000000   0.000000  -0.000000
    15  H   -0.000000   0.000000   0.000000   0.000000  -0.000000
    16  H   -0.000000  -0.000000  -0.000000   0.000000  -0.000000
    17  H   -0.000001   0.000001   0.000007   0.000000  -0.000001
    18  H    0.000018  -0.000000  -0.000001  -0.000000   0.000002
    19  H   -0.000004   0.000000   0.000000  -0.000000  -0.000000
    20  H   -0.000000  -0.000000   0.000000  -0.000000  -0.000000
    21  H   -0.000127   0.000165   0.000454   0.000008   0.000005
    22  H    0.003122   0.000053   0.000178  -0.000001   0.000002
    23  H   -0.003976   0.000026  -0.000023  -0.000117  -0.000549
    24  H    0.005327   0.002689  -0.000055   0.000021   0.002764
    25  H    0.609687   0.004773  -0.001779  -0.003407   0.007416
    26  H    0.004773   0.539871  -0.028979  -0.028393   0.002801
    27  H   -0.001779  -0.028979   0.520748  -0.025215   0.000008
    28  H   -0.003407  -0.028393  -0.025215   0.511120  -0.000760
    29  H    0.007416   0.002801   0.000008  -0.000760   0.436491
 Mulliken charges:
               1
     1  C   -0.718613
     2  C    0.064874
     3  O   -0.034716
     4  C   -0.058579
     5  C   -0.257026
     6  O   -0.401053
     7  C   -0.386251
     8  C   -0.484877
     9  C    0.266878
    10  C   -0.648755
    11  O   -0.406910
    12  H    0.159808
    13  H    0.174312
    14  H    0.170824
    15  H    0.174030
    16  H    0.118557
    17  H    0.094586
    18  H    0.133026
    19  H    0.160918
    20  H    0.324863
    21  H    0.163018
    22  H    0.148777
    23  H    0.153968
    24  H    0.137024
    25  H    0.123805
    26  H    0.158477
    27  H    0.171121
    28  H    0.181752
    29  H    0.316161
 Sum of Mulliken charges =  -0.00000
 Mulliken charges with hydrogens summed into heavy atoms:
               1
     1  C   -0.213669
     2  C    0.357460
     3  O   -0.034716
     4  C    0.036007
     5  C    0.036918
     6  O   -0.076190
     7  C   -0.074456
     8  C   -0.193885
     9  C    0.390683
    10  C   -0.137405
    11  O   -0.090748
 Electronic spatial extent (au):  <R**2>=           3131.5684
 Charge=             -0.0000 electrons
 Dipole moment (field-independent basis, Debye):
    X=              0.0673    Y=              0.8191    Z=              2.2127  Tot=              2.3604
 Quadrupole moment (field-independent basis, Debye-Ang):
   XX=            -81.1841   YY=            -74.5834   ZZ=            -65.9230
   XY=              2.1274   XZ=             -0.0294   YZ=             -2.0758
 Traceless Quadrupole moment (field-independent basis, Debye-Ang):
   XX=             -7.2873   YY=             -0.6866   ZZ=              7.9738
   XY=              2.1274   XZ=             -0.0294   YZ=             -2.0758
 Octapole moment (field-independent basis, Debye-Ang**2):
  XXX=            -46.8545  YYY=             -2.9389  ZZZ=              4.4016  XYY=              5.9359
  XXY=             31.9390  XXZ=             24.0714  XZZ=              7.5447  YZZ=             -9.9683
  YYZ=              8.9240  XYZ=              2.7380
 Hexadecapole moment (field-independent basis, Debye-Ang**3):
 XXXX=          -3384.7976 YYYY=           -818.7304 ZZZZ=           -174.7597 XXXY=             55.6862
 XXXZ=             62.2325 YYYX=            -14.5857 YYYZ=            -27.8459 ZZZX=             19.5216
 ZZZY=             -7.0404 XXYY=           -717.7076 XXZZ=           -496.8293 YYZZ=           -150.1292
 XXYZ=            -19.2364 YYXZ=            -19.7032 ZZXY=              9.2935
 N-N= 6.633832502655D+02 E-N=-2.589099385713D+03  KE= 5.372755145175D+02
 PrsmSu:  requested number of processors reduced to:  13 ShMem   1 Linda.
 Calling FoFJK, ICntrl=  10005127 FMM=F ISym2X=0 I1Cent= 0 IOpClX= 0 NMat=1 NMatS=1 NMatT=0.
 ***** Axes restored to original set *****
 -------------------------------------------------------------------
 Center     Atomic                   Forces (Hartrees/Bohr)
 Number     Number              X              Y              Z
 -------------------------------------------------------------------
      1        6           0.001715988   -0.000009053   -0.005117533
      2        6          -0.001215851   -0.028530314    0.011551614
      3        8           0.004933102    0.025736993    0.000777256
      4        6          -0.019514212   -0.030921734    0.030994653
      5        6           0.035538770    0.029440760   -0.019460406
      6        8          -0.009864363   -0.028143297   -0.047915846
      7        6          -0.003090550   -0.000377604   -0.009894604
      8        6           0.002877086    0.002817094    0.005839195
      9        6          -0.000758579   -0.001899269   -0.005575668
     10        6          -0.000268121    0.000053684    0.001444440
     11        8           0.003285079   -0.001886767   -0.000465779
     12        1          -0.001084030    0.001247758    0.000456444
     13        1           0.001023043   -0.000621802   -0.000091574
     14        1           0.000299905    0.000504827    0.001011253
     15        1          -0.004382752    0.012639309   -0.003766791
     16        1          -0.001556414    0.006656612   -0.005281103
     17        1           0.004998750    0.003420824   -0.007313704
     18        1          -0.001129354   -0.005945057    0.010141652
     19        1          -0.000822074    0.000759548   -0.000232512
     20        1          -0.009927463    0.012326674    0.041919244
     21        1          -0.000383049    0.000296162    0.000391762
     22        1          -0.000190207   -0.000421802   -0.001393664
     23        1           0.000408667    0.000237413    0.001310432
     24        1           0.000812330    0.001350130   -0.000312458
     25        1          -0.000302768    0.000084902   -0.000338927
     26        1          -0.000052254    0.000037370    0.000090725
     27        1           0.000307354   -0.000379466   -0.000738564
     28        1          -0.000049709   -0.000188118   -0.000452174
     29        1          -0.001608328    0.001714224    0.002422639
 -------------------------------------------------------------------
 Cartesian Forces:  Max     0.047915846 RMS     0.011937848

 GradGradGradGradGradGradGradGradGradGradGradGradGradGradGradGradGradGrad
 Berny optimization.
 FormGI is forming the generalized inverse of G from B-inverse, IUseBI=4.
 Internal  Forces:  Max     0.044661273 RMS     0.005771201
 Search for a local minimum.
 Step number   1 out of a maximum of  155
 All quantities printed in internal units (Hartrees-Bohrs-Radians)
 Mixed Optimization -- RFO/linear search
 Second derivative matrix not updated -- first step.
 ITU=  0
     Eigenvalues ---    0.00283   0.00283   0.00300   0.00325   0.00380
     Eigenvalues ---    0.00503   0.01342   0.01414   0.01414   0.01462
     Eigenvalues ---    0.03316   0.03323   0.03880   0.04367   0.04568
     Eigenvalues ---    0.04661   0.04737   0.04741   0.04815   0.05338
     Eigenvalues ---    0.05475   0.05651   0.05682   0.05719   0.05871
     Eigenvalues ---    0.05885   0.07264   0.07672   0.08596   0.08619
     Eigenvalues ---    0.11203   0.11824   0.12393   0.12407   0.13652
     Eigenvalues ---    0.14104   0.16000   0.16000   0.16000   0.16000
     Eigenvalues ---    0.16000   0.16000   0.16000   0.16000   0.16491
     Eigenvalues ---    0.17430   0.19836   0.20203   0.21934   0.21936
     Eigenvalues ---    0.21939   0.22094   0.25000   0.28828   0.28833
     Eigenvalues ---    0.28946   0.29116   0.29496   0.30379   0.32902
     Eigenvalues ---    0.33244   0.33594   0.33619   0.33837   0.33915
     Eigenvalues ---    0.33953   0.34136   0.34152   0.34248   0.34316
     Eigenvalues ---    0.34361   0.34363   0.34367   0.34387   0.34442
     Eigenvalues ---    0.41506   0.42306   0.42315   0.42853   0.54682
     Eigenvalues ---    0.54916
 RFO step:  Lambda=-1.93150069D-02 EMin= 2.82664916D-03
 Linear search not attempted -- first point.
 Iteration  1 RMS(Cart)=  0.12070876 RMS(Int)=  0.00466337
 Iteration  2 RMS(Cart)=  0.00828908 RMS(Int)=  0.00074438
 Iteration  3 RMS(Cart)=  0.00002072 RMS(Int)=  0.00074421
 Iteration  4 RMS(Cart)=  0.00000005 RMS(Int)=  0.00074421
 Variable       Old X    -DE/DX   Delta X   Delta X   Delta X     New X
                                 (Linear)    (Quad)   (Total)
    R1        2.87214   0.00115   0.00000   0.00355   0.00355   2.87570
    R2        2.06801  -0.00073   0.00000  -0.00202  -0.00202   2.06598
    R3        2.06715   0.00027   0.00000   0.00075   0.00075   2.06790
    R4        2.06726  -0.00036   0.00000  -0.00099  -0.00099   2.06626
    R5        2.68524  -0.00538   0.00000  -0.01216  -0.01216   2.67308
    R6        2.07102   0.00929   0.00000   0.02574   0.02574   2.09676
    R7        2.08626  -0.00500   0.00000  -0.01422  -0.01422   2.07204
    R8        2.67851  -0.01186   0.00000  -0.02649  -0.02649   2.65202
    R9        2.90115   0.01618   0.00000   0.05240   0.05240   2.95355
   R10        2.90363   0.00104   0.00000   0.00338   0.00338   2.90701
   R11        2.09224  -0.00713   0.00000  -0.02047  -0.02047   2.07177
   R12        2.68536  -0.02537   0.00000  -0.05735  -0.05735   2.62801
   R13        2.07977  -0.00186   0.00000  -0.00524  -0.00524   2.07454
   R14        2.06913  -0.00005   0.00000  -0.00013  -0.00013   2.06900
   R15        1.81906   0.04466   0.00000   0.07856   0.07856   1.89763
   R16        2.89761  -0.00148   0.00000  -0.00476  -0.00476   2.89285
   R17        2.06682  -0.00024   0.00000  -0.00067  -0.00067   2.06615
   R18        2.07606   0.00134   0.00000   0.00374   0.00374   2.07980
   R19        2.90353   0.00158   0.00000   0.00514   0.00514   2.90868
   R20        2.07074   0.00014   0.00000   0.00038   0.00038   2.07112
   R21        2.08020  -0.00056   0.00000  -0.00157  -0.00157   2.07864
   R22        2.88980   0.00052   0.00000   0.00166   0.00166   2.89145
   R23        2.69557  -0.00060   0.00000  -0.00138  -0.00138   2.69419
   R24        2.07410   0.00036   0.00000   0.00099   0.00099   2.07509
   R25        2.07475   0.00008   0.00000   0.00022   0.00022   2.07496
   R26        2.06722   0.00077   0.00000   0.00213   0.00213   2.06936
   R27        2.06591   0.00024   0.00000   0.00067   0.00067   2.06657
   R28        1.82116   0.00211   0.00000   0.00372   0.00372   1.82488
    A1        1.92599  -0.00272   0.00000  -0.01821  -0.01823   1.90776
    A2        1.92848   0.00225   0.00000   0.01531   0.01531   1.94379
    A3        1.93282  -0.00043   0.00000  -0.00211  -0.00220   1.93062
    A4        1.89148   0.00015   0.00000   0.00026   0.00034   1.89182
    A5        1.89604   0.00076   0.00000  -0.00102  -0.00113   1.89491
    A6        1.88792   0.00004   0.00000   0.00604   0.00598   1.89389
    A7        1.88244   0.00993   0.00000   0.04342   0.04259   1.92503
    A8        1.93854   0.00393   0.00000   0.02758   0.02797   1.96651
    A9        1.92578   0.00506   0.00000   0.05915   0.05782   1.98360
   A10        1.93418  -0.01162   0.00000  -0.09377  -0.09396   1.84022
   A11        1.91239  -0.00464   0.00000  -0.01192  -0.01488   1.89752
   A12        1.87083  -0.00290   0.00000  -0.02508  -0.02744   1.84339
   A13        2.03277  -0.00641   0.00000  -0.02381  -0.02381   2.00896
   A14        1.95497  -0.01454   0.00000  -0.10302  -0.10313   1.85185
   A15        1.85808   0.01071   0.00000   0.05240   0.05077   1.90885
   A16        1.90669   0.00096   0.00000   0.00475   0.00032   1.90702
   A17        1.94829   0.00017   0.00000  -0.00171  -0.00085   1.94745
   A18        1.89377   0.00103   0.00000  -0.00809  -0.00940   1.88437
   A19        1.90110   0.00209   0.00000   0.06060   0.05967   1.96077
   A20        1.99582  -0.00607   0.00000  -0.03261  -0.03376   1.96205
   A21        1.91570  -0.00776   0.00000  -0.06622  -0.06722   1.84848
   A22        1.88536   0.00398   0.00000   0.03337   0.03406   1.91941
   A23        1.93313   0.00539   0.00000   0.00866   0.00549   1.93862
   A24        1.84801   0.00197   0.00000   0.02444   0.02460   1.87261
   A25        1.88070   0.00350   0.00000   0.04208   0.04262   1.92332
   A26        1.88290   0.00261   0.00000   0.01454   0.01454   1.89744
   A27        1.99573  -0.00750   0.00000  -0.03343  -0.03344   1.96228
   A28        1.85793   0.00239   0.00000   0.00635   0.00616   1.86409
   A29        1.90171   0.00265   0.00000   0.01335   0.01341   1.91513
   A30        1.92661   0.00156   0.00000   0.00141   0.00129   1.92790
   A31        1.91968   0.00245   0.00000   0.01223   0.01233   1.93201
   A32        1.85620  -0.00116   0.00000   0.00232   0.00221   1.85842
   A33        1.99853  -0.00493   0.00000  -0.01998  -0.01994   1.97859
[...]
   D36        2.89875   0.00146  -0.03284  -0.08888  -0.12070   2.77805
   D37        3.06557   0.00008  -0.00103   0.00135   0.00032   3.06589
   D38        0.95807   0.00003  -0.00108  -0.00008  -0.00115   0.95692
   D39       -1.07657  -0.00007  -0.00046  -0.00296  -0.00342  -1.07999
   D40       -1.13954   0.00034  -0.00168   0.00466   0.00297  -1.13656
   D41        3.03615   0.00029  -0.00173   0.00323   0.00150   3.03765
   D42        1.00150   0.00018  -0.00111   0.00035  -0.00076   1.00074
   D43        0.92425  -0.00021   0.00104  -0.00099   0.00006   0.92431
   D44       -1.18325  -0.00026   0.00099  -0.00242  -0.00142  -1.18466
   D45        3.06529  -0.00036   0.00161  -0.00530  -0.00368   3.06161
   D46        1.13908   0.00007   0.00173   0.00485   0.00657   1.14565
   D47       -2.95321  -0.00014   0.00368   0.00463   0.00831  -2.94490
   D48       -0.98133   0.00002   0.00222   0.00564   0.00786  -0.97347
   D49       -3.00089   0.00009   0.00148   0.00573   0.00720  -2.99368
   D50       -0.80999  -0.00013   0.00343   0.00551   0.00895  -0.80104
   D51        1.16189   0.00004   0.00197   0.00652   0.00849   1.17038
   D52       -1.00359   0.00022   0.00142   0.00923   0.01065  -0.99294
   D53        1.18731   0.00001   0.00337   0.00902   0.01239   1.19970
   D54       -3.12400   0.00017   0.00191   0.01003   0.01194  -3.11206
   D55        1.00221   0.00006   0.00104   0.00267   0.00371   1.00591
   D56       -1.09961   0.00007   0.00008   0.00167   0.00175  -1.09786
   D57        3.09027   0.00006   0.00125   0.00280   0.00404   3.09431
   D58       -1.17910   0.00001  -0.00190  -0.00039  -0.00230  -1.18139
   D59        3.00227   0.00001  -0.00286  -0.00140  -0.00425   2.99802
   D60        0.90896   0.00001  -0.00169  -0.00027  -0.00196   0.90700
   D61        3.11924  -0.00005   0.00022  -0.00019   0.00002   3.11926
   D62        1.01742  -0.00005  -0.00073  -0.00120  -0.00193   1.01549
   D63       -1.07589  -0.00005   0.00043  -0.00007   0.00036  -1.07553
   D64       -1.14750   0.00023   0.00310   0.01473   0.01782  -1.12968
   D65        1.07041   0.00009   0.00503   0.01494   0.01997   1.09038
   D66        3.11075   0.00022   0.00396   0.01558   0.01954   3.13028
         Item               Value     Threshold  Converged?
 Maximum Force            0.011924     0.000450     NO 
 RMS     Force            0.001702     0.000300     NO 
 Maximum Displacement     0.274880     0.001800     NO 
 RMS     Displacement     0.059017     0.001200     NO 
 Predicted change in Energy=-2.631521D-03
 GradGradGradGradGradGradGradGradGradGradGradGradGradGradGradGradGradGrad

                          Input orientation:                          
 ---------------------------------------------------------------------
 Center     Atomic      Atomic             Coordinates (Angstroms)
 Number     Number       Type             X           Y           Z
 ---------------------------------------------------------------------
      1          6           0        4.025972   -1.616403   -0.027820
      2          6           0        2.988777   -0.673154    0.519407
      3          8           0        1.784403   -0.766445   -0.211203
      4          6           0        0.761639    0.103394    0.163112
      5          6           0        1.185331    1.523924   -0.545112
      6          8           0        2.360394    1.984543   -0.082355
      7          6           0       -0.577789   -0.385779   -0.372146
      8          6           0       -1.765818    0.305219    0.315475
      9          6           0       -3.131486   -0.088915   -0.275697
     10          6           0       -3.496369   -1.558980   -0.061233
     11          8           0       -4.155839    0.769922    0.221629
     12          1           0        4.956581   -1.468921    0.526792
     13          1           0        4.215159   -1.419704   -1.085136
     14          1           0        3.714921   -2.658885    0.091865
     15          1           0        3.282581    0.416253    0.422934
     16          1           0        2.786608   -0.789578    1.589091
     17          1           0        0.780463    0.308805    1.233095
     18          1           0        0.342573    2.162471   -0.226180
     19          1           0        1.212289    1.352779   -1.621706
     20          1           0        2.194356    2.477562    0.868313
     21          1           0       -0.617725   -1.466597   -0.199576
     22          1           0       -0.612423   -0.236281   -1.458787
     23          1           0       -1.680716    1.394208    0.239953
     24          1           0       -1.753396    0.072504    1.389178
     25          1           0       -3.116184    0.121446   -1.352160
     26          1           0       -3.498327   -1.808937    1.007675
     27          1           0       -2.792572   -2.230949   -0.564094
     28          1           0       -4.494684   -1.755657   -0.462126
     29          1           0       -4.244234    0.640098    1.172888
 ---------------------------------------------------------------------
                    Distance matrix (angstroms):
                    1          2          3          4          5
     1  C    0.000000
     2  C    1.504976   0.000000
     3  O    2.404307   1.411741   0.000000
     4  C    3.694595   2.385397   1.393835   0.000000
     5  C    4.265969   3.035255   2.390851   1.642864   0.000000
     6  O    3.967863   2.796486   2.813592   2.480926   1.344280
     7  C    4.777825   3.687525   2.398073   1.523108   2.604893
     8  C    6.111900   4.858495   3.745654   2.540076   3.306831
     9  C    7.322833   6.199286   4.962778   3.922494   4.616139
    10  C    7.522635   6.571070   5.342018   4.576511   5.626433
    11  O    8.526360   7.294977   6.150955   4.962789   5.448349
    12  H    1.093334   2.122629   3.331790   4.494661   4.932385
    13  H    1.091970   2.153116   2.664410   3.975519   4.258689
    14  H    1.094462   2.157130   2.720309   4.044396   4.929550
    15  H    2.210770   1.132447   2.011329   2.553535   2.561739
    16  H    2.198651   1.094828   2.060584   2.632739   3.531458
    17  H    3.978651   2.519969   2.061566   1.089684   2.191449
    18  H    5.280783   3.949565   3.264605   2.137045   1.104400
    19  H    4.390140   3.441610   2.609203   2.224775   1.090446
    20  H    4.573666   3.268004   3.443399   2.861234   1.981244
    21  H    4.649287   3.762093   2.502112   2.121099   3.509077
    22  H    5.046495   4.131918   2.753600   2.152669   2.676760
    23  H    6.457691   5.114318   4.108407   2.763549   2.974454
    24  H    6.185579   4.878597   3.972540   2.798141   3.805813
    25  H    7.468895   6.434648   5.109392   4.163398   4.595791
    26  H    7.597658   6.603857   5.520841   4.745272   5.954474
    27  H    6.867154   6.084792   4.818506   4.313977   5.470205
    28  H    8.532854   7.624789   6.361480   5.610341   6.559352
    29  H    8.656201   7.380252   6.343385   5.134829   5.763059
                    6          7          8          9         10
     6  O    0.000000
     7  C    3.786201   0.000000
     8  C    4.472586   1.536787   0.000000
     9  C    5.873445   2.572703   1.539440   0.000000
    10  C    6.845340   3.160883   2.571373   1.529780   0.000000
    11  O    6.635436   3.806660   2.436587   1.426266   2.436945
    12  H    4.363217   5.710563   6.955780   8.244103   8.473857
    13  H    4.004325   4.954765   6.380373   7.509952   7.780452
    14  H    4.840095   4.879516   6.234936   7.322100   7.296296
    15  H    1.888195   4.022171   5.050764   6.471750   7.077439
    16  H    3.266670   3.915184   4.852346   6.244374   6.541510
    17  H    2.652299   2.214518   2.706582   4.211648   4.843057
    18  H    2.030750   2.713291   2.861483   4.140082   5.349195
    19  H    2.021602   2.790763   3.703941   4.770598   5.751946
    20  H    1.083701   4.173996   4.550569   6.021640   7.038614
    21  H    4.559967   1.095237   2.173184   2.867542   2.883447
    22  H    3.957811   1.097423   2.184388   2.786952   3.466964
    23  H    4.096700   2.181620   1.094916   2.137822   3.479746
    24  H    4.769127   2.166642   1.098703   2.167256   2.793455
    25  H    5.922537   2.767879   2.153663   1.096931   2.152874
    26  H    7.064225   3.529707   2.819643   2.177176   1.097746
    27  H    6.674991   2.889077   2.874024   2.187772   1.095327
    28  H    7.818274   4.150510   3.506934   2.161271   1.093631
    29  H    6.855967   4.108817   2.643832   1.966740   2.630266
                   11         12         13         14         15
    11  O    0.000000
    12  H    9.388384   0.000000
    13  H    8.750755   1.774949   0.000000
    14  H    8.586177   1.773949   1.780769   0.000000
    15  H    7.449544   2.523280   2.552394   3.122980   0.000000
    16  H    7.245659   2.509734   3.096660   2.568611   1.749268
    17  H    5.059918   4.593380   4.489886   4.326735   2.632205
    18  H    4.730268   5.919716   5.344783   5.892313   3.480557
    19  H    5.705647   5.157301   4.122110   5.029209   3.056754
    20  H    6.607512   4.829208   4.805028   5.412770   2.373097
    21  H    4.206862   5.621432   4.913571   4.503144   4.375504
    22  H    4.048709   6.039514   4.984541   5.196098   4.374669
    23  H    2.552705   7.234190   6.665981   6.749992   5.062035
    24  H    2.760670   6.938551   6.631181   6.248680   5.139344
    25  H    1.994546   8.439743   7.496334   7.515281   6.646959
    26  H    2.775015   8.475396   8.001826   7.320661   7.160595
    27  H    3.388375   7.862575   7.073746   6.554455   6.699955
    28  H    2.638350   9.507186   8.738556   8.277701   8.123200
    29  H    0.964138   9.461522   8.994598   8.683321   7.567397
                   16         17         18         19         20
    16  H    0.000000
    17  H    2.314692   0.000000
    18  H    4.240649   2.399439   0.000000
    19  H    4.168620   3.070219   1.832894   0.000000
    20  H    3.397717   2.614510   2.174005   2.903410   0.000000
    21  H    3.904762   2.675729   3.754066   3.649696   4.960300
    22  H    4.598816   3.079525   2.861005   2.425124   4.545145
    23  H    5.152289   2.867373   2.213867   3.440490   4.072429
    24  H    4.625450   2.549635   3.372007   4.415860   4.651918
    25  H    6.657618   4.680011   4.170924   4.508272   6.219615
    26  H    6.393556   4.779507   5.661006   6.252999   7.127421
    27  H    6.151504   4.737807   5.407907   5.477277   7.006519
    28  H    7.626140   5.912947   6.229482   6.601253   8.027046
    29  H    7.186789   5.035967   5.031283   6.171817   6.702573
                   21         22         23         24         25
    21  H    0.000000
    22  H    1.760488   0.000000
    23  H    3.083398   2.585627   0.000000
    24  H    2.486508   3.083516   1.752969   0.000000
    25  H    3.176890   2.531434   2.493053   3.061784   0.000000
    26  H    3.142057   4.109151   3.762080   2.594253   3.072659
    27  H    2.333895   3.087430   3.876142   3.193909   2.501907
    28  H    3.896575   4.286465   4.281703   3.779439   2.493179
    29  H    4.412867   4.569881   2.830313   2.563829   2.813781
                   26         27         28         29
    26  H    0.000000
    27  H    1.773878   0.000000
    28  H    1.776480   1.770165   0.000000
    29  H    2.565432   3.656137   2.911295   0.000000
 Stoichiometry    C8H18O3
 Framework group  C1[X(C8H18O3)]
 Deg. of freedom    81
 Full point group                 C1      NOp   1
 Largest Abelian subgroup         C1      NOp   1
 Largest concise Abelian subgroup C1      NOp   1
                         Standard orientation:                         
 ---------------------------------------------------------------------
 Center     Atomic      Atomic             Coordinates (Angstroms)
 Number     Number       Type             X           Y           Z
 ---------------------------------------------------------------------
      1          6           0       -4.038060    1.532132   -0.052776
      2          6           0       -2.990514    0.611576    0.513065
      3          8           0       -1.786661    0.704810   -0.218412
      4          6           0       -0.754244   -0.145826    0.173135
      5          6           0       -1.160878   -1.584440   -0.508069
      6          8           0       -2.330945   -2.049691   -0.037353
      7          6           0        0.579909    0.348486   -0.370509
      8          6           0        1.775243   -0.315453    0.330974
      9          6           0        3.136781    0.083080   -0.266739
     10          6           0        3.484469    1.561099   -0.080190
     11          8           0        4.170554   -0.754187    0.247587
     12          1           0       -4.967386    1.384523    0.503950
     13          1           0       -4.224040    1.313083   -1.106259
     14          1           0       -3.739178    2.580240    0.047153
     15          1           0       -3.271629   -0.482802    0.437252
     16          1           0       -2.790636    0.750757    1.580458
     17          1           0       -0.771626   -0.330951    1.246838
     18          1           0       -0.311078   -2.206983   -0.176436
     19          1           0       -1.188874   -1.434229   -1.587757
     20          1           0       -2.160050   -2.522494    0.922679
     21          1           0        0.607206    1.432796   -0.218614
     22          1           0        0.617215    0.178656   -1.454069
     23          1           0        1.702794   -1.406597    0.276237
     24          1           0        1.759197   -0.062415    1.400022
     25          1           0        3.124848   -0.147982   -1.338991
     26          1           0        3.482608    1.831448    0.983743
     27          1           0        2.773394    2.215147   -0.596268
     28          1           0        4.480794    1.761612   -0.484122
     29          1           0        4.256614   -0.605189    1.196247
 ---------------------------------------------------------------------
 Rotational constants (GHZ):           2.0189767           0.4089425           0.3546295
 Standard basis: 6-31+G(2df,p) (6D, 7F)
 There are   475 symmetry adapted cartesian basis functions of A   symmetry.
 There are   442 symmetry adapted basis functions of A   symmetry.
   442 basis functions,   654 primitive gaussians,   475 cartesian basis functions
    45 alpha electrons       45 beta electrons
       nuclear repulsion energy       666.8689615510 Hartrees.
 NAtoms=   29 NActive=   29 NUniq=   29 SFac= 1.00D+00 NAtFMM=   60 NAOKFM=F Big=F
 Integral buffers will be    131072 words long.
 Regular integral format.
 Two-electron integral symmetry is turned on.
 One-electron integrals computed using PRISM.
 PrsmSu:  requested number of processors reduced to:  12 ShMem   1 Linda.
 NBasis=   442 RedAO= T EigKep=  1.03D-05  NBF=   442
 NBsUse=   442 1.00D-06 EigRej= -1.00D+00 NBFU=   442
 Initial guess from the checkpoint file:  "CCOCqCOrCCCqCrO.chk"
 B after Tr=    -0.000000   -0.000000   -0.000000
         Rot=    0.999993   -0.000790    0.000292    0.003550 Ang=  -0.42 deg.
 ExpMin= 4.38D-02 ExpMax= 5.48D+03 ExpMxC= 8.25D+02 IAcc=2 IRadAn=         4 AccDes= 0.00D+00
 Harris functional with IExCor=  402 and IRadAn=       4 diagonalized for initial guess.
 HarFok:  IExCor=  402 AccDes= 0.00D+00 IRadAn=         4 IDoV= 1 UseB2=F ITyADJ=14
 ICtDFT=  3500011 ScaDFX=  1.000000  1.000000  1.000000  1.000000
 FoFCou: FMM=F IPFlag=           0 FMFlag=      100000 FMFlg1=           0
         NFxFlg=           0 DoJE=T BraDBF=F KetDBF=T FulRan=T
         wScrn=  0.000000 ICntrl=       500 IOpCl=  0 I1Cent=   200000004 NGrid=           0
         NMat0=    1 NMatS0=      1 NMatT0=    0 NMatD0=    1 NMtDS0=    0 NMtDT0=    0
 Petite list used in FoFCou.
 Requested convergence on RMS density matrix=1.00D-08 within 128 cycles.
 Requested convergence on MAX density matrix=1.00D-06.
 Requested convergence on             energy=1.00D-06.
 No special actions if energy rises.
 SCF Done:  E(RB3LYP) =  -541.376291163     A.U. after   11 cycles
            NFock= 11  Conv=0.77D-08     -V/T= 2.0076
 DoSCS=F DFT=T ScalE2(SS,OS)=  1.000000  1.000000
 ExpMin= 4.38D-02 ExpMax= 5.48D+03 ExpMxC= 8.25D+02 IAcc=3 IRadAn=         5 AccDes= 0.00D+00
 HarFok:  IExCor=  205 AccDes= 0.00D+00 IRadAn=         5 IDoV=-2 UseB2=F ITyADJ=14
 ICtDFT= 12500011 ScaDFX=  1.000000  1.000000  1.000000  1.000000
 Range of M.O.s used for correlation:    12   442
 NBasis=   442 NAE=    45 NBE=    45 NFC=    11 NFV=     0
 NROrb=    431 NOA=    34 NOB=    34 NVA=   397 NVB=   397

 **** Warning!!: The largest alpha MO coefficient is  0.77086841D+02

 Orbital symmetries:
       Occupied  (A) (A) (A) (A) (A) (A) (A) (A) (A) (A) (A) (A)
                 (A) (A) (A) (A) (A) (A) (A) (A) (A) (A) (A) (A)
                 (A) (A) (A) (A) (A) (A) (A) (A) (A) (A) (A) (A)
                 (A) (A) (A) (A) (A) (A) (A) (A) (A)
       Virtual   (A) (A) (A) (A) (A) (A) (A) (A) (A) (A) (A) (A)
                 (A) (A) (A) (A) (A) (A) (A) (A) (A) (A) (A) (A)
                 (A) (A) (A) (A) (A) (A) (A) (A) (A) (A) (A) (A)
                 (A) (A) (A) (A) (A) (A) (A) (A) (A) (A) (A) (A)
                 (A) (A) (A) (A) (A) (A) (A) (A) (A) (A) (A) (A)
                 (A) (A) (A) (A) (A) (A) (A) (A) (A) (A) (A) (A)
                 (A) (A) (A) (A) (A) (A) (A) (A) (A) (A) (A) (A)
                 (A) (A) (A) (A) (A) (A) (A) (A) (A) (A) (A) (A)
                 (A) (A) (A) (A) (A) (A) (A) (A) (A) (A) (A) (A)
                 (A) (A) (A) (A) (A) (A) (A) (A) (A) (A) (A) (A)
                 (A) (A) (A) (A) (A) (A) (A) (A) (A) (A) (A) (A)
                 (A) (A) (A) (A) (A) (A) (A) (A) (A) (A) (A) (A)
                 (A) (A) (A) (A) (A) (A) (A) (A) (A) (A) (A) (A)
                 (A) (A) (A) (A) (A) (A) (A) (A) (A) (A) (A) (A)
                 (A) (A) (A) (A) (A) (A) (A) (A) (A) (A) (A) (A)
                 (A) (A) (A) (A) (A) (A) (A) (A) (A) (A) (A) (A)
                 (A) (A) (A) (A) (A) (A) (A) (A) (A) (A) (A) (A)
                 (A) (A) (A) (A) (A) (A) (A) (A) (A) (A) (A) (A)
                 (A) (A) (A) (A) (A) (A) (A) (A) (A) (A) (A) (A)
                 (A) (A) (A) (A) (A) (A) (A) (A) (A) (A) (A) (A)
                 (A) (A) (A) (A) (A) (A) (A) (A) (A) (A) (A) (A)
                 (A) (A) (A) (A) (A) (A) (A) (A) (A) (A) (A) (A)
                 (A) (A) (A) (A) (A) (A) (A) (A) (A) (A) (A) (A)
                 (A) (A) (A) (A) (A) (A) (A) (A) (A) (A) (A) (A)
                 (A) (A) (A) (A) (A) (A) (A) (A) (A) (A) (A) (A)
                 (A) (A) (A) (A) (A) (A) (A) (A) (A) (A) (A) (A)
                 (A) (A) (A) (A) (A) (A) (A) (A) (A) (A) (A) (A)
                 (A) (A) (A) (A) (A) (A) (A) (A) (A) (A) (A) (A)
                 (A) (A) (A) (A) (A) (A) (A) (A) (A) (A) (A) (A)
                 (A) (A) (A) (A) (A) (A) (A) (A) (A) (A) (A) (A)
                 (A) (A) (A) (A) (A) (A) (A) (A) (A) (A) (A) (A)
                 (A) (A) (A) (A) (A) (A) (A) (A) (A) (A) (A) (A)
                 (A) (A) (A) (A) (A) (A) (A) (A) (A) (A) (A) (A)
                 (A)
 Generating guess from densities on rwf.
 Convergence on wavefunction:    0.000001000000000
 Iteration     1 Dimension    20 NMult     0 NNew     20
 CISAX will form     5 AO SS matrices at one time.
 Iteration     2 Dimension    40 NMult    20 NNew     20
 New state      8 was old state      9
 New state      9 was old state      8
 Iteration     3 Dimension    60 NMult    40 NNew     20
 Iteration     4 Dimension    80 NMult    60 NNew     20
 Iteration     5 Dimension   100 NMult    80 NNew     20
 Iteration     6 Dimension   120 NMult   100 NNew     20
 Iteration     7 Dimension   140 NMult   120 NNew     20
slurmstepd: error: *** JOB 27500964 ON lewis4-r630-hpc4rc-node382 CANCELLED AT 2023-05-26T02:10:33 DUE TO TIME LIMIT ***
