### Starting Gaussian ###
 Entering Gaussian System, Link 0=g16
 Initial command:
 /cluster/software/gaussian/gaussian-16-A.03/avx2/g16/l1.exe "/local/scratch/linjian/Gau-4180.inp" -scrdir="/local/scratch/linjian/"
 Entering Link 1 = /cluster/software/gaussian/gaussian-16-A.03/avx2/g16/l1.exe PID=      4181.
  
 Copyright (c) 1988,1990,1992,1993,1995,1998,2003,2009,2016,
            Gaussian, Inc.  All Rights Reserved.
  
 This is part of the Gaussian(R) 16 program.  It is based on
 the Gaussian(R) 09 system (copyright 2009, Gaussian, Inc.),
 the Gaussian(R) 03 system (copyright 2003, Gaussian, Inc.),
 the Gaussian(R) 98 system (copyright 1998, Gaussian, Inc.),
 the Gaussian(R) 94 system (copyright 1995, Gaussian, Inc.),
 the Gaussian 92(TM) system (copyright 1992, Gaussian, Inc.),
 the Gaussian 90(TM) system (copyright 1990, Gaussian, Inc.),
 the Gaussian 88(TM) system (copyright 1988, Gaussian, Inc.),
 the Gaussian 86(TM) system (copyright 1986, Carnegie Mellon
 University), and the Gaussian 82(TM) system (copyright 1983,
 Carnegie Mellon University). Gaussian is a federally registered
 trademark of Gaussian, Inc.
  
 This software contains proprietary and confidential information,
 including trade secrets, belonging to Gaussian, Inc.
  
 This software is provided under written license and may be
 used, copied, transmitted, or stored only in accord with that
 written license.
  
 The following legend is applicable only to US Government
 contracts under FAR:
  
                    RESTRICTED RIGHTS LEGEND
  
 Use, reproduction and disclosure by the US Government is
 subject to restrictions as set forth in subparagraphs (a)
 and (c) of the Commercial Computer Software - Restricted
 Rights clause in FAR 52.227-19.
  
 Gaussian, Inc.
 340 Quinnipiac St., Bldg. 40, Wallingford CT 06492
  
  
 ---------------------------------------------------------------
 Warning -- This program may not be used in any manner that
 competes with the business of Gaussian, Inc. or will provide
 assistance to any competitor of Gaussian, Inc.  The licensee
 of this program is prohibited from giving any competitor of
 Gaussian, Inc. access to this program.  By using this program,
 the user acknowledges that Gaussian, Inc. is engaged in the
 business of creating and licensing software in the field of
 computational chemistry and represents and warrants to the
 licensee that it is not a competitor of Gaussian, Inc. and that
 it will not use this program in any manner prohibited above.
 ---------------------------------------------------------------
  

 Cite this work as:
 Gaussian 16, Revision A.03,
 M. J. Frisch, G. W. Trucks, H. B. Schlegel, G. E. Scuseria, 
 M. A. Robb, J. R. Cheeseman, G. Scalmani, V. Barone, 
 G. A. Petersson, H. Nakatsuji, X. Li, M. Caricato, A. V. Marenich, 
 J. Bloino, B. G. Janesko, R. Gomperts, B. Mennucci, H. P. Hratchian, 
 J. V. Ortiz, A. F. Izmaylov, J. L. Sonnenberg, D. Williams-Young, 
 F. Ding, F. Lipparini, F. Egidi, J. Goings, B. Peng, A. Petrone, 
 T. Henderson, D. Ranasinghe, V. G. Zakrzewski, J. Gao, N. Rega, 
 G. Zheng, W. Liang, M. Hada, M. Ehara, K. Toyota, R. Fukuda, 
 J. Hasegawa, M. Ishida, T. Nakajima, Y. Honda, O. Kitao, H. Nakai, 
 T. Vreven, K. Throssell, J. A. Montgomery, Jr., J. E. Peralta, 
 F. Ogliaro, M. J. Bearpark, J. J. Heyd, E. N. Brothers, K. N. Kudin, 
 V. N. Staroverov, T. A. Keith, R. Kobayashi, J. Normand, 
 K. Raghavachari, A. P. Rendell, J. C. Burant, S. S. Iyengar, 
 J. Tomasi, M. Cossi, J. M. Millam, M. Klene, C. Adamo, R. Cammi, 
 J. W. Ochterski, R. L. Martin, K. Morokuma, O. Farkas, 
 J. B. Foresman, and D. J. Fox, Gaussian, Inc., Wallingford CT, 2016.
 
 ******************************************
 Gaussian 16:  ES64L-G16RevA.03 25-Dec-2016
                28-May-2023 
 ******************************************
 %chk=CCqCrC1CC2CC1C2.chk
 %NProcShared=20
 Will use up to   20 processors via shared memory.
 -----------------------------
 # opt freq b3lyp/6-31g(2df,p)
 -----------------------------
 1/18=20,19=15,26=3,38=1/1,3;
 2/9=110,12=2,17=6,18=5,40=1/2;
 3/5=1,6=6,7=104,11=2,25=1,30=1,71=1,74=-5/1,2,3;
 4//1;
 5/5=2,38=5/2;
 6/7=2,8=2,9=2,10=2,28=1/1;
 7//1,2,3,16;
 1/18=20,19=15,26=3/3(2);
 2/9=110/2;
 99//99;
 2/9=110/2;
 3/5=1,6=6,7=104,11=2,25=1,30=1,71=1,74=-5/1,2,3;
 4/5=5,16=3,69=1/1;
 5/5=2,38=5/2;
 7//1,2,3,16;
 1/18=20,19=15,26=3/3(-5);
 2/9=110/2;
 6/7=2,8=2,9=2,10=2,19=2,28=1/1;
 99/9=1/99;
 -------------------
 Title Card Required
 -------------------
 Symbolic Z-matrix:
 Charge =  0 Multiplicity = 1
 C                     0.99361   0.04246   0.08463 
 C                     2.51866   0.03155   0.13321 
 C                     3.00919   1.12792   1.08548 
 C                     3.18746  -1.31011   0.47673 
 C                     3.37446  -2.24454  -0.73033 
 C                     2.84898  -3.54808  -0.1306 
 C                     3.38398  -3.54974   1.33578 
 C                     2.44719  -2.28404   1.40758 
 C                     1.49233  -3.19063   0.54971 
 H                     0.62906   1.03446  -0.20715 
 H                     0.55496  -0.19405   1.05941 
 H                     0.61212  -0.6603   -0.65973 
 H                     2.87477   0.32541  -0.86408 
 H                     2.68341   0.9435    2.11333 
 H                     2.63398   2.10854   0.77266 
 H                     4.1037    1.18534   1.07615 
 H                     4.17579  -1.09853   0.90779 
 H                     4.43299  -2.32006  -1.00095 
 H                     2.8029   -1.93927  -1.61143 
 H                     2.91077  -4.45907  -0.72023 
 H                     4.45828  -3.38336   1.46101 
 H                     3.09671  -4.41419   1.94602 
 H                     2.11921  -1.95955   2.39285 
 H                     0.74077  -2.71074  -0.07575 
 H                     1.00206  -4.01351   1.08764 
 

 GradGradGradGradGradGradGradGradGradGradGradGradGradGradGradGradGradGrad
 Berny optimization.
 Initialization pass.
                           ----------------------------
                           !    Initial Parameters    !
                           ! (Angstroms and Degrees)  !
 --------------------------                            --------------------------
 ! Name  Definition              Value          Derivative Info.                !
 --------------------------------------------------------------------------------
 ! R1    R(1,2)                  1.5259         estimate D2E/DX2                !
 ! R2    R(1,10)                 1.0964         estimate D2E/DX2                !
 ! R3    R(1,11)                 1.0948         estimate D2E/DX2                !
 ! R4    R(1,12)                 1.0925         estimate D2E/DX2                !
 ! R5    R(2,3)                  1.5328         estimate D2E/DX2                !
 ! R6    R(2,4)                  1.538          estimate D2E/DX2                !
 ! R7    R(2,13)                 1.099          estimate D2E/DX2                !
 ! R8    R(3,14)                 1.0939         estimate D2E/DX2                !
 ! R9    R(3,15)                 1.0956         estimate D2E/DX2                !
 ! R10   R(3,16)                 1.0961         estimate D2E/DX2                !
 ! R11   R(4,5)                  1.5379         estimate D2E/DX2                !
 ! R12   R(4,8)                  1.5372         estimate D2E/DX2                !
 ! R13   R(4,17)                 1.0988         estimate D2E/DX2                !
 ! R14   R(5,6)                  1.5281         estimate D2E/DX2                !
 ! R15   R(5,18)                 1.0952         estimate D2E/DX2                !
 ! R16   R(5,19)                 1.0937         estimate D2E/DX2                !
 ! R17   R(6,7)                  1.5609         estimate D2E/DX2                !
 ! R18   R(6,9)                  1.5592         estimate D2E/DX2                !
 ! R19   R(6,20)                 1.0869         estimate D2E/DX2                !
 ! R20   R(7,8)                  1.5763         estimate D2E/DX2                !
 ! R21   R(7,21)                 1.0943         estimate D2E/DX2                !
 ! R22   R(7,22)                 1.0964         estimate D2E/DX2                !
 ! R23   R(8,9)                  1.5715         estimate D2E/DX2                !
 ! R24   R(8,23)                 1.0879         estimate D2E/DX2                !
 ! R25   R(9,24)                 1.0892         estimate D2E/DX2                !
 ! R26   R(9,25)                 1.0986         estimate D2E/DX2                !
 ! A1    A(2,1,10)             110.3199         estimate D2E/DX2                !
 ! A2    A(2,1,11)             111.7506         estimate D2E/DX2                !
 ! A3    A(2,1,12)             111.4758         estimate D2E/DX2                !
 ! A4    A(10,1,11)            107.4092         estimate D2E/DX2                !
 ! A5    A(10,1,12)            106.5344         estimate D2E/DX2                !
 ! A6    A(11,1,12)            109.1345         estimate D2E/DX2                !
 ! A7    A(1,2,3)              109.5432         estimate D2E/DX2                !
 ! A8    A(1,2,4)              116.6139         estimate D2E/DX2                !
 ! A9    A(1,2,13)             107.0413         estimate D2E/DX2                !
 ! A10   A(3,2,4)              110.2456         estimate D2E/DX2                !
 ! A11   A(3,2,13)             105.594          estimate D2E/DX2                !
 ! A12   A(4,2,13)             107.1602         estimate D2E/DX2                !
 ! A13   A(2,3,14)             111.5834         estimate D2E/DX2                !
 ! A14   A(2,3,15)             110.6854         estimate D2E/DX2                !
 ! A15   A(2,3,16)             110.5947         estimate D2E/DX2                !
 ! A16   A(14,3,15)            108.4936         estimate D2E/DX2                !
 ! A17   A(14,3,16)            108.3141         estimate D2E/DX2                !
 ! A18   A(15,3,16)            107.0183         estimate D2E/DX2                !
 ! A19   A(2,4,5)              114.055          estimate D2E/DX2                !
 ! A20   A(2,4,8)              118.59           estimate D2E/DX2                !
 ! A21   A(2,4,17)             108.1065         estimate D2E/DX2                !
 ! A22   A(5,4,8)               98.5618         estimate D2E/DX2                !
 ! A23   A(5,4,17)             108.393          estimate D2E/DX2                !
 ! A24   A(8,4,17)             108.5173         estimate D2E/DX2                !
 ! A25   A(4,5,6)               99.6985         estimate D2E/DX2                !
 ! A26   A(4,5,18)             110.6934         estimate D2E/DX2                !
 ! A27   A(4,5,19)             113.5261         estimate D2E/DX2                !
 ! A28   A(6,5,18)             111.7484         estimate D2E/DX2                !
 ! A29   A(6,5,19)             111.9977         estimate D2E/DX2                !
 ! A30   A(18,5,19)            108.9825         estimate D2E/DX2                !
 ! A31   A(5,6,7)              104.5807         estimate D2E/DX2                !
 ! A32   A(5,6,9)              105.9554         estimate D2E/DX2                !
 ! A33   A(5,6,20)             118.8505         estimate D2E/DX2                !
 ! A34   A(7,6,9)               83.6024         estimate D2E/DX2                !
 ! A35   A(7,6,20)             119.291          estimate D2E/DX2                !
 ! A36   A(9,6,20)             118.5748         estimate D2E/DX2                !
 ! A37   A(6,7,8)               80.6912         estimate D2E/DX2                !
 ! A38   A(6,7,21)             116.3483         estimate D2E/DX2                !
 ! A39   A(6,7,22)             115.7146         estimate D2E/DX2                !
 ! A40   A(8,7,21)             117.1383         estimate D2E/DX2                !
 ! A41   A(8,7,22)             116.8722         estimate D2E/DX2                !
 ! A42   A(21,7,22)            108.2639         estimate D2E/DX2                !
 ! A43   A(4,8,7)              101.2419         estimate D2E/DX2                !
 ! A44   A(4,8,9)              109.1199         estimate D2E/DX2                !
 ! A45   A(4,8,23)             120.3051         estimate D2E/DX2                !
 ! A46   A(7,8,9)               82.7046         estimate D2E/DX2                !
 ! A47   A(7,8,23)             117.3808         estimate D2E/DX2                !
 ! A48   A(9,8,23)             118.8988         estimate D2E/DX2                !
 ! A49   A(6,9,8)               80.8952         estimate D2E/DX2                !
 ! A50   A(6,9,24)             116.7972         estimate D2E/DX2                !
 ! A51   A(6,9,25)             115.4825         estimate D2E/DX2                !
 ! A52   A(8,9,24)             118.5915         estimate D2E/DX2                !
 ! A53   A(8,9,25)             115.8477         estimate D2E/DX2                !
 ! A54   A(24,9,25)            107.654          estimate D2E/DX2                !
 ! D1    D(10,1,2,3)            56.2026         estimate D2E/DX2                !
 ! D2    D(10,1,2,4)          -177.7412         estimate D2E/DX2                !
 ! D3    D(10,1,2,13)          -57.8237         estimate D2E/DX2                !
 ! D4    D(11,1,2,3)           -63.22           estimate D2E/DX2                !
 ! D5    D(11,1,2,4)            62.8362         estimate D2E/DX2                !
 ! D6    D(11,1,2,13)         -177.2463         estimate D2E/DX2                !
 ! D7    D(12,1,2,3)           174.3541         estimate D2E/DX2                !
 ! D8    D(12,1,2,4)           -59.5896         estimate D2E/DX2                !
 ! D9    D(12,1,2,13)           60.3278         estimate D2E/DX2                !
 ! D10   D(1,2,3,14)            63.6036         estimate D2E/DX2                !
 ! D11   D(1,2,3,15)           -57.3264         estimate D2E/DX2                !
 ! D12   D(1,2,3,16)          -175.7564         estimate D2E/DX2                !
 ! D13   D(4,2,3,14)           -66.0086         estimate D2E/DX2                !
 ! D14   D(4,2,3,15)           173.0614         estimate D2E/DX2                !
 ! D15   D(4,2,3,16)            54.6313         estimate D2E/DX2                !
 ! D16   D(13,2,3,14)          178.56           estimate D2E/DX2                !
 ! D17   D(13,2,3,15)           57.6301         estimate D2E/DX2                !
 ! D18   D(13,2,3,16)          -60.8            estimate D2E/DX2                !
 ! D19   D(1,2,4,5)             84.2555         estimate D2E/DX2                !
 ! D20   D(1,2,4,8)            -31.1453         estimate D2E/DX2                !
 ! D21   D(1,2,4,17)          -155.1139         estimate D2E/DX2                !
 ! D22   D(3,2,4,5)           -150.0396         estimate D2E/DX2                !
 ! D23   D(3,2,4,8)             94.5595         estimate D2E/DX2                !
 ! D24   D(3,2,4,17)           -29.409          estimate D2E/DX2                !
 ! D25   D(13,2,4,5)           -35.5983         estimate D2E/DX2                !
 ! D26   D(13,2,4,8)          -150.9991         estimate D2E/DX2                !
 ! D27   D(13,2,4,17)           85.0323         estimate D2E/DX2                !
 ! D28   D(2,4,5,6)           -132.9789         estimate D2E/DX2                !
 ! D29   D(2,4,5,18)           109.2212         estimate D2E/DX2                !
 ! D30   D(2,4,5,19)           -13.7135         estimate D2E/DX2                !
 ! D31   D(8,4,5,6)             -6.3121         estimate D2E/DX2                !
 ! D32   D(8,4,5,18)          -124.1119         estimate D2E/DX2                !
 ! D33   D(8,4,5,19)           112.9533         estimate D2E/DX2                !
 ! D34   D(17,4,5,6)           106.5506         estimate D2E/DX2                !
 ! D35   D(17,4,5,18)          -11.2493         estimate D2E/DX2                !
 ! D36   D(17,4,5,19)         -134.1841         estimate D2E/DX2                !
 ! D37   D(2,4,8,7)            173.3552         estimate D2E/DX2                !
 ! D38   D(2,4,8,9)             87.2613         estimate D2E/DX2                !
 ! D39   D(2,4,8,23)           -55.3992         estimate D2E/DX2                !
 ! D40   D(5,4,8,7)             49.8852         estimate D2E/DX2                !
 ! D41   D(5,4,8,9)            -36.2086         estimate D2E/DX2                !
 ! D42   D(5,4,8,23)          -178.8692         estimate D2E/DX2                !
 ! D43   D(17,4,8,7)           -62.8788         estimate D2E/DX2                !
 ! D44   D(17,4,8,9)          -148.9727         estimate D2E/DX2                !
 ! D45   D(17,4,8,23)           68.3668         estimate D2E/DX2                !
 ! D46   D(4,5,6,7)            -39.3749         estimate D2E/DX2                !
 ! D47   D(4,5,6,9)             48.0241         estimate D2E/DX2                !
 ! D48   D(4,5,6,20)          -175.4678         estimate D2E/DX2                !
 ! D49   D(18,5,6,7)            77.6348         estimate D2E/DX2                !
 ! D50   D(18,5,6,9)           165.0339         estimate D2E/DX2                !
 ! D51   D(18,5,6,20)          -58.458          estimate D2E/DX2                !
 ! D52   D(19,5,6,7)          -159.7589         estimate D2E/DX2                !
 ! D53   D(19,5,6,9)           -72.3599         estimate D2E/DX2                !
 ! D54   D(19,5,6,20)           64.1482         estimate D2E/DX2                !
 ! D55   D(5,6,7,8)             63.7771         estimate D2E/DX2                !
 ! D56   D(5,6,7,21)           -51.9847         estimate D2E/DX2                !
 ! D57   D(5,6,7,22)           179.2093         estimate D2E/DX2                !
 ! D58   D(9,6,7,8)            -41.0943         estimate D2E/DX2                !
 ! D59   D(9,6,7,21)          -156.8561         estimate D2E/DX2                !
 ! D60   D(9,6,7,22)            74.3379         estimate D2E/DX2                !
 ! D61   D(20,6,7,8)          -160.3667         estimate D2E/DX2                !
 ! D62   D(20,6,7,21)           83.8715         estimate D2E/DX2                !
 ! D63   D(20,6,7,22)          -44.9345         estimate D2E/DX2                !
 ! D64   D(5,6,9,8)            -62.1621         estimate D2E/DX2                !
 ! D65   D(5,6,9,24)            55.3565         estimate D2E/DX2                !
 ! D66   D(5,6,9,25)          -176.5396         estimate D2E/DX2                !
 ! D67   D(7,6,9,8)             41.2183         estimate D2E/DX2                !
 ! D68   D(7,6,9,24)           158.7369         estimate D2E/DX2                !
 ! D69   D(7,6,9,25)           -73.1593         estimate D2E/DX2                !
 ! D70   D(20,6,9,8)           161.1869         estimate D2E/DX2                !
 ! D71   D(20,6,9,24)          -81.2945         estimate D2E/DX2                !
 ! D72   D(20,6,9,25)           46.8094         estimate D2E/DX2                !
 ! D73   D(6,7,8,4)            -67.3364         estimate D2E/DX2                !
 ! D74   D(6,7,8,9)             40.7972         estimate D2E/DX2                !
 ! D75   D(6,7,8,23)           159.6376         estimate D2E/DX2                !
 ! D76   D(21,7,8,4)            47.5848         estimate D2E/DX2                !
 ! D77   D(21,7,8,9)           155.7184         estimate D2E/DX2                !
 ! D78   D(21,7,8,23)          -85.4412         estimate D2E/DX2                !
 ! D79   D(22,7,8,4)           178.4684         estimate D2E/DX2                !
 ! D80   D(22,7,8,9)           -73.398          estimate D2E/DX2                !
 ! D81   D(22,7,8,23)           45.4424         estimate D2E/DX2                !
 ! D82   D(4,8,9,6)             58.5945         estimate D2E/DX2                !
 ! D83   D(4,8,9,24)           -57.0415         estimate D2E/DX2                !
 ! D84   D(4,8,9,25)           172.5812         estimate D2E/DX2                !
 ! D85   D(7,8,9,6)            -40.8236         estimate D2E/DX2                !
 ! D86   D(7,8,9,24)          -156.4596         estimate D2E/DX2                !
 ! D87   D(7,8,9,25)            73.1631         estimate D2E/DX2                !
 ! D88   D(23,8,9,6)          -158.142          estimate D2E/DX2                !
 ! D89   D(23,8,9,24)           86.222          estimate D2E/DX2                !
 ! D90   D(23,8,9,25)          -44.1553         estimate D2E/DX2                !
 --------------------------------------------------------------------------------
 Trust Radius=3.00D-01 FncErr=1.00D-07 GrdErr=1.00D-06 EigMax=2.50D+02 EigMin=1.00D-04
 Number of steps in this run=    150 maximum allowed number of steps=    150.
 GradGradGradGradGradGradGradGradGradGradGradGradGradGradGradGradGradGrad

                          Input orientation:                          
 ---------------------------------------------------------------------
 Center     Atomic      Atomic             Coordinates (Angstroms)
 Number     Number       Type             X           Y           Z
 ---------------------------------------------------------------------
      1          6           0        0.993610    0.042460    0.084630
      2          6           0        2.518660    0.031550    0.133210
      3          6           0        3.009190    1.127920    1.085480
      4          6           0        3.187460   -1.310110    0.476730
      5          6           0        3.374460   -2.244540   -0.730330
      6          6           0        2.848980   -3.548080   -0.130600
      7          6           0        3.383980   -3.549740    1.335780
      8          6           0        2.447190   -2.284040    1.407580
      9          6           0        1.492330   -3.190630    0.549710
     10          1           0        0.629060    1.034460   -0.207150
     11          1           0        0.554960   -0.194050    1.059410
     12          1           0        0.612120   -0.660300   -0.659730
     13          1           0        2.874770    0.325410   -0.864080
     14          1           0        2.683410    0.943500    2.113330
     15          1           0        2.633980    2.108540    0.772660
     16          1           0        4.103700    1.185340    1.076150
     17          1           0        4.175790   -1.098530    0.907790
     18          1           0        4.432990   -2.320060   -1.000950
     19          1           0        2.802900   -1.939270   -1.611430
     20          1           0        2.910770   -4.459070   -0.720230
     21          1           0        4.458280   -3.383360    1.461010
     22          1           0        3.096710   -4.414190    1.946020
     23          1           0        2.119210   -1.959550    2.392850
     24          1           0        0.740770   -2.710740   -0.075750
     25          1           0        1.002060   -4.013510    1.087640
 ---------------------------------------------------------------------
                    Distance matrix (angstroms):
                    1          2          3          4          5
     1  C    0.000000
     2  C    1.525863   0.000000
     3  C    2.498497   1.532796   0.000000
     4  C    2.606946   1.537970   2.519196   0.000000
     5  C    3.400438   2.580442   3.847606   1.537895   0.000000
     6  C    4.047308   3.604505   4.834200   2.343486   1.528078
     7  C    4.492566   3.875641   4.699321   2.406767   2.443859
     8  C    3.045602   2.644066   3.472904   1.537212   2.330676
     9  C    3.304223   3.407238   4.608447   2.532814   2.464955
    10  H    1.096402   2.166163   2.710101   3.536964   4.308454
    11  H    1.094782   2.182856   2.787746   2.918075   3.918834
    12  H    1.092464   2.177683   3.462576   2.888974   3.185172
    13  H    2.125764   1.098979   2.112552   2.137866   2.621492
    14  H    2.789789   2.186246   1.093901   2.830421   4.327534
    15  H    2.726332   2.176254   1.095561   3.475785   4.664397
    16  H    3.458605   2.175481   1.096055   2.725082   3.944520
    17  H    3.479328   2.150148   2.519843   1.098806   2.153812
    18  H    4.311533   3.237445   4.274221   2.180569   1.095182
    19  H    3.174493   2.647394   4.089442   2.214529   1.093713
    20  H    4.958536   4.587786   5.872370   3.380121   2.262577
    21  H    5.063063   4.145695   4.753160   2.623386   2.696952
    22  H    5.267782   4.835807   5.609204   3.435456   3.456498
    23  H    3.256209   3.038094   3.468970   2.287891   3.378036
    24  H    2.769433   3.274861   4.607548   2.872854   2.753569
    25  H    4.178157   4.424197   5.519319   3.529526   3.473118
                    6          7          8          9         10
     6  C    0.000000
     7  C    1.560929   0.000000
     8  C    2.031066   1.576302   0.000000
     9  C    1.559196   2.079713   1.571497   0.000000
    10  H    5.092502   5.566427   4.114048   4.378294   0.000000
    11  H    4.234167   4.397771   2.840742   3.180872   1.766041
    12  H    3.690907   4.473716   3.205898   2.939402   1.754231
    13  H    3.942408   4.485027   3.486043   4.033916   2.444897
    14  H    5.023637   4.613522   3.312235   4.577621   3.100525
    15  H    5.732317   5.735481   4.442159   5.425336   2.476566
    16  H    5.043395   4.796497   3.858817   5.123037   3.707121
    17  H    2.973041   2.611239   2.154828   3.421412   4.286261
    18  H    2.185093   2.841275   3.121813   3.436556   5.133498
    19  H    2.187064   3.408418   3.059382   2.820288   3.942163
    20  H    1.086915   2.297387   3.077862   2.287719   5.970622
    21  H    2.269406   1.094297   2.292562   3.108773   6.079705
    22  H    2.263596   1.096445   2.291142   2.453735   6.357140
    23  H    3.069819   2.290359   1.087944   2.303411   4.236112
    24  H    2.269074   3.111735   2.300915   1.089191   3.749169
    25  H    2.260939   2.439303   2.276363   1.098574   5.224712
                   11         12         13         14         15
    11  H    0.000000
    12  H    1.782161   0.000000
    13  H    3.057968   2.476483   0.000000
    14  H    2.633451   3.814745   3.046904   0.000000
    15  H    3.115521   3.715661   2.432375   1.776839   0.000000
    16  H    3.807434   4.314023   2.452395   1.775233   1.761954
    17  H    3.735168   3.917768   2.619118   2.801859   3.561002
    18  H    4.878946   4.179747   3.073320   4.838450   5.098493
    19  H    3.902872   2.709431   2.385890   4.711526   4.700764
    20  H    5.187230   4.440507   4.786777   6.104795   6.740833
    21  H    5.056569   5.167740   4.654946   4.722013   5.827766
    22  H    5.005612   5.201424   5.514502   5.376212   6.643561
    23  H    2.709600   3.643846   4.049630   2.970547   4.409009
    24  H    2.767100   2.135858   3.793893   4.681815   5.246857
    25  H    3.845643   3.801233   5.112972   5.333941   6.343648
                   16         17         18         19         20
    16  H    0.000000
    17  H    2.291201   0.000000
    18  H    4.087861   2.280696   0.000000
    19  H    4.321846   2.989672   1.781819   0.000000
    20  H    6.042303   3.942582   2.640326   2.674933   0.000000
    21  H    4.598572   2.367763   2.681882   3.776978   2.882663
    22  H    5.755470   3.638123   3.854304   4.343616   2.673102
    23  H    3.944900   2.678858   4.123278   4.062278   4.070066
    24  H    5.274051   3.919941   3.826371   2.684373   2.860229
    25  H    6.053788   4.313006   4.359044   3.851036   2.666475
                   21         22         23         24         25
    21  H    0.000000
    22  H    1.775308   0.000000
    23  H    2.892544   2.679631   0.000000
    24  H    4.078471   3.541151   2.925469   0.000000
    25  H    3.532980   2.298895   2.677751   1.766057   0.000000
 Stoichiometry    C9H16
 Framework group  C1[X(C9H16)]
 Deg. of freedom    69
 Full point group                 C1      NOp   1
 Largest Abelian subgroup         C1      NOp   1
 Largest concise Abelian subgroup C1      NOp   1
                         Standard orientation:                         
 ---------------------------------------------------------------------
 Center     Atomic      Atomic             Coordinates (Angstroms)
 Number     Number       Type             X           Y           Z
 ---------------------------------------------------------------------
      1          6           0       -1.802791    1.418214    0.068093
      2          6           0       -1.613177   -0.067467    0.359733
      3          6           0       -2.643319   -0.880937   -0.431810
      4          6           0       -0.201958   -0.638071    0.140136
      5          6           0        0.746440   -0.441868    1.334777
      6          6           0        1.980165    0.081720    0.600749
      7          6           0        2.046340   -0.764163   -0.709442
      8          6           0        0.679671   -0.018455   -0.956142
      9          6           0        1.467044    1.201568   -0.355149
     10          1           0       -2.831041    1.722794    0.296195
     11          1           0       -1.618099    1.651638   -0.985449
     12          1           0       -1.150509    2.034540    0.691109
     13          1           0       -1.864525   -0.222529    1.418286
     14          1           0       -2.497064   -0.774602   -1.510661
     15          1           0       -3.661542   -0.560027   -0.185857
     16          1           0       -2.572091   -1.944770   -0.177796
     17          1           0       -0.295721   -1.715370   -0.054827
     18          1           0        0.945149   -1.397164    1.832118
     19          1           0        0.375193    0.273620    2.074007
     20          1           0        2.891383    0.258210    1.166362
     21          1           0        2.007159   -1.851033   -0.588343
     22          1           0        2.871930   -0.523757   -1.389734
     23          1           0        0.320212    0.041276   -1.981249
     24          1           0        0.901606    2.014053    0.099256
     25          1           0        2.227471    1.649880   -1.009084
 ---------------------------------------------------------------------
 Rotational constants (GHZ):           3.0423421           1.1744742           1.1103598
 Standard basis: 6-31G(2df,p) (6D, 7F)
 There are   359 symmetry adapted cartesian basis functions of A   symmetry.
 There are   332 symmetry adapted basis functions of A   symmetry.
   332 basis functions,   508 primitive gaussians,   359 cartesian basis functions
    35 alpha electrons       35 beta electrons
       nuclear repulsion energy       486.4972120173 Hartrees.
 NAtoms=   25 NActive=   25 NUniq=   25 SFac= 1.00D+00 NAtFMM=   60 NAOKFM=F Big=F
 Integral buffers will be    131072 words long.
 Raffenetti 2 integral format.
 Two-electron integral symmetry is turned on.
 One-electron integrals computed using PRISM.
 PrsmSu:  requested number of processors reduced to:  13 ShMem   1 Linda.
 NBasis=   332 RedAO= T EigKep=  3.71D-04  NBF=   332
 NBsUse=   332 1.00D-06 EigRej= -1.00D+00 NBFU=   332
 ExpMin= 1.61D-01 ExpMax= 3.05D+03 ExpMxC= 4.57D+02 IAcc=3 IRadAn=         5 AccDes= 0.00D+00
 Harris functional with IExCor=  402 and IRadAn=       5 diagonalized for initial guess.
 HarFok:  IExCor=  402 AccDes= 0.00D+00 IRadAn=         5 IDoV= 1 UseB2=F ITyADJ=14
 ICtDFT=  3500011 ScaDFX=  1.000000  1.000000  1.000000  1.000000
 FoFCou: FMM=F IPFlag=           0 FMFlag=      100000 FMFlg1=           0
         NFxFlg=           0 DoJE=T BraDBF=F KetDBF=T FulRan=T
         wScrn=  0.000000 ICntrl=       500 IOpCl=  0 I1Cent=   200000004 NGrid=           0
         NMat0=    1 NMatS0=      1 NMatT0=    0 NMatD0=    1 NMtDS0=    0 NMtDT0=    0
 Petite list used in FoFCou.
 Requested convergence on RMS density matrix=1.00D-08 within 128 cycles.
 Requested convergence on MAX density matrix=1.00D-06.
 Requested convergence on             energy=1.00D-06.
 No special actions if energy rises.
 Integral accuracy reduced to 1.0D-05 until final iterations.
 Initial convergence to 1.0D-05 achieved.  Increase integral accuracy.
 SCF Done:  E(RB3LYP) =  -352.574009810     A.U. after   12 cycles
            NFock= 12  Conv=0.58D-08     -V/T= 2.0088

 **********************************************************************

            Population analysis using the SCF density.

 **********************************************************************

 Orbital symmetries:
       Occupied  (A) (A) (A) (A) (A) (A) (A) (A) (A) (A) (A) (A)
                 (A) (A) (A) (A) (A) (A) (A) (A) (A) (A) (A) (A)
                 (A) (A) (A) (A) (A) (A) (A) (A) (A) (A) (A)
       Virtual   (A) (A) (A) (A) (A) (A) (A) (A) (A) (A) (A) (A)
                 (A) (A) (A) (A) (A) (A) (A) (A) (A) (A) (A) (A)
                 (A) (A) (A) (A) (A) (A) (A) (A) (A) (A) (A) (A)
                 (A) (A) (A) (A) (A) (A) (A) (A) (A) (A) (A) (A)
                 (A) (A) (A) (A) (A) (A) (A) (A) (A) (A) (A) (A)
                 (A) (A) (A) (A) (A) (A) (A) (A) (A) (A) (A) (A)
                 (A) (A) (A) (A) (A) (A) (A) (A) (A) (A) (A) (A)
                 (A) (A) (A) (A) (A) (A) (A) (A) (A) (A) (A) (A)
                 (A) (A) (A) (A) (A) (A) (A) (A) (A) (A) (A) (A)
                 (A) (A) (A) (A) (A) (A) (A) (A) (A) (A) (A) (A)
                 (A) (A) (A) (A) (A) (A) (A) (A) (A) (A) (A) (A)
                 (A) (A) (A) (A) (A) (A) (A) (A) (A) (A) (A) (A)
                 (A) (A) (A) (A) (A) (A) (A) (A) (A) (A) (A) (A)
                 (A) (A) (A) (A) (A) (A) (A) (A) (A) (A) (A) (A)
                 (A) (A) (A) (A) (A) (A) (A) (A) (A) (A) (A) (A)
                 (A) (A) (A) (A) (A) (A) (A) (A) (A) (A) (A) (A)
                 (A) (A) (A) (A) (A) (A) (A) (A) (A) (A) (A) (A)
                 (A) (A) (A) (A) (A) (A) (A) (A) (A) (A) (A) (A)
                 (A) (A) (A) (A) (A) (A) (A) (A) (A) (A) (A) (A)
                 (A) (A) (A) (A) (A) (A) (A) (A) (A) (A) (A) (A)
                 (A) (A) (A) (A) (A) (A) (A) (A) (A) (A) (A) (A)
                 (A) (A) (A) (A) (A) (A) (A) (A) (A) (A) (A) (A)
                 (A) (A) (A) (A) (A) (A) (A) (A) (A) (A) (A) (A)
                 (A) (A) (A) (A) (A) (A) (A) (A) (A) (A) (A) (A)
                 (A) (A) (A) (A) (A) (A) (A) (A) (A)
 The electronic state is 1-A.
 Alpha  occ. eigenvalues --  -10.18405 -10.18105 -10.17862 -10.17714 -10.17465
 Alpha  occ. eigenvalues --  -10.17403 -10.17104 -10.16651 -10.16499  -0.88232
 Alpha  occ. eigenvalues --   -0.79314  -0.71708  -0.67863  -0.67295  -0.64440
 Alpha  occ. eigenvalues --   -0.58329  -0.54111  -0.52146  -0.49498  -0.45948
 Alpha  occ. eigenvalues --   -0.44783  -0.43885  -0.40701  -0.39684  -0.38078
 Alpha  occ. eigenvalues --   -0.36179  -0.35796  -0.34796  -0.33851  -0.32799
 Alpha  occ. eigenvalues --   -0.31093  -0.29583  -0.29453  -0.28822  -0.28406
 Alpha virt. eigenvalues --    0.07998   0.10519   0.11856   0.12237   0.13068
 Alpha virt. eigenvalues --    0.13775   0.14867   0.15220   0.15553   0.16926
 Alpha virt. eigenvalues --    0.17998   0.18216   0.19001   0.19506   0.20005
 Alpha virt. eigenvalues --    0.20643   0.21649   0.22295   0.23134   0.24038
 Alpha virt. eigenvalues --    0.25916   0.26988   0.27833   0.28439   0.29655
 Alpha virt. eigenvalues --    0.32771   0.44082   0.46406   0.46989   0.47467
 Alpha virt. eigenvalues --    0.49107   0.49891   0.51483   0.52084   0.53685
 Alpha virt. eigenvalues --    0.55375   0.56017   0.56617   0.58685   0.59619
 Alpha virt. eigenvalues --    0.60706   0.61930   0.62618   0.64135   0.64862
 Alpha virt. eigenvalues --    0.65048   0.67562   0.69684   0.71759   0.72327
 Alpha virt. eigenvalues --    0.73413   0.74283   0.75232   0.75914   0.76135
 Alpha virt. eigenvalues --    0.77489   0.77685   0.78662   0.79489   0.81328
 Alpha virt. eigenvalues --    0.82558   0.82922   0.83351   0.84125   0.86401
 Alpha virt. eigenvalues --    0.86700   0.88887   0.90778   0.93384   0.96991
 Alpha virt. eigenvalues --    0.98458   1.03866   1.04424   1.07204   1.08654
 Alpha virt. eigenvalues --    1.10378   1.14072   1.18384   1.18896   1.22808
 Alpha virt. eigenvalues --    1.28385   1.29265   1.31116   1.32381   1.35348
 Alpha virt. eigenvalues --    1.37553   1.39170   1.39692   1.40693   1.42722
 Alpha virt. eigenvalues --    1.44237   1.45442   1.47027   1.49237   1.50614
 Alpha virt. eigenvalues --    1.52270   1.55270   1.55573   1.57051   1.57698
 Alpha virt. eigenvalues --    1.59790   1.61236   1.63497   1.65118   1.66134
 Alpha virt. eigenvalues --    1.66611   1.66928   1.70901   1.74412   1.76875
 Alpha virt. eigenvalues --    1.77280   1.82177   1.83498   1.84685   1.86166
 Alpha virt. eigenvalues --    1.88082   1.91044   1.94337   1.95933   1.97409
 Alpha virt. eigenvalues --    1.97941   2.00664   2.01077   2.04422   2.21632
 Alpha virt. eigenvalues --    2.23773   2.25390   2.26622   2.27797   2.29092
 Alpha virt. eigenvalues --    2.30936   2.32550   2.35693   2.36119   2.37196
 Alpha virt. eigenvalues --    2.38631   2.40268   2.42925   2.45835   2.48051
 Alpha virt. eigenvalues --    2.51991   2.54460   2.55901   2.57316   2.58004
 Alpha virt. eigenvalues --    2.61789   2.63729   2.65092   2.73521   2.74559
 Alpha virt. eigenvalues --    2.75993   2.77687   2.79793   2.80471   2.82408
 Alpha virt. eigenvalues --    2.84248   2.85650   2.87190   2.90160   2.90363
 Alpha virt. eigenvalues --    2.91094   2.92181   2.93732   2.94916   2.95435
 Alpha virt. eigenvalues --    2.96565   2.98364   3.01246   3.02113   3.03214
 Alpha virt. eigenvalues --    3.04485   3.05655   3.07289   3.08574   3.11594
 Alpha virt. eigenvalues --    3.12536   3.15617   3.18154   3.19736   3.21618
 Alpha virt. eigenvalues --    3.23991   3.25760   3.28362   3.29086   3.31404
 Alpha virt. eigenvalues --    3.33081   3.34649   3.39680   3.41560   3.42588
 Alpha virt. eigenvalues --    3.46272   3.48169   3.49031   3.49742   3.50673
 Alpha virt. eigenvalues --    3.54570   3.57804   3.58850   3.60183   3.60630
 Alpha virt. eigenvalues --    3.64155   3.65777   3.66679   3.69764   3.72359
 Alpha virt. eigenvalues --    3.74239   3.75483   3.81331   3.83296   3.84955
 Alpha virt. eigenvalues --    3.88971   3.91374   3.93205   3.97490   3.99084
 Alpha virt. eigenvalues --    4.01079   4.04477   4.07747   4.11725   4.15224
 Alpha virt. eigenvalues --    4.18889   4.21651   4.26196   4.29940   4.35195
 Alpha virt. eigenvalues --    4.38350   4.39226   4.41438   4.42532   4.43247
 Alpha virt. eigenvalues --    4.45298   4.46444   4.47125   4.48582   4.54277
 Alpha virt. eigenvalues --    4.56416   4.57870   4.59856   4.60426   4.62346
 Alpha virt. eigenvalues --    4.64438   4.66267   4.66662   4.67756   4.69527
 Alpha virt. eigenvalues --    4.70635   4.73408   4.73969   4.75435   4.76760
 Alpha virt. eigenvalues --    4.77358   4.79229   4.80593   4.81723   4.83926
 Alpha virt. eigenvalues --    4.86022   4.86587   4.87989   4.88808   4.90824
 Alpha virt. eigenvalues --    4.91179   4.92520   4.95030   4.95177   5.00299
 Alpha virt. eigenvalues --    5.05976   5.09095   5.12011   5.18394   5.19299
 Alpha virt. eigenvalues --    5.20505   5.26832   5.27233   5.33488   5.39498
 Alpha virt. eigenvalues --    5.41778   5.45501   5.48298   5.50428   5.52343
 Alpha virt. eigenvalues --    5.58332   5.62903   5.65088   5.76259   5.94038
 Alpha virt. eigenvalues --    6.22695   6.37686   7.59154  11.13141  11.34221
 Alpha virt. eigenvalues --   11.83019  11.94897  12.02818  12.09917  12.62070
 Alpha virt. eigenvalues --   12.70843  13.10282
          Condensed to atoms (all electrons):
               1          2          3          4          5          6
     1  C    5.007116   0.407391  -0.053405  -0.022855  -0.000586  -0.000232
     2  C    0.407391   4.642161   0.395368   0.428611  -0.019509   0.003118
     3  C   -0.053405   0.395368   5.024432  -0.025684   0.003261  -0.000140
     4  C   -0.022855   0.428611  -0.025684   4.661519   0.324135  -0.045255
     5  C   -0.000586  -0.019509   0.003261   0.324135   5.012585   0.404767
     6  C   -0.000232   0.003118  -0.000140  -0.045255   0.404767   4.710083
     7  C    0.000355   0.002859   0.000029  -0.013508  -0.026480   0.376600
     8  C   -0.013984  -0.028752   0.000775   0.419902  -0.051692  -0.038110
     9  C   -0.000394  -0.006968  -0.000028  -0.011491  -0.033887   0.372675
    10  H    0.369176  -0.021919  -0.005611   0.003656  -0.000050   0.000003
    11  H    0.374773  -0.023169  -0.004825  -0.008978  -0.000127   0.000150
    12  H    0.368663  -0.021769   0.005444  -0.003012   0.001345  -0.000423
    13  H   -0.049258   0.357327  -0.042848  -0.039970  -0.011417   0.000168
    14  H   -0.005669  -0.026174   0.373755  -0.005123   0.000095   0.000005
    15  H   -0.002603  -0.021316   0.367048   0.002998  -0.000204   0.000003
    16  H    0.005216  -0.023368   0.367729  -0.004969   0.000338  -0.000006
    17  H    0.006233  -0.051410  -0.012138   0.369040  -0.038896   0.001179
    18  H   -0.000007   0.002351  -0.000246  -0.020080   0.356439  -0.025156
    19  H    0.001179  -0.010431   0.000305  -0.027163   0.364403  -0.028604
    20  H    0.000003  -0.000039   0.000003   0.008787  -0.050835   0.364775
    21  H    0.000013   0.000343  -0.000025  -0.004326  -0.005308  -0.028107
    22  H    0.000002  -0.000169   0.000001   0.002113   0.004188  -0.025488
    23  H   -0.001061   0.000901  -0.000172  -0.055264   0.011752   0.006488
    24  H   -0.000918   0.000106   0.000043  -0.004820  -0.002972  -0.028613
    25  H   -0.000008   0.000094   0.000001   0.002892   0.003645  -0.023041
               7          8          9         10         11         12
     1  C    0.000355  -0.013984  -0.000394   0.369176   0.374773   0.368663
     2  C    0.002859  -0.028752  -0.006968  -0.021919  -0.023169  -0.021769
     3  C    0.000029   0.000775  -0.000028  -0.005611  -0.004825   0.005444
     4  C   -0.013508   0.419902  -0.011491   0.003656  -0.008978  -0.003012
     5  C   -0.026480  -0.051692  -0.033887  -0.000050  -0.000127   0.001345
     6  C    0.376600  -0.038110   0.372675   0.000003   0.000150  -0.000423
     7  C    4.987781   0.348514  -0.080868  -0.000006  -0.000082   0.000009
     8  C    0.348514   4.796142   0.359071   0.000073   0.004753  -0.000178
     9  C   -0.080868   0.359071   4.986701   0.000147  -0.000132  -0.002354
    10  H   -0.000006   0.000073   0.000147   0.614494  -0.034092  -0.031074
    11  H   -0.000082   0.004753  -0.000132  -0.034092   0.597898  -0.033909
    12  H    0.000009  -0.000178  -0.002354  -0.031074  -0.033909   0.600105
    13  H   -0.000176   0.005510   0.000123  -0.004373   0.006494  -0.003884
    14  H   -0.000084   0.001517   0.000006  -0.000213   0.004768  -0.000060
    15  H    0.000001  -0.000104   0.000001   0.004399  -0.000198  -0.000066
    16  H    0.000001  -0.000141  -0.000001   0.000001  -0.000040  -0.000227
    17  H   -0.005266  -0.051613   0.005486  -0.000168   0.000097  -0.000107
    18  H   -0.006230   0.004976   0.004621   0.000003  -0.000007  -0.000035
    19  H    0.004775  -0.000408  -0.004903  -0.000142   0.000039   0.001827
    20  H   -0.042146   0.008860  -0.043023   0.000000  -0.000002   0.000002
    21  H    0.349038  -0.029153   0.010169  -0.000000   0.000000  -0.000001
    22  H    0.370604  -0.022628  -0.003550  -0.000000   0.000003  -0.000001
    23  H   -0.039054   0.363527  -0.046810  -0.000009   0.001578   0.000108
    24  H    0.010138  -0.025390   0.350755  -0.000034   0.000242   0.005687
    25  H   -0.007079  -0.023427   0.374832  -0.000005   0.000055   0.000034
              13         14         15         16         17         18
     1  C   -0.049258  -0.005669  -0.002603   0.005216   0.006233  -0.000007
     2  C    0.357327  -0.026174  -0.021316  -0.023368  -0.051410   0.002351
     3  C   -0.042848   0.373755   0.367048   0.367729  -0.012138  -0.000246
     4  C   -0.039970  -0.005123   0.002998  -0.004969   0.369040  -0.020080
     5  C   -0.011417   0.000095  -0.000204   0.000338  -0.038896   0.356439
     6  C    0.000168   0.000005   0.000003  -0.000006   0.001179  -0.025156
     7  C   -0.000176  -0.000084   0.000001   0.000001  -0.005266  -0.006230
     8  C    0.005510   0.001517  -0.000104  -0.000141  -0.051613   0.004976
     9  C    0.000123   0.000006   0.000001  -0.000001   0.005486   0.004621
    10  H   -0.004373  -0.000213   0.004399   0.000001  -0.000168   0.000003
    11  H    0.006494   0.004768  -0.000198  -0.000040   0.000097  -0.000007
    12  H   -0.003884  -0.000060  -0.000066  -0.000227  -0.000107  -0.000035
    13  H    0.708138   0.006505  -0.004239  -0.003614   0.001816   0.001088
    14  H    0.006505   0.603073  -0.032790  -0.032889   0.000557   0.000002
    15  H   -0.004239  -0.032790   0.614658  -0.031998   0.000148   0.000005
    16  H   -0.003614  -0.032889  -0.031998   0.611065   0.006689  -0.000015
    17  H    0.001816   0.000557   0.000148   0.006689   0.703087  -0.011907
    18  H    0.001088   0.000002   0.000005  -0.000015  -0.011907   0.642346
    19  H    0.003855   0.000006  -0.000003   0.000015   0.005365  -0.042562
    20  H   -0.000009  -0.000000  -0.000000   0.000000  -0.000199  -0.000382
    21  H   -0.000002   0.000002   0.000000  -0.000005   0.005489   0.003174
    22  H    0.000003   0.000002  -0.000000   0.000000   0.000143  -0.000012
    23  H   -0.000062   0.001385  -0.000031   0.000021  -0.000970  -0.000169
    24  H   -0.000132  -0.000007   0.000000  -0.000001  -0.000155  -0.000138
    25  H    0.000005   0.000000  -0.000000  -0.000000  -0.000131  -0.000144
              19         20         21         22         23         24
     1  C    0.001179   0.000003   0.000013   0.000002  -0.001061  -0.000918
     2  C   -0.010431  -0.000039   0.000343  -0.000169   0.000901   0.000106
     3  C    0.000305   0.000003  -0.000025   0.000001  -0.000172   0.000043
     4  C   -0.027163   0.008787  -0.004326   0.002113  -0.055264  -0.004820
     5  C    0.364403  -0.050835  -0.005308   0.004188   0.011752  -0.002972
     6  C   -0.028604   0.364775  -0.028107  -0.025488   0.006488  -0.028613
     7  C    0.004775  -0.042146   0.349038   0.370604  -0.039054   0.010138
     8  C   -0.000408   0.008860  -0.029153  -0.022628   0.363527  -0.025390
     9  C   -0.004903  -0.043023   0.010169  -0.003550  -0.046810   0.350755
    10  H   -0.000142   0.000000  -0.000000  -0.000000  -0.000009  -0.000034
    11  H    0.000039  -0.000002   0.000000   0.000003   0.001578   0.000242
    12  H    0.001827   0.000002  -0.000001  -0.000001   0.000108   0.005687
    13  H    0.003855  -0.000009  -0.000002   0.000003  -0.000062  -0.000132
    14  H    0.000006  -0.000000   0.000002   0.000002   0.001385  -0.000007
    15  H   -0.000003  -0.000000   0.000000  -0.000000  -0.000031   0.000000
    16  H    0.000015   0.000000  -0.000005   0.000000   0.000021  -0.000001
    17  H    0.005365  -0.000199   0.005489   0.000143  -0.000970  -0.000155
    18  H   -0.042562  -0.000382   0.003174  -0.000012  -0.000169  -0.000138
    19  H    0.636309  -0.000102  -0.000114  -0.000130  -0.000153   0.002499
    20  H   -0.000102   0.709831   0.001025  -0.002077  -0.000720   0.001142
    21  H   -0.000114   0.001025   0.666594  -0.043857   0.001105  -0.000754
    22  H   -0.000130  -0.002077  -0.043857   0.622973  -0.001488   0.000072
    23  H   -0.000153  -0.000720   0.001105  -0.001488   0.708297   0.001300
    24  H    0.002499   0.001142  -0.000754   0.000072   0.001300   0.655081
    25  H   -0.000001  -0.001777   0.000165   0.003550  -0.001662  -0.043642
              25
     1  C   -0.000008
     2  C    0.000094
     3  C    0.000001
     4  C    0.002892
     5  C    0.003645
     6  C   -0.023041
     7  C   -0.007079
     8  C   -0.023427
     9  C    0.374832
    10  H   -0.000005
    11  H    0.000055
    12  H    0.000034
    13  H    0.000005
    14  H    0.000000
    15  H   -0.000000
    16  H   -0.000000
    17  H   -0.000131
    18  H   -0.000144
    19  H   -0.000001
    20  H   -0.001777
    21  H    0.000165
    22  H    0.003550
    23  H   -0.001662
    24  H   -0.043642
    25  H    0.614651
 Mulliken charges:
               1
     1  C   -0.389143
     2  C    0.014364
     3  C   -0.393073
     4  C    0.068845
     5  C   -0.244991
     6  C    0.003162
     7  C   -0.229723
     8  C   -0.028041
     9  C   -0.230179
    10  H    0.105746
    11  H    0.114710
    12  H    0.113877
    13  H    0.068950
    14  H    0.111332
    15  H    0.104291
    16  H    0.106200
    17  H    0.067629
    18  H    0.092083
    19  H    0.094139
    20  H    0.046883
    21  H    0.074536
    22  H    0.095747
    23  H    0.051160
    24  H    0.080508
    25  H    0.100989
 Sum of Mulliken charges =  -0.00000
 Mulliken charges with hydrogens summed into heavy atoms:
               1
     1  C   -0.054810
     2  C    0.083313
     3  C   -0.071251
     4  C    0.136474
     5  C   -0.058769
     6  C    0.050045
     7  C   -0.059440
     8  C    0.023119
     9  C   -0.048681
 Electronic spatial extent (au):  <R**2>=           1284.2369
 Charge=             -0.0000 electrons
 Dipole moment (field-independent basis, Debye):
    X=              0.0126    Y=             -0.0185    Z=              0.0679  Tot=              0.0715
 Quadrupole moment (field-independent basis, Debye-Ang):
   XX=            -58.3924   YY=            -58.3068   ZZ=            -57.9296
   XY=              0.1275   XZ=             -0.9836   YZ=             -0.3510
 Traceless Quadrupole moment (field-independent basis, Debye-Ang):
   XX=             -0.1828   YY=             -0.0972   ZZ=              0.2800
   XY=              0.1275   XZ=             -0.9836   YZ=             -0.3510
 Octapole moment (field-independent basis, Debye-Ang**2):
  XXX=              1.4614  YYY=             -2.4669  ZZZ=             -1.0199  XYY=              0.7685
  XXY=              2.8604  XXZ=             -0.5272  XZZ=              0.2022  YZZ=              1.1754
  YYZ=              1.4181  XYZ=             -0.5722
 Hexadecapole moment (field-independent basis, Debye-Ang**3):
 XXXX=          -1118.7883 YYYY=           -368.2283 ZZZZ=           -284.8841 XXXY=             -2.6386
 XXXZ=            -14.4681 YYYX=              2.4885 YYYZ=             -1.9206 ZZZX=             -0.7720
 ZZZY=             -0.9090 XXYY=           -252.9083 XXZZ=           -233.6598 YYZZ=           -109.2985
 XXYZ=             -3.1283 YYXZ=             -1.9523 ZZXY=              0.2805
 N-N= 4.864972120173D+02 E-N=-1.788015955896D+03  KE= 3.495072728475D+02
 PrsmSu:  requested number of processors reduced to:  13 ShMem   1 Linda.
 Calling FoFJK, ICntrl=      2127 FMM=F ISym2X=0 I1Cent= 0 IOpClX= 0 NMat=1 NMatS=1 NMatT=0.
 ***** Axes restored to original set *****
 -------------------------------------------------------------------
 Center     Atomic                   Forces (Hartrees/Bohr)
 Number     Number              X              Y              Z
 -------------------------------------------------------------------
      1        6          -0.003175240   -0.000731568   -0.003928453
      2        6           0.005564079    0.011594807    0.003669150
      3        6           0.002532524    0.003694723   -0.001508379
      4        6          -0.010935989    0.004023504   -0.000299539
      5        6           0.003633300   -0.011585890   -0.002204959
      6        6          -0.008669755   -0.031709047    0.008596545
      7        6           0.016744928    0.012431935   -0.007479805
      8        6          -0.004876203   -0.025164652    0.027418399
      9        6           0.000806655    0.022816649   -0.019427327
     10        1           0.001142810   -0.000010368    0.000923216
     11        1          -0.000512245   -0.001628458   -0.000617716
     12        1          -0.002220887   -0.001146123    0.001070045
     13        1           0.000714617   -0.001892266   -0.001023856
     14        1          -0.000144021    0.000377629    0.001560999
     15        1          -0.001131518    0.000185926    0.002004484
     16        1          -0.000362842   -0.000057039    0.001697594
     17        1          -0.003510554    0.001110875    0.000913964
     18        1          -0.001654399   -0.001144262   -0.003927124
     19        1           0.000156680    0.000815765   -0.000382919
     20        1           0.002462874   -0.001062683   -0.005457912
     21        1           0.002276561    0.001455734    0.001482253
     22        1          -0.005139581    0.004589005   -0.003813974
     23        1          -0.000033443    0.007176789    0.000982134
     24        1          -0.002623740    0.002348786   -0.001552386
     25        1           0.008955389    0.003510228    0.001305566
 -------------------------------------------------------------------
 Cartesian Forces:  Max     0.031709047 RMS     0.008001637

 GradGradGradGradGradGradGradGradGradGradGradGradGradGradGradGradGradGrad
 Berny optimization.
 FormGI is forming the generalized inverse of G from B-inverse, IUseBI=4.
 Internal  Forces:  Max     0.016831156 RMS     0.003318210
 Search for a local minimum.
 Step number   1 out of a maximum of  150
 All quantities printed in internal units (Hartrees-Bohrs-Radians)
 Mixed Optimization -- RFO/linear search
 Second derivative matrix not updated -- first step.
 ITU=  0
     Eigenvalues ---    0.00264   0.00332   0.00424   0.00554   0.01882
     Eigenvalues ---    0.02001   0.02222   0.02764   0.02904   0.03119
     Eigenvalues ---    0.03123   0.03444   0.03802   0.03829   0.03946
     Eigenvalues ---    0.04525   0.04666   0.05218   0.05288   0.05323
     Eigenvalues ---    0.05391   0.05419   0.05596   0.05660   0.05792
     Eigenvalues ---    0.06255   0.06296   0.06616   0.06776   0.07254
     Eigenvalues ---    0.07978   0.08920   0.11844   0.12275   0.12753
     Eigenvalues ---    0.16000   0.16000   0.16000   0.16000   0.16000
     Eigenvalues ---    0.16000   0.16733   0.18004   0.19414   0.21025
     Eigenvalues ---    0.22133   0.24467   0.25607   0.27388   0.28700
     Eigenvalues ---    0.29167   0.29171   0.29809   0.33795   0.33814
     Eigenvalues ---    0.33840   0.34078   0.34083   0.34122   0.34178
     Eigenvalues ---    0.34221   0.34266   0.34321   0.34366   0.34387
     Eigenvalues ---    0.34529   0.34906   0.35051   0.35172
 RFO step:  Lambda=-1.62717497D-02 EMin= 2.63680380D-03
 Linear search not attempted -- first point.
 Iteration  1 RMS(Cart)=  0.05264952 RMS(Int)=  0.00169607
 Iteration  2 RMS(Cart)=  0.00204117 RMS(Int)=  0.00086484
 Iteration  3 RMS(Cart)=  0.00000256 RMS(Int)=  0.00086484
 Iteration  4 RMS(Cart)=  0.00000000 RMS(Int)=  0.00086484
 Variable       Old X    -DE/DX   Delta X   Delta X   Delta X     New X
                                 (Linear)    (Quad)   (Total)
    R1        2.88346   0.00482   0.00000   0.01532   0.01532   2.89878
    R2        2.07190  -0.00063   0.00000  -0.00178  -0.00178   2.07012
    R3        2.06884   0.00001   0.00000   0.00002   0.00002   2.06886
    R4        2.06446   0.00078   0.00000   0.00217   0.00217   2.06662
    R5        2.89657   0.00562   0.00000   0.01826   0.01826   2.91483
    R6        2.90634   0.00715   0.00000   0.02359   0.02359   2.92993
    R7        2.07677   0.00066   0.00000   0.00185   0.00185   2.07862
    R8        2.06717   0.00144   0.00000   0.00401   0.00401   2.07119
    R9        2.07031  -0.00002   0.00000  -0.00005  -0.00005   2.07026
   R10        2.07124  -0.00038   0.00000  -0.00106  -0.00106   2.07018
   R11        2.90620   0.01683   0.00000   0.07098   0.07012   2.97632
   R12        2.90491   0.00104   0.00000   0.00270   0.00243   2.90734
   R13        2.07644  -0.00259   0.00000  -0.00729  -0.00729   2.06915
   R14        2.88765  -0.00071   0.00000   0.00333   0.00329   2.89093
   R15        2.06959  -0.00055   0.00000  -0.00153  -0.00153   2.06806
   R16        2.06682   0.00045   0.00000   0.00126   0.00126   2.06808
   R17        2.94973   0.00175   0.00000   0.00123   0.00109   2.95082
   R18        2.94645  -0.00110   0.00000  -0.00440  -0.00319   2.94327
   R19        2.05397   0.00399   0.00000   0.01085   0.01085   2.06482
   R20        2.97878   0.00064   0.00000  -0.00688  -0.00719   2.97158
   R21        2.06792   0.00263   0.00000   0.00730   0.00730   2.07522
   R22        2.07198  -0.00439   0.00000  -0.01230  -0.01230   2.05968
   R23        2.96970  -0.00154   0.00000  -0.01298  -0.01257   2.95713
   R24        2.05592   0.00304   0.00000   0.00829   0.00829   2.06421
   R25        2.05827   0.00374   0.00000   0.01023   0.01023   2.06850
   R26        2.07600  -0.00599   0.00000  -0.01688  -0.01688   2.05913
    A1        1.92545  -0.00169   0.00000  -0.00755  -0.00757   1.91787
    A2        1.95042   0.00016   0.00000  -0.00190  -0.00189   1.94852
    A3        1.94562   0.00299   0.00000   0.01766   0.01767   1.96329
    A4        1.87464   0.00058   0.00000   0.00188   0.00186   1.87651
    A5        1.85938   0.00020   0.00000   0.00655   0.00653   1.86591
    A6        1.90476  -0.00233   0.00000  -0.01692  -0.01690   1.88786
    A7        1.91189   0.00070   0.00000   0.00568   0.00575   1.91764
    A8        2.03530  -0.00263   0.00000  -0.01861  -0.01869   2.01661
    A9        1.86822   0.00030   0.00000  -0.00377  -0.00401   1.86422
   A10        1.92415   0.00167   0.00000   0.01039   0.01043   1.93458
   A11        1.84296   0.00043   0.00000   0.01705   0.01707   1.86003
   A12        1.87030  -0.00028   0.00000  -0.00801  -0.00825   1.86205
   A13        1.94750   0.00001   0.00000  -0.00404  -0.00402   1.94348
   A14        1.93183   0.00135   0.00000   0.00915   0.00907   1.94089
   A15        1.93024   0.00149   0.00000   0.01101   0.01093   1.94117
   A16        1.89357  -0.00149   0.00000  -0.01326  -0.01324   1.88033
   A17        1.89044  -0.00127   0.00000  -0.01007  -0.01004   1.88039
   A18        1.86782  -0.00021   0.00000   0.00685   0.00668   1.87450
   A19        1.99064   0.00410   0.00000   0.04043   0.03990   2.03054
   A20        2.06979   0.00141   0.00000   0.01491   0.01511   2.08489
   A21        1.88681  -0.00262   0.00000  -0.02879  -0.02919   1.85762
   A22        1.72023  -0.00241   0.00000  -0.00598  -0.00741   1.71281
   A23        1.89182   0.00039   0.00000   0.00884   0.00972   1.90153
   A24        1.89398  -0.00085   0.00000  -0.02839  -0.02845   1.86553
   A25        1.74007   0.00129   0.00000   0.00784   0.00688   1.74695
   A26        1.93196   0.00213   0.00000   0.03042   0.03103   1.96299
   A27        1.98140  -0.00147   0.00000  -0.01548  -0.01558   1.96582
   A28        1.95038  -0.00085   0.00000   0.00016   0.00027   1.95065
   A29        1.95473   0.00001   0.00000  -0.00438  -0.00440   1.95033
   A30        1.90210  -0.00093   0.00000  -0.01581  -0.01586   1.88624
   A31        1.82528  -0.00468   0.00000  -0.05017  -0.04827   1.77700
   A32        1.84927  -0.00733   0.00000  -0.07924  -0.07852   1.77076
   A33        2.07433   0.00090   0.00000   0.00170   0.00187   2.07621
   A34        1.45914   0.00168   0.00000   0.04921   0.04506   1.50420
   A35        2.08202   0.00357   0.00000   0.03519   0.03334   2.11536
   A36        2.06952   0.00483   0.00000   0.04354   0.04208   2.11160
   A37        1.40833   0.00520   0.00000   0.03295   0.03019   1.43851
   A38        2.03066   0.00262   0.00000   0.02734   0.02802   2.05868
   A39        2.01960  -0.00632   0.00000  -0.04010  -0.03958   1.98002
   A40        2.04445   0.00148   0.00000   0.00907   0.00909   2.05354
   A41        2.03980  -0.00665   0.00000  -0.05083  -0.05054   1.98926
   A42        1.88956   0.00323   0.00000   0.01947   0.01922   1.90878
   A43        1.76701  -0.00238   0.00000  -0.02717  -0.02457   1.74244
   A44        1.90450  -0.00625   0.00000  -0.07981  -0.07995   1.82455
   A45        2.09972  -0.00119   0.00000  -0.01294  -0.01339   2.08633
   A46        1.44347   0.00211   0.00000   0.05337   0.04983   1.49329
   A47        2.04868   0.00336   0.00000   0.04336   0.04166   2.09034
   A48        2.07518   0.00485   0.00000   0.04055   0.03782   2.11300
   A49        1.41189   0.00667   0.00000   0.03646   0.03318   1.44506
   A50        2.03850   0.00262   0.00000   0.02800   0.02850   2.06699
   A51        2.01555  -0.00776   0.00000  -0.04724  -0.04674   1.96880
   A52        2.06981   0.00186   0.00000   0.01716   0.01716   2.08697
   A53        2.02192  -0.00815   0.00000  -0.06165  -0.06140   1.96052
   A54        1.87892   0.00402   0.00000   0.02291   0.02286   1.90178
    D1        0.98092  -0.00058   0.00000  -0.01064  -0.01064   0.97028
    D2       -3.10217   0.00022   0.00000  -0.00630  -0.00632  -3.10849
    D3       -1.00921  -0.00160   0.00000  -0.03142  -0.03140  -1.04061
    D4       -1.10340  -0.00028   0.00000  -0.00673  -0.00674  -1.11014
    D5        1.09670   0.00052   0.00000  -0.00239  -0.00242   1.09428
    D6       -3.09353  -0.00130   0.00000  -0.02751  -0.02750  -3.12103
    D7        3.04305   0.00046   0.00000   0.00379   0.00380   3.04685
    D8       -1.04004   0.00127   0.00000   0.00813   0.00812  -1.03192
    D9        1.05292  -0.00056   0.00000  -0.01699  -0.01696   1.03596
   D10        1.11009  -0.00082   0.00000  -0.00058  -0.00059   1.10950
   D11       -1.00053   0.00013   0.00000   0.01271   0.01275  -0.98778
   D12       -3.06753  -0.00140   0.00000  -0.00854  -0.00860  -3.07613
   D13       -1.15207   0.00080   0.00000   0.01149   0.01152  -1.14055
   D14        3.02049   0.00176   0.00000   0.02478   0.02486   3.04535
   D15        0.95350   0.00022   0.00000   0.00353   0.00351   0.95700
   D16        3.11646   0.00009   0.00000   0.00661   0.00660   3.12306
   D17        1.00583   0.00105   0.00000   0.01991   0.01994   1.02577
   D18       -1.06116  -0.00049   0.00000  -0.00134  -0.00142  -1.06258
   D19        1.47054  -0.00165   0.00000  -0.05435  -0.05435   1.41619
   D20       -0.54359  -0.00277   0.00000  -0.09037  -0.09015  -0.63374
   D21       -2.70725  -0.00038   0.00000  -0.03757  -0.03760  -2.74485
   D22       -2.61869  -0.00134   0.00000  -0.05247  -0.05253  -2.67121
   D23        1.65038  -0.00246   0.00000  -0.08849  -0.08833   1.56204
   D24       -0.51328  -0.00007   0.00000  -0.03569  -0.03578  -0.54906
   D25       -0.62131  -0.00014   0.00000  -0.03145  -0.03158  -0.65289
   D26       -2.63543  -0.00125   0.00000  -0.06747  -0.06739  -2.70282
   D27        1.48409   0.00113   0.00000  -0.01468  -0.01483   1.46926
   D28       -2.32092  -0.00083   0.00000  -0.00906  -0.00842  -2.32934
   D29        1.90627  -0.00137   0.00000  -0.02522  -0.02523   1.88104
   D30       -0.23935  -0.00070   0.00000  -0.01635  -0.01634  -0.25569
   D31       -0.11017   0.00140   0.00000   0.02604   0.02688  -0.08329
   D32       -2.16616   0.00086   0.00000   0.00988   0.01007  -2.15609
   D33        1.97141   0.00153   0.00000   0.01875   0.01896   1.99036
   D34        1.85966  -0.00044   0.00000  -0.00494  -0.00458   1.85508
   D35       -0.19634  -0.00098   0.00000  -0.02111  -0.02138  -0.21772
   D36       -2.34195  -0.00030   0.00000  -0.01224  -0.01250  -2.35445
   D37        3.02562   0.00187   0.00000   0.03161   0.03118   3.05680
   D38        1.52300   0.00150   0.00000  -0.00256  -0.00077   1.52223
   D39       -0.96690   0.00336   0.00000   0.05618   0.05550  -0.91139
   D40        0.87066  -0.00225   0.00000  -0.02291  -0.02257   0.84809
   D41       -0.63196  -0.00262   0.00000  -0.05709  -0.05452  -0.68648
   D42       -3.12186  -0.00075   0.00000   0.00165   0.00175  -3.12010
   D43       -1.09744  -0.00139   0.00000  -0.02144  -0.02181  -1.11925
   D44       -2.60006  -0.00176   0.00000  -0.05562  -0.05375  -2.65381
   D45        1.19323   0.00011   0.00000   0.00312   0.00252   1.19574
   D46       -0.68722  -0.00020   0.00000  -0.02307  -0.02353  -0.71076
   D47        0.83818  -0.00150   0.00000  -0.00383  -0.00512   0.83306
   D48       -3.06249  -0.00137   0.00000  -0.02347  -0.02378  -3.08627
   D49        1.35498   0.00260   0.00000   0.01608   0.01610   1.37109
   D50        2.88038   0.00130   0.00000   0.03532   0.03452   2.91490
   D51       -1.02028   0.00143   0.00000   0.01568   0.01586  -1.00443
   D52       -2.78832   0.00077   0.00000  -0.00762  -0.00742  -2.79574
   D53       -1.26292  -0.00053   0.00000   0.01162   0.01099  -1.25192
   D54        1.11960  -0.00040   0.00000  -0.00802  -0.00767   1.11193
   D55        1.11312   0.00250   0.00000   0.03385   0.03418   1.14730
   D56       -0.90730  -0.00175   0.00000   0.00665   0.00633  -0.90097
   D57        3.12779  -0.00282   0.00000  -0.00952  -0.01001   3.11778
   D58       -0.71723   0.00946   0.00000   0.10168   0.10316  -0.61407
   D59       -2.73766   0.00521   0.00000   0.07447   0.07530  -2.66235
   D60        1.29744   0.00414   0.00000   0.05830   0.05897   1.35641
   D61       -2.79893   0.00221   0.00000   0.01601   0.01625  -2.78268
   D62        1.46383  -0.00204   0.00000  -0.01119  -0.01161   1.45223
   D63       -0.78425  -0.00311   0.00000  -0.02736  -0.02795  -0.81220
   D64       -1.08493  -0.00497   0.00000  -0.06536  -0.06608  -1.15101
   D65        0.96615   0.00057   0.00000  -0.02606  -0.02591   0.94025
   D66       -3.08120   0.00137   0.00000  -0.01155  -0.01133  -3.09253
   D67        0.71939  -0.00904   0.00000  -0.10070  -0.10247   0.61692
   D68        2.77048  -0.00350   0.00000  -0.06140  -0.06230   2.70818
   D69       -1.27687  -0.00271   0.00000  -0.04690  -0.04773  -1.32460
   D70        2.81324  -0.00308   0.00000  -0.02431  -0.02440   2.78884
   D71       -1.41886   0.00246   0.00000   0.01499   0.01577  -1.40308
   D72        0.81698   0.00325   0.00000   0.02949   0.03035   0.84733
   D73       -1.17524  -0.00344   0.00000  -0.02852  -0.02875  -1.20399
   D74        0.71204  -0.00930   0.00000  -0.09927  -0.10072   0.61132
   D75        2.78620  -0.00224   0.00000  -0.01944  -0.01951   2.76669
   D76        0.83051   0.00213   0.00000   0.01888   0.01899   0.84950
   D77        2.71780  -0.00373   0.00000  -0.05187  -0.05299   2.66481
   D78       -1.49123   0.00334   0.00000   0.02796   0.02822  -1.46301
   D79        3.11486   0.00146   0.00000   0.00303   0.00360   3.11846
   D80       -1.28104  -0.00440   0.00000  -0.06772  -0.06838  -1.34942
   D81        0.79312   0.00267   0.00000   0.01211   0.01283   0.80595
   D82        1.02267   0.00729   0.00000   0.09266   0.09310   1.11576
   D83       -0.99556   0.00062   0.00000   0.04000   0.03984  -0.95572
   D84        3.01211   0.00139   0.00000   0.05439   0.05391   3.06602
   D85       -0.71251   0.00866   0.00000   0.09809   0.09998  -0.61253
   D86       -2.73073   0.00200   0.00000   0.04544   0.04672  -2.68401
   D87        1.27694   0.00277   0.00000   0.05982   0.06079   1.33773
   D88       -2.76010   0.00295   0.00000   0.01284   0.01278  -2.74732
   D89        1.50486  -0.00372   0.00000  -0.03982  -0.04048   1.46438
   D90       -0.77066  -0.00295   0.00000  -0.02543  -0.02641  -0.79707
         Item               Value     Threshold  Converged?
 Maximum Force            0.016831     0.000450     NO 
 RMS     Force            0.003318     0.000300     NO 
 Maximum Displacement     0.218790     0.001800     NO 
 RMS     Displacement     0.052839     0.001200     NO 
 Predicted change in Energy=-1.004201D-02
 GradGradGradGradGradGradGradGradGradGradGradGradGradGradGradGradGradGrad

                          Input orientation:                          
 ---------------------------------------------------------------------
 Center     Atomic      Atomic             Coordinates (Angstroms)
 Number     Number       Type             X           Y           Z
 ---------------------------------------------------------------------
      1          6           0        0.991025    0.036927    0.047865
      2          6           0        2.522400    0.042792    0.136873
      3          6           0        2.985511    1.124564    1.134109
      4          6           0        3.178437   -1.323991    0.461567
      5          6           0        3.357900   -2.317751   -0.747096
      6          6           0        2.832727   -3.607571   -0.113935
      7          6           0        3.437932   -3.527674    1.323301
      8          6           0        2.476756   -2.288048    1.433788
      9          6           0        1.502996   -3.116336    0.531307
     10          1           0        0.629366    1.036338   -0.217493
     11          1           0        0.532080   -0.236598    1.003439
     12          1           0        0.619156   -0.649603   -0.717886
     13          1           0        2.897374    0.346232   -0.851675
     14          1           0        2.635179    0.907377    2.149672
     15          1           0        2.603266    2.112098    0.853288
     16          1           0        4.078407    1.193095    1.165559
     17          1           0        4.162021   -1.101895    0.888348
     18          1           0        4.402845   -2.414356   -1.057585
     19          1           0        2.769096   -2.026840   -1.622509
     20          1           0        2.868687   -4.533729   -0.692583
     21          1           0        4.516837   -3.346237    1.418184
     22          1           0        3.154982   -4.365669    1.960214
     23          1           0        2.165598   -1.929034    2.417391
     24          1           0        0.778030   -2.594962   -0.101742
     25          1           0        0.988731   -3.899720    1.087330
 ---------------------------------------------------------------------
                    Distance matrix (angstroms):
                    1          2          3          4          5
     1  C    0.000000
     2  C    1.533971   0.000000
     3  C    2.518105   1.542460   0.000000
     4  C    2.609217   1.550454   2.546558   0.000000
     5  C    3.431992   2.655490   3.940449   1.575002   0.000000
     6  C    4.086614   3.672106   4.896332   2.380222   1.529816
     7  C    4.507824   3.872214   4.678013   2.380367   2.399347
     8  C    3.087667   2.667750   3.463317   1.538498   2.352350
     9  C    3.230928   3.342881   4.532820   2.454479   2.390131
    10  H    1.095461   2.167092   2.717726   3.539779   4.356064
    11  H    1.094791   2.188691   2.808765   2.911915   3.921840
    12  H    1.093611   2.198263   3.489583   2.897555   3.206913
    13  H    2.130495   1.099958   2.134691   2.143186   2.705518
    14  H    2.806869   2.193533   1.096025   2.850233   4.394887
    15  H    2.748519   2.191304   1.095534   3.505848   4.770142
    16  H    3.481076   2.191472   1.095494   2.764285   4.062439
    17  H    3.472541   2.136208   2.530158   1.094946   2.190797
    18  H    4.344114   3.316683   4.397308   2.235150   1.094370
    19  H    3.195438   2.727575   4.192509   2.237170   1.094380
    20  H    4.996476   4.663953   5.946993   3.424970   2.269991
    21  H    5.074931   4.135826   4.734313   2.606897   2.662584
    22  H    5.265230   4.812408   5.554623   3.390915   3.400687
    23  H    3.295342   3.035815   3.412262   2.284112   3.403919
    24  H    2.644728   3.171358   4.498353   2.773921   2.673773
    25  H    4.071570   4.335771   5.406732   3.438135   3.388320
                    6          7          8          9         10
     6  C    0.000000
     7  C    1.561507   0.000000
     8  C    2.064777   1.572495   0.000000
     9  C    1.557509   2.130829   1.564846   0.000000
    10  H    5.141150   5.576047   4.146218   4.309134   0.000000
    11  H    4.231425   4.401985   2.859267   3.075463   1.766496
    12  H    3.743559   4.516109   3.280988   2.902831   1.758662
    13  H    4.022562   4.475475   3.512790   3.980742   2.454036
    14  H    5.054473   4.582246   3.278464   4.482322   3.105381
    15  H    5.805410   5.720543   4.440075   5.352643   2.490002
    16  H    5.122033   4.766629   3.841300   5.060258   3.719314
    17  H    3.008323   2.568636   2.131802   3.354976   4.274878
    18  H    2.186209   2.799849   3.151621   3.380308   5.181910
    19  H    2.185991   3.373076   3.081338   2.725608   3.991939
    20  H    1.092655   2.323785   3.117394   2.317762   6.022119
    21  H    2.291705   1.098161   2.298247   3.150023   6.082338
    22  H    2.231738   1.089933   2.248027   2.516281   6.348451
    23  H    3.109688   2.317654   1.092330   2.325090   4.253946
    24  H    2.290700   3.158446   2.310351   1.094604   3.636184
    25  H    2.220070   2.488511   2.220752   1.089642   5.118239
                   11         12         13         14         15
    11  H    0.000000
    12  H    1.772319   0.000000
    13  H    3.061985   2.489952   0.000000
    14  H    2.654346   3.835547   3.064590   0.000000
    15  H    3.135080   3.745967   2.472181   1.770024   0.000000
    16  H    3.827106   4.348484   2.486212   1.770034   1.765821
    17  H    3.733424   3.916178   2.593084   2.821233   3.572212
    18  H    4.896251   4.188801   3.151141   4.944194   5.232467
    19  H    3.886491   2.708758   2.498422   4.780890   4.825751
    20  H    5.177021   4.488593   4.882638   6.143172   6.828409
    21  H    5.071504   5.198706   4.627013   4.708390   5.811564
    22  H    4.984402   5.235626   5.493186   5.301990   6.594781
    23  H    2.744445   3.722686   4.049583   2.887456   4.355309
    24  H    2.616065   2.046777   3.701978   4.558974   5.138091
    25  H    3.692428   3.736128   5.042893   5.191102   6.229242
                   16         17         18         19         20
    16  H    0.000000
    17  H    2.313183   0.000000
    18  H    4.249862   2.359493   0.000000
    19  H    4.455962   3.016648   1.771565   0.000000
    20  H    6.141060   3.993687   2.641706   2.675663   0.000000
    21  H    4.567447   2.333172   2.647797   3.747162   2.929483
    22  H    5.690698   3.579838   3.804195   4.295921   2.673489
    23  H    3.869574   2.647231   4.161283   4.085899   4.117124
    24  H    5.181497   3.828958   3.753071   2.569016   2.911831
    25  H    5.957263   4.235232   4.296876   3.744411   2.665388
                   21         22         23         24         25
    21  H    0.000000
    22  H    1.785409   0.000000
    23  H    2.921507   2.669285   0.000000
    24  H    4.105273   3.610675   2.952091   0.000000
    25  H    3.586550   2.381529   2.652864   1.777831   0.000000
 Stoichiometry    C9H16
 Framework group  C1[X(C9H16)]
 Deg. of freedom    69
 Full point group                 C1      NOp   1
 Largest Abelian subgroup         C1      NOp   1
 Largest concise Abelian subgroup C1      NOp   1
                         Standard orientation:                         
 ---------------------------------------------------------------------
 Center     Atomic      Atomic             Coordinates (Angstroms)
 Number     Number       Type             X           Y           Z
 ---------------------------------------------------------------------
      1          6           0       -1.819218    1.411876   -0.037631
      2          6           0       -1.620763   -0.047523    0.391129
      3          6           0       -2.641892   -0.949829   -0.331589
      4          6           0       -0.182133   -0.602348    0.228586
      5          6           0        0.840307   -0.238568    1.370038
      6          6           0        2.040854    0.194521    0.526557
      7          6           0        2.026569   -0.866902   -0.618641
      8          6           0        0.668121   -0.159367   -0.974665
      9          6           0        1.368550    1.156169   -0.497687
     10          1           0       -2.855025    1.716925    0.146985
     11          1           0       -1.620494    1.549599   -1.105390
     12          1           0       -1.180123    2.102267    0.519955
     13          1           0       -1.860012   -0.099399    1.463499
     14          1           0       -2.485113   -0.940646   -1.416304
     15          1           0       -3.668515   -0.618883   -0.139976
     16          1           0       -2.563658   -1.988360    0.008177
     17          1           0       -0.275187   -1.691676    0.168479
     18          1           0        1.079612   -1.096281    2.006204
     19          1           0        0.483006    0.571789    2.012941
     20          1           0        2.969952    0.470378    1.031112
     21          1           0        1.990330   -1.927690   -0.336910
     22          1           0        2.811823   -0.716307   -1.359352
     23          1           0        0.259547   -0.246379   -1.983963
     24          1           0        0.761889    1.983211   -0.115428
     25          1           0        2.069597    1.543276   -1.236606
 ---------------------------------------------------------------------
 Rotational constants (GHZ):           3.0234143           1.1715525           1.1073730
 Standard basis: 6-31G(2df,p) (6D, 7F)
 There are   359 symmetry adapted cartesian basis functions of A   symmetry.
 There are   332 symmetry adapted basis functions of A   symmetry.
   332 basis functions,   508 primitive gaussians,   359 cartesian basis functions
    35 alpha electrons       35 beta electrons
       nuclear repulsion energy       485.5187245501 Hartrees.
 NAtoms=   25 NActive=   25 NUniq=   25 SFac= 1.00D+00 NAtFMM=   60 NAOKFM=F Big=F
 Integral buffers will be    131072 words long.
 Raffenetti 2 integral format.
 Two-electron integral symmetry is turned on.
 One-electron integrals computed using PRISM.
 PrsmSu:  requested number of processors reduced to:  13 ShMem   1 Linda.
 NBasis=   332 RedAO= T EigKep=  3.93D-04  NBF=   332
 NBsUse=   332 1.00D-06 EigRej= -1.00D+00 NBFU=   332
 Initial guess from the checkpoint file:  "CCqCrC1CC2CC1C2.chk"
 B after Tr=    -0.000000    0.000000   -0.000000
         Rot=    0.998106    0.060591   -0.008800   -0.006028 Ang=   7.05 deg.
 ExpMin= 1.61D-01 ExpMax= 3.05D+03 ExpMxC= 4.57D+02 IAcc=2 IRadAn=         4 AccDes= 0.00D+00
 Harris functional with IExCor=  402 and IRadAn=       4 diagonalized for initial guess.
 HarFok:  IExCor=  402 AccDes= 0.00D+00 IRadAn=         4 IDoV= 1 UseB2=F ITyADJ=14
 ICtDFT=  3500011 ScaDFX=  1.000000  1.000000  1.000000  1.000000
 FoFCou: FMM=F IPFlag=           0 FMFlag=      100000 FMFlg1=           0
         NFxFlg=           0 DoJE=T BraDBF=F KetDBF=T FulRan=T
         wScrn=  0.000000 ICntrl=       500 IOpCl=  0 I1Cent=   200000004 NGrid=           0
         NMat0=    1 NMatS0=      1 NMatT0=    0 NMatD0=    1 NMtDS0=    0 NMtDT0=    0
 Petite list used in FoFCou.
 Requested convergence on RMS density matrix=1.00D-08 within 128 cycles.
 Requested convergence on MAX density matrix=1.00D-06.
 Requested convergence on             energy=1.00D-06.
 No special actions if energy rises.
 Integral accuracy reduced to 1.0D-05 until final iterations.
 Initial convergence to 1.0D-05 achieved.  Increase integral accuracy.
 SCF Done:  E(RB3LYP) =  -352.581710815     A.U. after   10 cycles
            NFock= 10  Conv=0.45D-08     -V/T= 2.0091
 PrsmSu:  requested number of processors reduced to:  13 ShMem   1 Linda.
 Calling FoFJK, ICntrl=      2127 FMM=F ISym2X=0 I1Cent= 0 IOpClX= 0 NMat=1 NMatS=1 NMatT=0.
 ***** Axes restored to original set *****
 -------------------------------------------------------------------
 Center     Atomic                   Forces (Hartrees/Bohr)
 Number     Number              X              Y              Z
 -------------------------------------------------------------------
      1        6          -0.000668365    0.001451782   -0.001991722
      2        6           0.002054931    0.002147033    0.000840864
      3        6          -0.000078786   -0.001462205   -0.001111791
      4        6          -0.000733687    0.003888978   -0.003266196
      5        6           0.003106376    0.001422174   -0.001822241
      6        6          -0.004435763   -0.003626489    0.007608049
      7        6          -0.001360350    0.002687907   -0.002084624
[...]
 0014942,-0.00019029,0.00031448,0.00015818,-0.00038143,-0.00051657,-0.0
 0034271,0.04701089,0.07265293,0.00026321,0.00110434,0.00043779,-0.0076
 0443,-0.00052330,-0.00158143,0.00108110,-0.00078805,0.00034489,-0.0626
 3375,-0.01215370,-0.06263496,-0.02334609,-0.00635643,-0.00996186,0.000
 15672,-0.00060967,-0.00213435,0.00086291,-0.00129992,0.00099616,0.0234
 9326,0.00851340,0.00629584,0.00216838,0.00343910,-0.00385407,-0.000435
 60,0.00008634,0.00009645,-0.00018837,0.00006781,0.00006673,0.00024519,
 -0.00008804,-0.00000889,-0.00009508,-0.00032282,-0.00005793,0.00008156
 ,0.00003524,-0.00000787,0.00013416,0.00004180,-0.00015955,0.00020815,-
 0.00010318,0.00037038,0.06591996,0.01229834,0.07116330,-0.00010813,-0.
 00011437,-0.00023021,0.00005456,0.00004155,0.00010253,-0.00003812,0.00
 009108,-0.00004944,0.00227001,-0.00163440,-0.00337305,-0.26682387,0.02
 777618,0.09174225,-0.00839162,0.00187814,0.00311319,0.00079596,0.00022
 379,-0.00042390,0.00020692,-0.00067402,-0.00101582,0.00010064,-0.00276
 994,0.00063332,0.00003928,0.00011459,0.00011423,0.00004366,0.00004074,
 0.00002830,0.00022296,0.00001216,0.00023201,-0.00007862,0.00016793,0.0
 0001669,0.00001191,-0.00001464,-0.00001938,-0.00001232,0.00002322,0.00
 002367,0.00003037,0.00001280,0.00003347,0.00179075,0.00002229,-0.00000
 630,0.28797225,-0.00020641,0.00000567,0.00008364,0.00018593,0.00005341
 ,-0.00237015,0.00014048,-0.00060638,0.00035683,0.01967048,-0.00244633,
 -0.00740846,0.02846744,-0.04977855,-0.00943796,-0.02640976,0.00533338,
 0.01080376,-0.00031712,0.00120108,-0.00193888,-0.00002425,-0.00238939,
 -0.00194706,-0.00196311,-0.00558773,0.00331723,0.00005988,-0.00003122,
 -0.00003256,0.00000213,-0.00007985,-0.00009395,-0.00015001,0.00002491,
 -0.00005680,-0.00012240,-0.00019880,0.00031774,0.00000872,0.00006198,0
 .00004395,-0.00010454,-0.00020310,-0.00017751,-0.00006847,-0.00001661,
 -0.00005409,-0.00016282,0.00114565,0.00071373,-0.02710405,0.05197446,-
 0.00036179,-0.00008611,-0.00030483,-0.00015805,0.00023811,-0.00186931,
 0.00025163,-0.00036607,0.00023846,0.01826555,-0.00208062,-0.00919955,0
 .08987052,-0.00907212,-0.08443048,0.01077713,-0.00220021,-0.00572540,0
 .00149608,-0.00038735,0.00157952,0.00072368,-0.00250812,-0.00245910,0.
 00038380,0.00223112,-0.00127246,0.00005902,0.00004870,0.00015424,-0.00
 004709,0.00009245,0.00010637,0.00025623,0.00008349,0.00022676,-0.00003
 474,-0.00012734,0.00023776,-0.00001864,0.00005985,0.00005188,-0.000066
 61,-0.00017243,-0.00010152,-0.00002078,0.00000206,0.00000317,0.0000017
 7,-0.00008109,0.00120618,-0.09964953,0.01158669,0.09332946,-0.00006414
 ,0.00021549,0.00050927,0.00044322,0.00088308,-0.00048816,-0.00008924,-
 0.00020428,0.00017775,-0.00085663,-0.00153283,0.00065815,-0.15304785,0
 .04327647,-0.11952788,0.00588007,-0.00208235,0.00845823,-0.00038044,-0
 .00161904,0.00196061,-0.00020570,0.00014421,0.00054178,0.00187206,-0.0
 0052437,0.00015312,0.00019018,-0.00005021,-0.00006414,-0.00003925,0.00
 003025,0.00010808,-0.00038759,0.00076426,0.00030510,-0.00017060,-0.000
 31259,0.00000323,0.00001298,0.00005518,0.00005579,0.00003272,-0.000072
 87,-0.00002242,0.00005130,0.00000963,0.00000719,0.00078760,-0.00033785
 ,-0.00055237,-0.01889405,0.00813210,-0.02179652,0.16373256,0.00035671,
 -0.00044854,-0.00031379,-0.00012744,0.00136093,0.00023719,-0.00020608,
 0.00019883,0.00009437,-0.01521459,0.00526552,-0.01559184,0.04199846,-0
 .06203269,0.04813208,0.01823543,-0.00561131,0.02175689,-0.00249645,-0.
 00557132,0.00272421,-0.00031197,-0.00198653,-0.00117698,0.00158527,0.0
 0107442,-0.00147687,-0.00001988,0.00008070,0.00015516,-0.00007589,0.00
 007092,0.00002710,0.00078368,-0.00038121,-0.00015332,-0.00023222,-0.00
 006868,0.00035344,-0.00001310,0.00002717,0.00007379,0.00008792,0.00002
 489,0.00008072,0.00010522,0.00009443,0.00005055,0.00013503,-0.00192033
 ,-0.00340787,0.00211933,-0.00075062,0.00227755,-0.04717325,0.06876667,
 -0.00024356,-0.00038730,-0.00040693,-0.00101739,0.00161997,0.00078727,
 -0.00003843,-0.00000156,0.00013168,-0.01284649,0.00528843,-0.01402250,
 -0.11793250,0.04755086,-0.18305167,-0.00690692,0.00271838,-0.01038141,
 0.00149951,0.00274275,-0.00067464,-0.00086870,-0.00128515,-0.00103238,
 -0.00159475,0.00052668,0.00073167,0.00013191,0.00020188,0.00032568,-0.
 00004665,0.00020726,0.00022268,0.00088897,-0.00009806,0.00051854,-0.00
 001356,-0.00062502,0.00034626,-0.00003119,0.00010462,0.00009198,0.0000
 5369,-0.00009341,0.00003468,0.00016521,0.00009149,0.00009859,0.0004335
 6,-0.00112259,-0.00253416,0.00773200,-0.00348849,0.00931414,0.12932703
 ,-0.05408031,0.20041527,-0.00011300,0.00004359,0.00006964,-0.00028704,
 -0.00009114,-0.00064218,0.00012134,-0.00020234,0.00014247,0.00056436,-
 0.00200469,0.00153037,-0.00077906,-0.00706141,-0.00639331,-0.05283808,
 -0.00852153,-0.00742512,0.00067238,-0.01326982,-0.00186691,-0.00242448
 ,0.00117792,0.00117738,0.00709249,0.01840980,0.00825962,0.00006430,0.0
 0003327,-0.00002645,0.00009283,-0.00005375,-0.00008983,-0.00000084,-0.
 00000036,0.00004752,0.00001982,0.00003032,-0.00000194,0.00001895,0.000
 00177,-0.00003143,0.00000159,-0.00008343,-0.00007340,0.00000474,0.0000
 1528,0.00001148,0.00009054,-0.00003962,-0.00013299,0.00004431,0.000445
 96,-0.00020307,0.00018340,0.00019413,0.00023868,0.04439914,-0.00010188
 ,-0.00006398,-0.00003968,-0.00052242,-0.00012347,-0.00108167,0.0002853
 3,-0.00039402,0.00023721,-0.00082942,-0.00244704,0.00178114,0.00095738
 ,-0.01368621,-0.01387378,-0.00869719,-0.24336349,-0.11803650,0.0001651
 9,0.00394139,0.00306845,0.00047853,-0.00124680,-0.00116929,-0.00274548
 ,-0.00265262,0.00053389,0.00005988,-0.00004651,0.00001314,0.00001588,0
 .00002229,-0.00000661,-0.00000425,0.00002632,0.00001814,-0.00000591,0.
 00002021,0.00000311,0.00001182,0.00002942,-0.00002512,0.00000395,-0.00
 017674,-0.00013467,0.00000735,0.00004657,0.00002738,-0.00004159,-0.000
 52518,-0.00040506,-0.00053948,0.00056868,0.00021218,0.00051593,0.00024
 853,0.00036513,0.01106308,0.25905128,0.00008120,0.00001240,-0.00006091
 ,0.00024470,0.00029698,0.00089093,-0.00011170,0.00025329,-0.00018289,0
 .00143498,0.00361619,-0.00212124,-0.00007317,0.01396534,0.01106901,-0.
 00748631,-0.11856848,-0.12070764,0.00374197,-0.01709049,-0.00564850,0.
 00080334,-0.00284370,-0.00751700,-0.00331040,-0.00641588,-0.00548239,-
 0.00003478,-0.00001961,0.00002759,-0.00008531,0.00003360,0.00004007,0.
 00001097,-0.00000637,-0.00000892,0.00001695,-0.00014858,0.00007634,-0.
 00007634,0.00005328,0.00011957,-0.00002869,0.00007590,0.00015022,-0.00
 001574,-0.00000953,-0.00002330,0.00002946,0.00024702,0.00044114,-0.000
 06331,-0.00092031,0.00030396,-0.00045992,-0.00079160,0.00020359,0.0051
 8414,0.13000020,0.12744699,-0.00009474,-0.00019099,0.00003814,0.000494
 83,0.00020094,0.00011272,-0.00007779,0.00000522,0.00004373,0.00017128,
 -0.00161063,0.00081637,0.00051661,-0.00061492,0.00046951,-0.00780072,0
 .00052424,0.00346169,-0.29881712,-0.03698106,0.00912528,-0.01013419,-0
 .00507495,-0.00160992,-0.00503057,0.00395204,-0.00400354,0.00011094,0.
 00008918,-0.00000658,0.00009104,-0.00007997,-0.00008932,0.00002794,0.0
 0002309,0.00012261,-0.00001090,0.00008820,-0.00002554,0.00000631,-0.00
 002803,-0.00004827,0.00002768,0.00000674,-0.00001092,0.00006133,0.0000
 4775,0.00000841,0.00104213,0.00089399,-0.00030350,0.00034758,0.0005146
 9,-0.00065917,0.00021545,-0.00002382,-0.00004656,-0.00024939,-0.000011
 97,-0.00037269,0.32657814,-0.00000426,0.00015449,-0.00004319,-0.000185
 70,0.00003895,-0.00025003,0.00002734,-0.00000484,-0.00008173,0.0021368
 5,0.00195050,-0.00123908,0.00071179,0.00026663,0.00054307,-0.00342928,
 -0.00290730,0.00315804,-0.03847317,-0.05591356,0.00124474,0.01976732,0
 .00547727,0.00127396,0.00246567,-0.00205248,0.00095065,-0.00005675,0.0
 0000591,0.00002042,-0.00006808,0.00003125,0.00001462,0.00000821,0.0000
 0437,0.00000150,-0.00002524,0.00000712,0.00002885,-0.00001715,0.000015
 72,0.00005542,-0.00002553,0.00001063,0.00002560,-0.00002103,-0.0000319
 5,-0.00000425,-0.00065840,-0.00046406,-0.00008802,0.00006852,0.0002363
 8,-0.00000650,-0.00005449,-0.00008004,-0.00013844,-0.00053121,-0.00000
 717,-0.00022374,0.03869902,0.05414301,0.00004542,0.00002541,-0.0000178
 9,-0.00006370,0.00000676,-0.00010710,0.00004088,-0.00001625,-0.0000221
 7,-0.00061694,0.00108885,0.00008354,-0.00052437,-0.00167420,0.00216950
 ,-0.02256949,-0.00230036,0.00541572,0.00985649,0.00139325,-0.05108168,
 0.00557200,0.00406068,-0.00209613,-0.00265683,0.00087450,-0.00283933,0
 .00002713,0.00000473,0.00000529,-0.00000954,-0.00001503,-0.00004338,-0
 .00002798,-0.00001943,0.00003610,0.00001794,-0.00001061,-0.00001417,-0
 .00000163,0.00000341,0.00001071,-0.00001017,-0.00000868,-0.00000160,-0
 .00000758,-0.00000547,0.00001438,-0.00036279,0.00024816,0.00027485,0.0
 0063176,0.00011255,-0.00031019,0.00023911,-0.00028521,0.00004533,-0.00
 054313,-0.00010218,-0.00041046,-0.00699409,-0.00552355,0.04712772,0.00
 013367,-0.00017714,0.00007147,0.00077577,0.00048960,-0.00062556,-0.000
 04506,-0.00003473,-0.00004603,-0.00240792,0.00099601,-0.00075448,-0.00
 166025,0.00100492,-0.00120996,0.00145052,0.00875412,-0.00439346,-0.068
 55764,-0.05159630,0.04276739,0.00231357,0.00811507,-0.01032253,0.00070
 691,0.00224515,-0.00171704,0.00002142,-0.00001443,0.00000061,-0.000006
 42,0.00000183,0.00002054,0.00000293,-0.00001024,-0.00002766,-0.0001177
 3,0.00031413,0.00000331,-0.00000229,-0.00000467,0.00002258,0.00001176,
 0.00000617,0.00001693,0.00001500,0.00001997,0.00000992,0.00051634,0.00
 033847,0.00017538,0.00018104,-0.00007549,-0.00024534,0.00053242,0.0005
 4685,-0.00037919,0.00063869,-0.00022004,0.00035414,-0.00617582,-0.0224
 2835,0.01917659,0.07137667,-0.00018349,-0.00015804,-0.00003016,-0.0010
 8173,0.00009678,0.00159318,0.00003958,0.00010922,0.00022165,0.00426046
 ,-0.00447983,-0.00023177,-0.00078120,-0.00005634,-0.00204420,0.0013422
 3,0.00599530,-0.00594532,-0.04901503,-0.18837459,0.12611559,-0.0067474
 7,-0.01704833,0.01759151,-0.00147659,-0.00063135,-0.00110981,0.0001345
 1,-0.00001436,0.00000610,0.00004187,0.00003505,-0.00004989,0.00003966,
 0.00000882,0.00003914,0.00023351,-0.00071512,0.00012790,0.00002890,0.0
 0004528,-0.00007259,0.00001326,-0.00007510,-0.00005721,-0.00001777,0.0
 0001196,-0.00000641,0.00025978,0.00014795,-0.00029155,-0.00007185,-0.0
 0004818,0.00003986,0.00009265,0.00066313,-0.00026803,0.00061518,0.0002
 6230,0.00064746,-0.00029456,-0.00236375,0.00201336,0.05230668,0.204634
 60,-0.00010723,-0.00005582,-0.00006314,-0.00007798,-0.00032239,0.00074
 339,-0.00005662,0.00011702,0.00005549,0.00107429,-0.00251844,-0.000722
 63,-0.00474484,0.00010261,-0.00459295,0.00699039,0.02269484,-0.0157222
 7,0.04062160,0.12575281,-0.14617091,-0.00200433,-0.00863561,0.00655423
 ,0.00154686,-0.00078192,-0.00089698,-0.00000724,0.00003452,0.00003244,
 -0.00001622,0.00003253,0.00003229,0.00009030,0.00000785,0.00003441,0.0
 0001114,-0.00025154,0.00013312,0.00000994,0.00002087,-0.00000296,-0.00
 000022,0.00003176,0.00000795,0.00000163,-0.00000022,-0.00000379,0.0002
 2638,-0.00009408,-0.00008093,0.00001027,-0.00027539,0.00014059,0.00061
 934,0.00192345,-0.00084999,0.00077022,-0.00075122,0.00099254,-0.000228
 35,-0.00004876,-0.00007160,-0.04316850,-0.13707463,0.15945156,0.000078
 23,-0.00008382,-0.00011540,0.00009690,0.00017678,-0.00013318,0.0000285
 4,0.00006960,0.00010348,-0.00134905,0.00612511,0.00742923,0.00015466,-
 0.00107562,0.00170441,-0.00233622,-0.00072719,-0.00077203,-0.00047030,
 0.00001920,0.01460696,-0.06015719,0.01733240,0.04003050,0.00839463,-0.
 00436844,-0.01732660,0.00005801,0.00001135,0.00005096,-0.00001510,0.00
 001225,-0.00006448,-0.00005067,-0.00002322,0.00007322,-0.00001440,-0.0
 0005493,-0.00001451,0.00023521,0.00001632,-0.00012948,0.00000321,0.000
 00854,-0.00014022,-0.00008200,-0.00005532,0.00003122,-0.00006269,0.000
 19953,-0.00038068,0.00015381,0.00028571,0.00035380,-0.00006241,0.00022
 881,0.00039135,0.00205387,-0.00035158,0.00004124,-0.00037233,0.0004249
 6,0.00056127,0.00077806,-0.00060306,-0.00071458,0.05235750,0.00015676,
 -0.00007430,-0.00009026,0.00029803,0.00072807,-0.00040900,-0.00005361,
 -0.00040087,-0.00002434,-0.00153324,0.01074004,0.01670752,-0.00215763,
 -0.00243077,0.00341811,-0.00012203,-0.00685144,-0.00365607,-0.00118067
 ,-0.00393708,-0.01753788,0.01769763,-0.08681003,-0.09299889,0.00459369
 ,-0.00467676,-0.00757006,0.00007583,0.00000680,0.00000346,0.00007866,-
 0.00006061,0.00008964,-0.00004975,0.00000086,0.00002073,-0.00000509,0.
 00001588,-0.00016953,0.00000158,-0.00098567,0.00003001,0.00006650,0.00
 003406,-0.00009118,0.00001088,0.00001716,-0.00002280,-0.00000780,0.000
 28198,-0.00081428,0.00004506,0.00066022,0.00077043,-0.00005938,0.00050
 773,0.00050964,0.00032148,0.00034018,-0.00248972,0.00041785,-0.0002712
 0,-0.00017382,-0.00050626,0.00095679,0.00067463,-0.01795884,0.09179341
 ,0.00014022,0.00027103,-0.00019727,0.00014130,-0.00070330,-0.00017756,
 0.00046935,-0.00015682,-0.00072235,0.00033279,-0.00970428,-0.01235380,
 0.00174630,0.00090840,-0.00152209,-0.00042756,-0.00181776,-0.00217937,
 -0.00116970,0.00214426,0.00326983,0.04029200,-0.09300606,-0.26944467,0
 .00450956,0.00025853,-0.00489080,-0.00013123,0.00004756,0.00007711,-0.
 00031079,-0.00001433,-0.00001980,0.00009502,-0.00003244,0.00022430,-0.
 00008682,0.00018561,0.00014511,-0.00047090,0.00023706,0.00084959,-0.00
 016204,-0.00004484,0.00047172,-0.00004669,-0.00001462,0.00002486,0.000
 53379,0.00022460,0.00027312,-0.00009778,-0.00045268,-0.00081448,0.0001
 4572,-0.00030869,-0.00049696,0.00059186,-0.00018326,0.00000327,0.00005
 687,-0.00009161,0.00001487,0.00027444,-0.00070291,0.00020955,-0.045974
 98,0.10347474,0.28711461,-0.00051606,0.00099678,-0.00041951,-0.0006593
 4,-0.00030061,0.00011316,0.00015582,-0.00004551,-0.00002366,0.00070933
 ,0.00058902,-0.00087256,0.00102081,0.00125358,-0.00119870,-0.01065664,
 0.00523424,-0.01156695,-0.00859327,-0.00111654,0.00028602,-0.00874469,
 0.00903993,-0.00316186,-0.17916345,0.08982553,-0.09504348,0.00040129,0
 .00058837,0.00002162,0.00039586,0.00027361,-0.00057452,0.00021318,0.00
 017915,0.00066939,0.00016865,-0.00008076,0.00006029,-0.00005259,0.0000
 2881,0.00001947,-0.00000301,-0.00007049,0.00000162,0.00008100,0.000061
 19,0.00005757,0.00013959,0.00004992,0.00003770,0.00037558,0.00000084,0
 .00018226,0.00006766,-0.00054058,0.00086983,-0.00036752,0.00021394,0.0
 0025017,-0.00147210,0.00132381,-0.00153041,0.00034610,0.00025813,-0.00
 017155,-0.00022339,-0.00019571,-0.00021254,0.19646603,0.00012513,-0.00
 243540,0.00040317,-0.00036510,0.00012919,0.00001596,0.00011088,-0.0000
 4982,-0.00003503,0.00132174,0.00133823,-0.00031653,-0.00130657,0.00031
 223,0.00059200,0.00326459,-0.00522656,0.00777146,-0.00010121,-0.000469
 58,-0.00122103,-0.00991220,0.01126402,-0.00773757,0.09273035,-0.114605
 70,0.06818134,0.00004271,-0.00025643,0.00001842,0.00006735,-0.00136205
 ,0.00001629,0.00009732,-0.00105036,0.00040171,0.00010360,-0.00000545,0
 .00003360,-0.00002846,0.00000411,0.00002032,-0.00000007,-0.00000914,0.
 00000833,0.00004087,0.00003823,0.00004529,0.00013857,0.00004184,-0.000
 12048,-0.00004309,-0.00018526,-0.00011126,-0.00012469,0.00061034,-0.00
 024457,0.00060790,-0.00031195,0.00002262,-0.00045989,0.00154728,0.0007
 0749,-0.00023596,0.00029000,-0.00046144,-0.00039130,-0.00002117,-0.000
 30625,-0.10094074,0.12021713,-0.00044794,0.00135266,0.00064854,-0.0004
 8298,-0.00020311,0.00008630,0.00000517,0.00002741,-0.00000753,0.001006
 03,0.00054968,0.00014359,-0.00063851,-0.00117587,0.00169508,0.00996174
 ,-0.00769586,0.01067435,-0.00043498,-0.00111248,-0.00051562,-0.0048226
 2,0.01012267,-0.00567965,-0.09640907,0.06710326,-0.12228901,0.00030873
 ,0.00037424,-0.00018909,0.00031120,-0.00040252,-0.00060690,-0.00008276
 ,0.00082330,-0.00002708,0.00019497,-0.00014985,0.00002735,-0.00004369,
 0.00001021,-0.00002488,0.00001070,-0.00004914,0.00000756,0.00004773,0.
 00002376,0.00000171,-0.00003795,-0.00000931,-0.00008708,-0.00019712,-0
 .00015494,0.00001274,-0.00027144,0.00003274,-0.00012412,0.00025616,-0.
 00021001,0.00001669,-0.00003767,0.00074294,0.00171776,0.00028167,-0.00
 038060,0.00018038,-0.00079351,-0.00000771,-0.00044704,0.10528919,-0.07
 792041,0.12350780,-0.00018079,0.00019086,-0.00030767,-0.00035530,0.000
 11156,-0.00007185,0.00010569,-0.00004610,0.00005166,-0.00322077,0.0000
 4249,-0.00075073,-0.00409727,0.00074959,0.00020961,-0.00773879,-0.0151
 5074,0.00817919,0.00000855,-0.00213445,0.00216350,-0.00645053,-0.00827
 679,0.01073785,-0.09003552,-0.07046586,0.05830579,0.00018922,0.0001992
 9,0.00006780,0.00011290,-0.00006219,-0.00018914,0.00001007,0.00006510,
 0.00034447,0.00012607,-0.00004428,-0.00001762,-0.00000300,0.00000517,-
 0.00002064,0.00001303,-0.00006768,-0.00002740,0.00004118,0.00004582,0.
 00004403,-0.00045171,-0.00076867,0.00085145,-0.00029487,-0.00120593,0.
 00063988,0.00019626,0.00005843,0.00023416,0.00099666,0.00029296,-0.000
 07489,0.00054440,0.00034515,-0.00024997,-0.00082773,0.00060632,-0.0006
 7471,0.00080312,0.00006606,-0.00023820,0.00991116,0.01525828,-0.012973
 05,0.10059799,0.00013254,-0.00027318,0.00005682,0.00001594,0.00042568,
 0.00002603,-0.00005013,0.00001608,0.00012558,-0.00313508,-0.00084628,-
 0.00289514,0.00298444,-0.00080930,-0.00166911,0.00706252,0.01050778,-0
 .00804263,0.00182672,-0.00040246,-0.00110104,-0.00865925,-0.01366802,0
 .01266329,-0.07310299,-0.17486121,0.11493184,-0.00007784,-0.00017119,-
 0.00001068,-0.00004021,0.00000108,0.00020649,0.00002131,0.00000823,-0.
 00022815,0.00005247,-0.00014784,0.00004953,0.00001667,0.00001413,-0.00
 002177,0.00001592,-0.00004425,-0.00001734,-0.00000540,0.00001821,-0.00
 001069,-0.00072958,-0.00080358,0.00107228,0.00032847,0.00105620,-0.000
 44328,0.00002894,-0.00014294,-0.00009417,-0.00110039,0.00048798,0.0003
 0376,-0.00009215,0.00020682,-0.00040435,0.00016464,0.00070781,-0.00012
 145,0.00078275,0.00043669,-0.00021195,-0.00662593,-0.00980373,0.008308
 94,0.08018560,0.18808732,-0.00010468,0.00005796,-0.00021218,-0.0001511
 6,0.00019428,-0.00005228,0.00000971,0.00003154,0.00000896,-0.00381095,
 -0.00188660,-0.00216987,0.00424146,-0.00204632,-0.00191406,0.00811936,
 0.01503852,-0.01139537,-0.00155085,-0.00143394,-0.00065716,-0.00899089
 ,-0.01254119,0.01138499,0.06089762,0.11479566,-0.13595458,0.00010060,0
 .00012133,0.00006222,0.00007384,-0.00001692,-0.00010381,0.00007761,0.0
 0001711,0.00024448,0.00007558,-0.00008107,0.00004608,0.00000389,0.0000
 0240,0.00000974,-0.00000214,-0.00000110,0.00000268,0.00002896,0.000027
 26,0.00002964,-0.00055522,-0.00084717,0.00113626,0.00071214,0.00147311
 ,-0.00041792,-0.00008665,-0.00033277,0.00030740,-0.00084978,-0.0002408
 9,0.00038135,0.00018079,-0.00032090,0.00009993,-0.00028521,-0.00013069
 ,0.00061019,0.00118204,0.00035663,0.00058825,0.00691745,0.01023658,-0.
 00872184,-0.06623353,-0.12247282,0.14668689\\-0.00000445,-0.00001548,-
 0.00001555,-0.00000826,0.00001353,0.00001980,0.00000919,-0.00001119,-0
 .00000627,-0.00001205,0.00000004,-0.00001956,0.00004234,0.00000925,0.0
 0000186,-0.00001965,0.00000052,0.00001704,0.00000057,0.00001602,-0.000
 02505,-0.00000622,-0.00001235,0.00000468,-0.00001022,-0.00002209,0.000
 01561,-0.00000548,-0.00000147,-0.00000289,-0.00000006,0.00000420,0.000
 00198,-0.00000508,0.00000163,0.00000388,0.00000621,-0.00000475,0.00000
 237,0.00000064,0.00000438,0.00000063,0.00000161,0.00000143,-0.00000010
 ,0.00000499,0.00000463,0.00000576,0.00001047,-0.00000198,-0.00000531,0
 .00000070,0.00000858,-0.00000388,-0.00000143,-0.00000797,0.00000595,0.
 00000249,-0.00000077,0.00000073,0.00000701,-0.00000049,0.00000460,-0.0
 0000359,0.00000601,0.00000141,0.00000036,-0.00000270,-0.00000321,-0.00
 000156,0.00000750,-0.00000423,-0.00000854,0.00000352,-0.00000023\\\@


 IN THE FIGHT BETWEEN YOU AND THE WORLD, BACK THE WORLD

                                        -- FRANZ KAFKA
 Job cpu time:       0 days  2 hours 59 minutes 50.7 seconds.
 Elapsed time:       0 days  0 hours 44 minutes 58.6 seconds.
 File lengths (MBytes):  RWF=    199 Int=      0 D2E=      0 Chk=     10 Scr=      1
 Normal termination of Gaussian 16 at Sun May 28 11:12:49 2023.
### All Done ###
