### Starting Gaussian ###
 Entering Gaussian System, Link 0=g16
 Initial command:
 /cluster/software/gaussian/gaussian-16-A.03/avx2/g16/l1.exe "/local/scratch/linjian/Gau-5999.inp" -scrdir="/local/scratch/linjian/"
 Entering Link 1 = /cluster/software/gaussian/gaussian-16-A.03/avx2/g16/l1.exe PID=      6000.
  
 Copyright (c) 1988,1990,1992,1993,1995,1998,2003,2009,2016,
            Gaussian, Inc.  All Rights Reserved.
  
 This is part of the Gaussian(R) 16 program.  It is based on
 the Gaussian(R) 09 system (copyright 2009, Gaussian, Inc.),
 the Gaussian(R) 03 system (copyright 2003, Gaussian, Inc.),
 the Gaussian(R) 98 system (copyright 1998, Gaussian, Inc.),
 the Gaussian(R) 94 system (copyright 1995, Gaussian, Inc.),
 the Gaussian 92(TM) system (copyright 1992, Gaussian, Inc.),
 the Gaussian 90(TM) system (copyright 1990, Gaussian, Inc.),
 the Gaussian 88(TM) system (copyright 1988, Gaussian, Inc.),
 the Gaussian 86(TM) system (copyright 1986, Carnegie Mellon
 University), and the Gaussian 82(TM) system (copyright 1983,
 Carnegie Mellon University). Gaussian is a federally registered
 trademark of Gaussian, Inc.
  
 This software contains proprietary and confidential information,
 including trade secrets, belonging to Gaussian, Inc.
  
 This software is provided under written license and may be
 used, copied, transmitted, or stored only in accord with that
 written license.
  
 The following legend is applicable only to US Government
 contracts under FAR:
  
                    RESTRICTED RIGHTS LEGEND
  
 Use, reproduction and disclosure by the US Government is
 subject to restrictions as set forth in subparagraphs (a)
 and (c) of the Commercial Computer Software - Restricted
 Rights clause in FAR 52.227-19.
  
 Gaussian, Inc.
 340 Quinnipiac St., Bldg. 40, Wallingford CT 06492
  
  
 ---------------------------------------------------------------
 Warning -- This program may not be used in any manner that
 competes with the business of Gaussian, Inc. or will provide
 assistance to any competitor of Gaussian, Inc.  The licensee
 of this program is prohibited from giving any competitor of
 Gaussian, Inc. access to this program.  By using this program,
 the user acknowledges that Gaussian, Inc. is engaged in the
 business of creating and licensing software in the field of
 computational chemistry and represents and warrants to the
 licensee that it is not a competitor of Gaussian, Inc. and that
 it will not use this program in any manner prohibited above.
 ---------------------------------------------------------------
  

 Cite this work as:
 Gaussian 16, Revision A.03,
 M. J. Frisch, G. W. Trucks, H. B. Schlegel, G. E. Scuseria, 
 M. A. Robb, J. R. Cheeseman, G. Scalmani, V. Barone, 
 G. A. Petersson, H. Nakatsuji, X. Li, M. Caricato, A. V. Marenich, 
 J. Bloino, B. G. Janesko, R. Gomperts, B. Mennucci, H. P. Hratchian, 
 J. V. Ortiz, A. F. Izmaylov, J. L. Sonnenberg, D. Williams-Young, 
 F. Ding, F. Lipparini, F. Egidi, J. Goings, B. Peng, A. Petrone, 
 T. Henderson, D. Ranasinghe, V. G. Zakrzewski, J. Gao, N. Rega, 
 G. Zheng, W. Liang, M. Hada, M. Ehara, K. Toyota, R. Fukuda, 
 J. Hasegawa, M. Ishida, T. Nakajima, Y. Honda, O. Kitao, H. Nakai, 
 T. Vreven, K. Throssell, J. A. Montgomery, Jr., J. E. Peralta, 
 F. Ogliaro, M. J. Bearpark, J. J. Heyd, E. N. Brothers, K. N. Kudin, 
 V. N. Staroverov, T. A. Keith, R. Kobayashi, J. Normand, 
 K. Raghavachari, A. P. Rendell, J. C. Burant, S. S. Iyengar, 
 J. Tomasi, M. Cossi, J. M. Millam, M. Klene, C. Adamo, R. Cammi, 
 J. W. Ochterski, R. L. Martin, K. Morokuma, O. Farkas, 
 J. B. Foresman, and D. J. Fox, Gaussian, Inc., Wallingford CT, 2016.
 
 ******************************************
 Gaussian 16:  ES64L-G16RevA.03 25-Dec-2016
                27-May-2023 
 ******************************************
 %chk=CCqCrCqCrCqFrqFrF.chk
 %NProcShared=20
 Will use up to   20 processors via shared memory.
 -----------------------------
 # opt freq b3lyp/6-31g(2df,p)
 -----------------------------
 1/18=20,19=15,26=3,38=1/1,3;
 2/9=110,12=2,17=6,18=5,40=1/2;
 3/5=1,6=6,7=104,11=2,25=1,30=1,71=1,74=-5/1,2,3;
 4//1;
 5/5=2,38=5/2;
 6/7=2,8=2,9=2,10=2,28=1/1;
 7//1,2,3,16;
 1/18=20,19=15,26=3/3(2);
 2/9=110/2;
 99//99;
 2/9=110/2;
 3/5=1,6=6,7=104,11=2,25=1,30=1,71=1,74=-5/1,2,3;
 4/5=5,16=3,69=1/1;
 5/5=2,38=5/2;
 7//1,2,3,16;
 1/18=20,19=15,26=3/3(-5);
 2/9=110/2;
 6/7=2,8=2,9=2,10=2,19=2,28=1/1;
 99/9=1/99;
 -------------------
 Title Card Required
 -------------------
 Symbolic Z-matrix:
 Charge =  0 Multiplicity = 1
 C                     0.4126    0.16292   0.28297 
 C                     1.84657  -0.09153   0.81894 
 C                     3.21108  -0.60716   0.31578 
 C                     3.37269  -0.56671  -1.22242 
 C                     2.64936   0.55355  -2.00252 
 C                     4.85183  -0.40268  -1.48992 
 F                     5.27439   0.8014   -1.04596 
 F                     5.57798  -1.35438  -0.88463 
 F                     5.11248  -0.46253  -2.8245 
 H                    -0.22514   0.34146   1.15237 
 H                    -0.00953  -0.70175  -0.25492 
 H                     0.33627   1.01697  -0.39474 
 H                     2.15001   0.92449   0.54826 
 H                     1.58339  -1.09859   0.50009 
 H                     3.33767  -1.6395    0.71221 
 H                     4.04037  -0.10989   0.84537 
 H                     3.00966  -1.52493  -1.61677 
 H                     2.90828   1.55184  -1.63098 
 H                     1.56274   0.45717  -2.01185 
 H                     2.9386    0.52249  -3.06064 
 

 GradGradGradGradGradGradGradGradGradGradGradGradGradGradGradGradGradGrad
 Berny optimization.
 Initialization pass.
                           ----------------------------
                           !    Initial Parameters    !
                           ! (Angstroms and Degrees)  !
 --------------------------                            --------------------------
 ! Name  Definition              Value          Derivative Info.                !
 --------------------------------------------------------------------------------
 ! R1    R(1,2)                  1.5519         estimate D2E/DX2                !
 ! R2    R(1,10)                 1.0929         estimate D2E/DX2                !
 ! R3    R(1,11)                 1.1023         estimate D2E/DX2                !
 ! R4    R(1,12)                 1.0929         estimate D2E/DX2                !
 ! R5    R(2,3)                  1.543          estimate D2E/DX2                !
 ! R6    R(2,13)                 1.0944         estimate D2E/DX2                !
 ! R7    R(2,14)                 1.0886         estimate D2E/DX2                !
 ! R8    R(3,4)                  1.5472         estimate D2E/DX2                !
 ! R9    R(3,15)                 1.1131         estimate D2E/DX2                !
 ! R10   R(3,16)                 1.1025         estimate D2E/DX2                !
 ! R11   R(4,5)                  1.5449         estimate D2E/DX2                !
 ! R12   R(4,6)                  1.5121         estimate D2E/DX2                !
 ! R13   R(4,17)                 1.0979         estimate D2E/DX2                !
 ! R14   R(5,18)                 1.0962         estimate D2E/DX2                !
 ! R15   R(5,19)                 1.0909         estimate D2E/DX2                !
 ! R16   R(5,20)                 1.0974         estimate D2E/DX2                !
 ! R17   R(6,7)                  1.3511         estimate D2E/DX2                !
 ! R18   R(6,8)                  1.3414         estimate D2E/DX2                !
 ! R19   R(6,9)                  1.3611         estimate D2E/DX2                !
 ! A1    A(2,1,10)             106.9323         estimate D2E/DX2                !
 ! A2    A(2,1,11)             113.1885         estimate D2E/DX2                !
 ! A3    A(2,1,12)             114.0051         estimate D2E/DX2                !
 ! A4    A(10,1,11)            107.0284         estimate D2E/DX2                !
 ! A5    A(10,1,12)            108.9571         estimate D2E/DX2                !
 ! A6    A(11,1,12)            106.4769         estimate D2E/DX2                !
 ! A7    A(1,2,3)              139.4024         estimate D2E/DX2                !
 ! A8    A(1,2,13)              91.0635         estimate D2E/DX2                !
 ! A9    A(1,2,14)              80.0455         estimate D2E/DX2                !
 ! A10   A(3,2,13)              89.1058         estimate D2E/DX2                !
 ! A11   A(3,2,14)              78.9974         estimate D2E/DX2                !
 ! A12   A(13,2,14)            148.5876         estimate D2E/DX2                !
 ! A13   A(2,3,4)              114.0682         estimate D2E/DX2                !
 ! A14   A(2,3,15)             107.1196         estimate D2E/DX2                !
 ! A15   A(2,3,16)             110.966          estimate D2E/DX2                !
 ! A16   A(4,3,15)             111.4974         estimate D2E/DX2                !
 ! A17   A(4,3,16)             112.7808         estimate D2E/DX2                !
 ! A18   A(15,3,16)             99.3056         estimate D2E/DX2                !
 ! A19   A(3,4,5)              118.1685         estimate D2E/DX2                !
 ! A20   A(3,4,6)              106.3138         estimate D2E/DX2                !
 ! A21   A(3,4,17)             107.4413         estimate D2E/DX2                !
 ! A22   A(5,4,6)              106.8589         estimate D2E/DX2                !
 ! A23   A(5,4,17)             107.2581         estimate D2E/DX2                !
 ! A24   A(6,4,17)             110.7677         estimate D2E/DX2                !
 ! A25   A(4,5,18)             112.2488         estimate D2E/DX2                !
 ! A26   A(4,5,19)             113.992          estimate D2E/DX2                !
 ! A27   A(4,5,20)             110.057          estimate D2E/DX2                !
 ! A28   A(18,5,19)            108.5794         estimate D2E/DX2                !
 ! A29   A(18,5,20)            106.8776         estimate D2E/DX2                !
 ! A30   A(19,5,20)            104.5832         estimate D2E/DX2                !
 ! A31   A(4,6,7)              110.1507         estimate D2E/DX2                !
 ! A32   A(4,6,8)              111.8855         estimate D2E/DX2                !
 ! A33   A(4,6,9)              110.8561         estimate D2E/DX2                !
 ! A34   A(7,6,8)              108.3426         estimate D2E/DX2                !
 ! A35   A(7,6,9)              107.5466         estimate D2E/DX2                !
 ! A36   A(8,6,9)              107.9132         estimate D2E/DX2                !
 ! D1    D(10,1,2,3)           167.9729         estimate D2E/DX2                !
 ! D2    D(10,1,2,13)         -102.1603         estimate D2E/DX2                !
 ! D3    D(10,1,2,14)          108.1422         estimate D2E/DX2                !
 ! D4    D(11,1,2,3)            50.3643         estimate D2E/DX2                !
 ! D5    D(11,1,2,13)          140.2311         estimate D2E/DX2                !
 ! D6    D(11,1,2,14)           -9.4665         estimate D2E/DX2                !
 ! D7    D(12,1,2,3)           -71.5423         estimate D2E/DX2                !
 ! D8    D(12,1,2,13)           18.3245         estimate D2E/DX2                !
 ! D9    D(12,1,2,14)         -131.373          estimate D2E/DX2                !
 ! D10   D(1,2,3,4)             19.2955         estimate D2E/DX2                !
 ! D11   D(1,2,3,15)          -104.5901         estimate D2E/DX2                !
 ! D12   D(1,2,3,16)           147.9992         estimate D2E/DX2                !
 ! D13   D(13,2,3,4)           -71.2955         estimate D2E/DX2                !
 ! D14   D(13,2,3,15)          164.8189         estimate D2E/DX2                !
 ! D15   D(13,2,3,16)           57.4083         estimate D2E/DX2                !
 ! D16   D(14,2,3,4)            79.462          estimate D2E/DX2                !
 ! D17   D(14,2,3,15)          -44.4236         estimate D2E/DX2                !
 ! D18   D(14,2,3,16)         -151.8343         estimate D2E/DX2                !
 ! D19   D(2,3,4,5)             31.7844         estimate D2E/DX2                !
 ! D20   D(2,3,4,6)            151.7518         estimate D2E/DX2                !
 ! D21   D(2,3,4,17)           -89.6142         estimate D2E/DX2                !
 ! D22   D(15,3,4,5)           153.2791         estimate D2E/DX2                !
 ! D23   D(15,3,4,6)           -86.7535         estimate D2E/DX2                !
 ! D24   D(15,3,4,17)           31.8805         estimate D2E/DX2                !
 ! D25   D(16,3,4,5)           -95.9948         estimate D2E/DX2                !
 ! D26   D(16,3,4,6)            23.9726         estimate D2E/DX2                !
 ! D27   D(16,3,4,17)          142.6066         estimate D2E/DX2                !
 ! D28   D(3,4,5,18)            55.0667         estimate D2E/DX2                !
 ! D29   D(3,4,5,19)           -68.9111         estimate D2E/DX2                !
 ! D30   D(3,4,5,20)           173.9672         estimate D2E/DX2                !
 ! D31   D(6,4,5,18)           -64.6175         estimate D2E/DX2                !
 ! D32   D(6,4,5,19)           171.4046         estimate D2E/DX2                !
 ! D33   D(6,4,5,20)            54.283          estimate D2E/DX2                !
 ! D34   D(17,4,5,18)          176.5589         estimate D2E/DX2                !
 ! D35   D(17,4,5,19)           52.581          estimate D2E/DX2                !
 ! D36   D(17,4,5,20)          -64.5406         estimate D2E/DX2                !
 ! D37   D(3,4,6,7)            -65.9294         estimate D2E/DX2                !
 ! D38   D(3,4,6,8)             54.6451         estimate D2E/DX2                !
 ! D39   D(3,4,6,9)            175.1591         estimate D2E/DX2                !
 ! D40   D(5,4,6,7)             61.1307         estimate D2E/DX2                !
 ! D41   D(5,4,6,8)           -178.2948         estimate D2E/DX2                !
 ! D42   D(5,4,6,9)            -57.7808         estimate D2E/DX2                !
 ! D43   D(17,4,6,7)           177.6476         estimate D2E/DX2                !
 ! D44   D(17,4,6,8)           -61.7779         estimate D2E/DX2                !
 ! D45   D(17,4,6,9)            58.736          estimate D2E/DX2                !
 --------------------------------------------------------------------------------
 Trust Radius=3.00D-01 FncErr=1.00D-07 GrdErr=1.00D-06 EigMax=2.50D+02 EigMin=1.00D-04
 Number of steps in this run=    110 maximum allowed number of steps=    120.
 GradGradGradGradGradGradGradGradGradGradGradGradGradGradGradGradGradGrad

                          Input orientation:                          
 ---------------------------------------------------------------------
 Center     Atomic      Atomic             Coordinates (Angstroms)
 Number     Number       Type             X           Y           Z
 ---------------------------------------------------------------------
      1          6           0        0.412600    0.162920    0.282970
      2          6           0        1.846570   -0.091530    0.818940
      3          6           0        3.211080   -0.607160    0.315780
      4          6           0        3.372690   -0.566710   -1.222420
      5          6           0        2.649360    0.553550   -2.002520
      6          6           0        4.851830   -0.402680   -1.489920
      7          9           0        5.274390    0.801400   -1.045960
      8          9           0        5.577980   -1.354380   -0.884630
      9          9           0        5.112480   -0.462530   -2.824500
     10          1           0       -0.225140    0.341460    1.152370
     11          1           0       -0.009530   -0.701750   -0.254920
     12          1           0        0.336270    1.016970   -0.394740
     13          1           0        2.150010    0.924490    0.548260
     14          1           0        1.583390   -1.098590    0.500090
     15          1           0        3.337670   -1.639500    0.712210
     16          1           0        4.040370   -0.109890    0.845370
     17          1           0        3.009660   -1.524930   -1.616770
     18          1           0        2.908280    1.551840   -1.630980
     19          1           0        1.562740    0.457170   -2.011850
     20          1           0        2.938600    0.522490   -3.060640
 ---------------------------------------------------------------------
                    Distance matrix (angstroms):
                    1          2          3          4          5
     1  C    0.000000
     2  C    1.551863   0.000000
     3  C    2.902687   1.543027   0.000000
     4  C    3.400102   2.592680   1.547195   0.000000
     5  C    3.221669   3.003537   2.652789   1.544909   0.000000
     6  C    4.813502   3.802530   2.448352   1.512057   2.455200
     7  F    5.080425   4.003140   2.845281   2.349325   2.804856
     8  F    5.508778   4.291895   2.757089   2.365973   3.669699
     9  F    5.668900   4.906981   3.673908   2.367358   2.788374
    10  H    1.092907   2.142577   3.661608   4.405540   4.273297
    11  H    1.102349   2.229496   3.272151   3.520469   3.420465
    12  H    1.092940   2.232218   3.377450   3.523201   2.854838
    13  H    1.915453   1.094367   1.877730   2.618001   2.625533
    14  H    1.734733   1.088622   1.710219   2.539987   3.182596
    15  H    3.462513   2.151972   1.113062   2.212442   3.557105
    16  H    3.681227   2.194036   1.102481   2.220414   3.238138
    17  H    3.633534   3.056157   2.148865   1.097947   2.144458
    18  H    3.438128   3.135283   2.922814   2.207001   1.096205
    19  H    2.583719   2.897413   3.044287   2.224286   1.090926
    20  H    4.205912   4.076848   3.570794   2.180331   1.097380
                    6          7          8          9         10
     6  C    0.000000
     7  F    1.351098   0.000000
     8  F    1.341418   2.183021   0.000000
     9  F    1.361111   2.187907   2.185219   0.000000
    10  H    5.771574   5.940457   6.379768   6.704631   0.000000
    11  H    5.024688   5.550227   5.660630   5.735412   1.765004
    12  H    4.858509   4.985538   5.773978   5.559212   1.779057
    13  H    3.635298   3.509763   4.358601   4.698464   2.519169
    14  H    3.889361   4.429866   4.235520   4.889984   2.402081
    15  H    2.944789   3.577714   2.765896   4.128381   4.100190
    16  H    2.489533   2.435238   2.627908   3.839495   4.300295
    17  H    2.160816   3.296458   2.676076   2.647481   4.649245
    18  H    2.759970   2.550272   4.016273   3.215692   4.362382
    19  H    3.439457   3.850686   4.546921   3.755916   3.636233
    20  H    2.642641   3.097199   3.901793   2.398287   5.271762
                   11         12         13         14         15
    11  H    0.000000
    12  H    1.758728   0.000000
    13  H    2.820172   2.046327   0.000000
    14  H    1.806908   2.613737   2.101483   0.000000
    15  H    3.608111   4.158193   2.830452   1.847993   0.000000
    16  H    4.238234   4.065470   2.175242   2.670861   1.688557
    17  H    3.412883   3.886081   3.380238   2.587877   2.354754
    18  H    3.935203   2.903379   2.391156   3.649873   3.982407
    19  H    2.627153   2.105386   2.667853   2.954769   3.868708
    20  H    4.249976   3.758145   3.715863   4.140446   4.366675
                   16         17         18         19         20
    16  H    0.000000
    17  H    3.021065   0.000000
    18  H    3.189872   3.078473   0.000000
    19  H    3.824123   2.485636   1.775906   0.000000
    20  H    4.107398   2.506340   1.761933   1.731247   0.000000
 Stoichiometry    C6H11F3
 Framework group  C1[X(C6H11F3)]
 Deg. of freedom    54
 Full point group                 C1      NOp   1
 Largest Abelian subgroup         C1      NOp   1
 Largest concise Abelian subgroup C1      NOp   1
                         Standard orientation:                         
 ---------------------------------------------------------------------
 Center     Atomic      Atomic             Coordinates (Angstroms)
 Number     Number       Type             X           Y           Z
 ---------------------------------------------------------------------
      1          6           0       -3.375574    0.262163   -0.101769
      2          6           0       -2.294200   -0.794462    0.248162
      3          6           0       -0.801225   -1.076416   -0.021019
      4          6           0        0.001595    0.162784   -0.483271
      5          6           0       -0.425801    1.548743    0.048890
      6          6           0        1.426537   -0.060822   -0.029555
      7          9           0        1.491462   -0.056146    1.319974
      8          9           0        1.914480   -1.229539   -0.471613
      9          9           0        2.240791    0.931150   -0.482993
     10          1           0       -4.339940   -0.160110    0.191710
     11          1           0       -3.434353    0.482319   -1.180310
     12          1           0       -3.239585    1.221701    0.403517
     13          1           0       -2.009334   -0.235741    1.145003
     14          1           0       -2.290152   -0.873504   -0.837579
     15          1           0       -0.752872   -1.896970   -0.771526
     16          1           0       -0.336188   -1.591008    0.835953
     17          1           0       -0.056402    0.202515   -1.578965
     18          1           0       -0.455450    1.581695    1.144198
     19          1           0       -1.386478    1.894499   -0.335391
     20          1           0        0.292171    2.313464   -0.273542
 ---------------------------------------------------------------------
 Rotational constants (GHZ):           2.9496252           0.9261220           0.8308845
 Standard basis: 6-31G(2df,p) (6D, 7F)
 There are   334 symmetry adapted cartesian basis functions of A   symmetry.
 There are   307 symmetry adapted basis functions of A   symmetry.
   307 basis functions,   473 primitive gaussians,   334 cartesian basis functions
    37 alpha electrons       37 beta electrons
       nuclear repulsion energy       521.3923930855 Hartrees.
 NAtoms=   20 NActive=   20 NUniq=   20 SFac= 1.00D+00 NAtFMM=   60 NAOKFM=F Big=F
 Integral buffers will be    131072 words long.
 Raffenetti 2 integral format.
 Two-electron integral symmetry is turned on.
 One-electron integrals computed using PRISM.
 PrsmSu:  requested number of processors reduced to:  13 ShMem   1 Linda.
 NBasis=   307 RedAO= T EigKep=  5.94D-04  NBF=   307
 NBsUse=   307 1.00D-06 EigRej= -1.00D+00 NBFU=   307
 ExpMin= 1.61D-01 ExpMax= 7.00D+03 ExpMxC= 1.05D+03 IAcc=3 IRadAn=         5 AccDes= 0.00D+00
 Harris functional with IExCor=  402 and IRadAn=       5 diagonalized for initial guess.
 HarFok:  IExCor=  402 AccDes= 0.00D+00 IRadAn=         5 IDoV= 1 UseB2=F ITyADJ=14
 ICtDFT=  3500011 ScaDFX=  1.000000  1.000000  1.000000  1.000000
 FoFCou: FMM=F IPFlag=           0 FMFlag=      100000 FMFlg1=           0
         NFxFlg=           0 DoJE=T BraDBF=F KetDBF=T FulRan=T
         wScrn=  0.000000 ICntrl=       500 IOpCl=  0 I1Cent=   200000004 NGrid=           0
         NMat0=    1 NMatS0=      1 NMatT0=    0 NMatD0=    1 NMtDS0=    0 NMtDT0=    0
 Petite list used in FoFCou.
 Requested convergence on RMS density matrix=1.00D-08 within 128 cycles.
 Requested convergence on MAX density matrix=1.00D-06.
 Requested convergence on             energy=1.00D-06.
 No special actions if energy rises.
 Integral accuracy reduced to 1.0D-05 until final iterations.
 Initial convergence to 1.0D-05 achieved.  Increase integral accuracy.
 SCF Done:  E(RB3LYP) =  -534.592612601     A.U. after   14 cycles
            NFock= 14  Conv=0.35D-08     -V/T= 2.0064

 **********************************************************************

            Population analysis using the SCF density.

 **********************************************************************

 Orbital symmetries:
       Occupied  (A) (A) (A) (A) (A) (A) (A) (A) (A) (A) (A) (A)
                 (A) (A) (A) (A) (A) (A) (A) (A) (A) (A) (A) (A)
                 (A) (A) (A) (A) (A) (A) (A) (A) (A) (A) (A) (A)
                 (A)
       Virtual   (A) (A) (A) (A) (A) (A) (A) (A) (A) (A) (A) (A)
                 (A) (A) (A) (A) (A) (A) (A) (A) (A) (A) (A) (A)
                 (A) (A) (A) (A) (A) (A) (A) (A) (A) (A) (A) (A)
                 (A) (A) (A) (A) (A) (A) (A) (A) (A) (A) (A) (A)
                 (A) (A) (A) (A) (A) (A) (A) (A) (A) (A) (A) (A)
                 (A) (A) (A) (A) (A) (A) (A) (A) (A) (A) (A) (A)
                 (A) (A) (A) (A) (A) (A) (A) (A) (A) (A) (A) (A)
                 (A) (A) (A) (A) (A) (A) (A) (A) (A) (A) (A) (A)
                 (A) (A) (A) (A) (A) (A) (A) (A) (A) (A) (A) (A)
                 (A) (A) (A) (A) (A) (A) (A) (A) (A) (A) (A) (A)
                 (A) (A) (A) (A) (A) (A) (A) (A) (A) (A) (A) (A)
                 (A) (A) (A) (A) (A) (A) (A) (A) (A) (A) (A) (A)
                 (A) (A) (A) (A) (A) (A) (A) (A) (A) (A) (A) (A)
                 (A) (A) (A) (A) (A) (A) (A) (A) (A) (A) (A) (A)
                 (A) (A) (A) (A) (A) (A) (A) (A) (A) (A) (A) (A)
                 (A) (A) (A) (A) (A) (A) (A) (A) (A) (A) (A) (A)
                 (A) (A) (A) (A) (A) (A) (A) (A) (A) (A) (A) (A)
                 (A) (A) (A) (A) (A) (A) (A) (A) (A) (A) (A) (A)
                 (A) (A) (A) (A) (A) (A) (A) (A) (A) (A) (A) (A)
                 (A) (A) (A) (A) (A) (A) (A) (A) (A) (A) (A) (A)
                 (A) (A) (A) (A) (A) (A) (A) (A) (A) (A) (A) (A)
                 (A) (A) (A) (A) (A) (A) (A) (A) (A) (A) (A) (A)
                 (A) (A) (A) (A) (A) (A)
 The electronic state is 1-A.
 Alpha  occ. eigenvalues --  -24.71972 -24.71891 -24.71000 -10.41160 -10.21624
 Alpha  occ. eigenvalues --  -10.21180 -10.20676 -10.19148 -10.13710  -1.29795
 Alpha  occ. eigenvalues --   -1.21648  -1.20770  -0.84384  -0.78525  -0.71349
 Alpha  occ. eigenvalues --   -0.69567  -0.63159  -0.58562  -0.58062  -0.55809
 Alpha  occ. eigenvalues --   -0.54187  -0.52088  -0.46796  -0.45840  -0.44570
 Alpha  occ. eigenvalues --   -0.43931  -0.42502  -0.41149  -0.40970  -0.39769
 Alpha  occ. eigenvalues --   -0.39221  -0.38721  -0.37139  -0.36628  -0.34902
 Alpha  occ. eigenvalues --   -0.31687  -0.15874
 Alpha virt. eigenvalues --   -0.03531   0.08291   0.10434   0.11242   0.12752
 Alpha virt. eigenvalues --    0.13855   0.14468   0.14703   0.16835   0.16991
 Alpha virt. eigenvalues --    0.17902   0.18201   0.20735   0.21691   0.22893
 Alpha virt. eigenvalues --    0.25143   0.26323   0.29342   0.32332   0.38207
 Alpha virt. eigenvalues --    0.43102   0.44742   0.46347   0.48310   0.48604
 Alpha virt. eigenvalues --    0.50633   0.51841   0.53910   0.55146   0.57244
 Alpha virt. eigenvalues --    0.58513   0.59889   0.62240   0.63344   0.65547
 Alpha virt. eigenvalues --    0.65839   0.67861   0.69296   0.70501   0.71282
 Alpha virt. eigenvalues --    0.73724   0.74323   0.75611   0.76111   0.76814
 Alpha virt. eigenvalues --    0.79024   0.80170   0.81890   0.83436   0.84532
 Alpha virt. eigenvalues --    0.84952   0.85907   0.88185   0.90050   0.91571
 Alpha virt. eigenvalues --    0.92615   0.93474   0.94628   0.95500   0.97238
 Alpha virt. eigenvalues --    0.99747   1.01556   1.03575   1.04532   1.06897
 Alpha virt. eigenvalues --    1.07342   1.12436   1.14816   1.16631   1.17737
 Alpha virt. eigenvalues --    1.20195   1.23464   1.25668   1.26390   1.29171
 Alpha virt. eigenvalues --    1.33263   1.37111   1.39375   1.41957   1.43281
 Alpha virt. eigenvalues --    1.45881   1.46537   1.47820   1.48824   1.53088
 Alpha virt. eigenvalues --    1.53592   1.55984   1.57116   1.59342   1.60519
 Alpha virt. eigenvalues --    1.62527   1.66309   1.69639   1.70271   1.72188
 Alpha virt. eigenvalues --    1.73253   1.75149   1.77256   1.78520   1.80341
 Alpha virt. eigenvalues --    1.83971   1.88833   1.90597   1.92394   1.94877
 Alpha virt. eigenvalues --    1.96002   1.96668   1.97845   2.09038   2.11275
 Alpha virt. eigenvalues --    2.19040   2.20585   2.21209   2.22995   2.25670
 Alpha virt. eigenvalues --    2.27094   2.29585   2.32243   2.39050   2.40545
 Alpha virt. eigenvalues --    2.44122   2.45442   2.47233   2.48443   2.50886
 Alpha virt. eigenvalues --    2.55725   2.57614   2.65946   2.68518   2.72264
 Alpha virt. eigenvalues --    2.74102   2.75193   2.80375   2.81743   2.84121
 Alpha virt. eigenvalues --    2.85089   2.88357   2.89548   2.91657   2.92463
 Alpha virt. eigenvalues --    2.97672   2.97798   3.00785   3.02359   3.05336
 Alpha virt. eigenvalues --    3.06280   3.07290   3.13213   3.14702   3.15305
 Alpha virt. eigenvalues --    3.21036   3.22516   3.24092   3.24408   3.28584
 Alpha virt. eigenvalues --    3.32271   3.34288   3.39528   3.41167   3.42987
 Alpha virt. eigenvalues --    3.44366   3.46515   3.50195   3.51666   3.54920
 Alpha virt. eigenvalues --    3.56131   3.60700   3.63578   3.65763   3.68929
 Alpha virt. eigenvalues --    3.70859   3.75235   3.81055   3.85839   3.86411
 Alpha virt. eigenvalues --    3.89185   3.92158   3.93798   3.95989   4.00698
 Alpha virt. eigenvalues --    4.02583   4.05366   4.09131   4.14052   4.17339
 Alpha virt. eigenvalues --    4.18923   4.19701   4.21412   4.24196   4.24726
 Alpha virt. eigenvalues --    4.25395   4.27033   4.29453   4.33259   4.33913
 Alpha virt. eigenvalues --    4.38127   4.40018   4.44418   4.46435   4.47146
 Alpha virt. eigenvalues --    4.49793   4.52141   4.53277   4.55739   4.58629
 Alpha virt. eigenvalues --    4.60746   4.61750   4.63441   4.65425   4.66636
 Alpha virt. eigenvalues --    4.69590   4.70856   4.72571   4.73920   4.74896
 Alpha virt. eigenvalues --    4.76856   4.77425   4.78324   4.80227   4.83174
 Alpha virt. eigenvalues --    4.83734   4.86740   4.89593   4.91067   4.92891
 Alpha virt. eigenvalues --    4.95349   4.98416   5.01451   5.08605   5.13247
 Alpha virt. eigenvalues --    5.15337   5.21436   5.27004   5.37261   5.44113
 Alpha virt. eigenvalues --    5.45484   5.53875   5.62296   5.74152   6.55554
 Alpha virt. eigenvalues --    6.61308   6.61902   6.62087   6.62586   6.62655
 Alpha virt. eigenvalues --    6.62891   6.67896   6.69856   6.71304   6.79289
 Alpha virt. eigenvalues --    6.79847   6.95309   7.17205   7.18790   7.21506
 Alpha virt. eigenvalues --    7.38005   7.38445   7.42106   7.43997   7.51688
 Alpha virt. eigenvalues --    7.82165   9.64301   9.70116   9.72090  11.20184
 Alpha virt. eigenvalues --   11.47917  11.84406  12.04348  12.26414  12.74580
          Condensed to atoms (all electrons):
               1          2          3          4          5          6
     1  C    5.099435   0.306970  -0.049029  -0.008120  -0.001820   0.000215
     2  C    0.306970   5.384259   0.332401  -0.090808  -0.003253   0.003019
     3  C   -0.049029   0.332401   5.084891   0.243523  -0.028034   0.004471
     4  C   -0.008120  -0.090808   0.243523   5.276549   0.345611   0.245882
     5  C   -0.001820  -0.003253  -0.028034   0.345611   5.064166  -0.009013
     6  C    0.000215   0.003019   0.004471   0.245882  -0.009013   4.177460
     7  F    0.000001  -0.000466  -0.002694  -0.048390  -0.000057   0.394072
     8  F   -0.000001   0.000480   0.008263  -0.045655   0.001649   0.442360
     9  F   -0.000000  -0.000035   0.001590  -0.036405  -0.006441   0.431064
    10  H    0.409344  -0.035865   0.002728  -0.000213   0.000386   0.000001
    11  H    0.347450  -0.040439  -0.002488   0.001301  -0.000737  -0.000023
    12  H    0.335583  -0.037392   0.000219   0.002051  -0.004847  -0.000057
    13  H   -0.033629   0.348502  -0.020687   0.006463   0.004149  -0.000574
    14  H   -0.020836   0.305905  -0.003310   0.018791  -0.002771  -0.000548
    15  H    0.001467  -0.036780   0.374217  -0.025130   0.004637  -0.000263
    16  H    0.003020  -0.016223   0.380915  -0.046873  -0.000878   0.002591
    17  H    0.000776   0.003408  -0.033267   0.339740  -0.046177  -0.003055
    18  H   -0.000178  -0.001143  -0.002796  -0.029168   0.374205  -0.001803
    19  H   -0.002198  -0.004300  -0.002801  -0.014991   0.371859   0.001122
    20  H    0.000183   0.000618   0.004326  -0.026896   0.366600  -0.000743
               7          8          9         10         11         12
     1  C    0.000001  -0.000001  -0.000000   0.409344   0.347450   0.335583
     2  C   -0.000466   0.000480  -0.000035  -0.035865  -0.040439  -0.037392
     3  C   -0.002694   0.008263   0.001590   0.002728  -0.002488   0.000219
     4  C   -0.048390  -0.045655  -0.036405  -0.000213   0.001301   0.002051
     5  C   -0.000057   0.001649  -0.006441   0.000386  -0.000737  -0.004847
     6  C    0.394072   0.442360   0.431064   0.000001  -0.000023  -0.000057
     7  F    8.815728  -0.039878  -0.040359   0.000000   0.000000  -0.000001
     8  F   -0.039878   8.751266  -0.035176   0.000000   0.000000   0.000000
     9  F   -0.040359  -0.035176   8.781861  -0.000000   0.000000   0.000000
    10  H    0.000000   0.000000  -0.000000   0.566188  -0.039335  -0.042617
    11  H    0.000000   0.000000   0.000000  -0.039335   0.640578  -0.024873
    12  H   -0.000001   0.000000   0.000000  -0.042617  -0.024873   0.648169
    13  H    0.000235   0.000002   0.000007  -0.006580   0.009115  -0.004644
    14  H   -0.000003  -0.000004   0.000002  -0.010702   0.000524   0.011384
    15  H    0.000384   0.001643   0.000021  -0.000102   0.000729  -0.000185
    16  H    0.008380  -0.000115   0.000126  -0.000058  -0.000159   0.000085
    17  H    0.001531  -0.000865  -0.001720   0.000010  -0.000149  -0.000016
    18  H    0.006391   0.000050  -0.000180   0.000004  -0.000023   0.000772
    19  H    0.000170  -0.000006   0.000200  -0.000059   0.002359   0.005746
    20  H   -0.000248   0.000090   0.010539  -0.000004  -0.000011  -0.000133
              13         14         15         16         17         18
     1  C   -0.033629  -0.020836   0.001467   0.003020   0.000776  -0.000178
     2  C    0.348502   0.305905  -0.036780  -0.016223   0.003408  -0.001143
     3  C   -0.020687  -0.003310   0.374217   0.380915  -0.033267  -0.002796
     4  C    0.006463   0.018791  -0.025130  -0.046873   0.339740  -0.029168
     5  C    0.004149  -0.002771   0.004637  -0.000878  -0.046177   0.374205
     6  C   -0.000574  -0.000548  -0.000263   0.002591  -0.003055  -0.001803
     7  F    0.000235  -0.000003   0.000384   0.008380   0.001531   0.006391
     8  F    0.000002  -0.000004   0.001643  -0.000115  -0.000865   0.000050
     9  F    0.000007   0.000002   0.000021   0.000126  -0.001720  -0.000180
    10  H   -0.006580  -0.010702  -0.000102  -0.000058   0.000010   0.000004
    11  H    0.009115   0.000524   0.000729  -0.000159  -0.000149  -0.000023
    12  H   -0.004644   0.011384  -0.000185   0.000085  -0.000016   0.000772
    13  H    0.531333  -0.024664   0.006515  -0.016790  -0.000159   0.002593
    14  H   -0.024664   0.483568  -0.022448   0.001435  -0.000144   0.000087
    15  H    0.006515  -0.022448   0.627688  -0.045337  -0.009844  -0.000094
    16  H   -0.016790   0.001435  -0.045337   0.577209   0.005361   0.001287
    17  H   -0.000159  -0.000144  -0.009844   0.005361   0.643769   0.005404
    18  H    0.002593   0.000087  -0.000094   0.001287   0.005404   0.574554
    19  H    0.000469   0.000808  -0.000065  -0.000110  -0.003801  -0.033021
    20  H   -0.000236  -0.000059  -0.000097  -0.000086  -0.001899  -0.027895
              19         20
     1  C   -0.002198   0.000183
     2  C   -0.004300   0.000618
     3  C   -0.002801   0.004326
     4  C   -0.014991  -0.026896
     5  C    0.371859   0.366600
     6  C    0.001122  -0.000743
     7  F    0.000170  -0.000248
     8  F   -0.000006   0.000090
     9  F    0.000200   0.010539
    10  H   -0.000059  -0.000004
    11  H    0.002359  -0.000011
    12  H    0.005746  -0.000133
    13  H    0.000469  -0.000236
    14  H    0.000808  -0.000059
    15  H   -0.000065  -0.000097
    16  H   -0.000110  -0.000086
    17  H   -0.003801  -0.001899
    18  H   -0.033021  -0.027895
    19  H    0.576334  -0.029012
    20  H   -0.029012   0.566360
 Mulliken charges:
               1
     1  C   -0.388632
     2  C   -0.418858
     3  C   -0.292440
     4  C   -0.107263
     5  C   -0.429232
     6  C    0.313823
     7  F   -0.094795
     8  F   -0.084104
     9  F   -0.105093
    10  H    0.156874
    11  H    0.106181
    12  H    0.110757
    13  H    0.198582
    14  H    0.262987
    15  H    0.123044
    16  H    0.146223
    17  H    0.101095
    18  H    0.130951
    19  H    0.131296
    20  H    0.138603
 Sum of Mulliken charges =  -0.00000
 Mulliken charges with hydrogens summed into heavy atoms:
               1
     1  C   -0.014820
     2  C    0.042712
     3  C   -0.023174
     4  C   -0.006168
     5  C   -0.028382
     6  C    0.313823
     7  F   -0.094795
     8  F   -0.084104
     9  F   -0.105093
 Electronic spatial extent (au):  <R**2>=           1433.2602
 Charge=             -0.0000 electrons
 Dipole moment (field-independent basis, Debye):
    X=             -1.3199    Y=              1.3388    Z=             -1.1908  Tot=              2.2254
 Quadrupole moment (field-independent basis, Debye-Ang):
   XX=            -59.0164   YY=            -56.2252   ZZ=            -52.3073
   XY=             -4.0717   XZ=              2.5445   YZ=              1.6675
 Traceless Quadrupole moment (field-independent basis, Debye-Ang):
   XX=             -3.1668   YY=             -0.3756   ZZ=              3.5424
   XY=             -4.0717   XZ=              2.5445   YZ=              1.6675
 Octapole moment (field-independent basis, Debye-Ang**2):
  XXX=             39.9001  YYY=              3.7058  ZZZ=             -0.1914  XYY=             21.8772
  XXY=             10.0831  XXZ=             -3.9775  XZZ=             10.9956  YZZ=             -0.4403
  YYZ=             -0.6883  XYZ=             -5.0350
 Hexadecapole moment (field-independent basis, Debye-Ang**3):
 XXXX=          -1209.8948 YYYY=           -343.8954 ZZZZ=           -152.1721 XXXY=            -35.4353
 XXXZ=             16.1207 YYYX=            -17.9315 YYYZ=              2.9141 ZZZX=              2.2666
 ZZZY=              3.9862 XXYY=           -291.2266 XXZZ=           -228.6340 YYZZ=            -82.6108
 XXYZ=             12.4281 YYXZ=              7.6521 ZZXY=             -3.0107
 N-N= 5.213923930855D+02 E-N=-2.300637818077D+03  KE= 5.312169646054D+02
 PrsmSu:  requested number of processors reduced to:  13 ShMem   1 Linda.
 Calling FoFJK, ICntrl=      2127 FMM=F ISym2X=0 I1Cent= 0 IOpClX= 0 NMat=1 NMatS=1 NMatT=0.
 ***** Axes restored to original set *****
 -------------------------------------------------------------------
 Center     Atomic                   Forces (Hartrees/Bohr)
 Number     Number              X              Y              Z
 -------------------------------------------------------------------
      1        6          -0.020413683   -0.002493190   -0.051655185
      2        6           0.003211334    0.023696434    0.028055281
      3        6           0.018685674   -0.025904179   -0.037308359
      4        6           0.011177216   -0.000355671   -0.004624336
      5        6          -0.002625301    0.003316577   -0.002945439
      6        6          -0.003732118   -0.006490243   -0.018565509
      7        9           0.003538657   -0.007037155   -0.002959269
      8        9           0.002859249    0.003875224   -0.001923474
      9        9           0.006953903    0.000658472    0.010428210
     10        1           0.005017678   -0.001584186    0.002322256
     11        1          -0.007811879    0.003105201    0.000049120
     12        1          -0.006843554    0.003768840   -0.001236852
     13        1          -0.003498833    0.000607675    0.041105394
     14        1          -0.007313609   -0.007911027    0.049001338
     15        1           0.001394193    0.006373587   -0.012647434
     16        1          -0.012654046    0.010388793   -0.003812455
     17        1           0.007660744    0.000714766   -0.002920724
     18        1          -0.000498119   -0.001421903    0.000916890
     19        1           0.001461019   -0.002324807    0.004976178
     20        1           0.003431476   -0.000983208    0.003744371
 -------------------------------------------------------------------
 Cartesian Forces:  Max     0.051655185 RMS     0.014544180

 GradGradGradGradGradGradGradGradGradGradGradGradGradGradGradGradGradGrad
 Berny optimization.
 FormGI is forming the generalized inverse of G from B-inverse, IUseBI=4.
 Internal  Forces:  Max     0.063110526 RMS     0.013678296
 Search for a local minimum.
 Step number   1 out of a maximum of  110
 All quantities printed in internal units (Hartrees-Bohrs-Radians)
 Mixed Optimization -- RFO/linear search
 Second derivative matrix not updated -- first step.
 ITU=  0
     Eigenvalues ---    0.00230   0.00230   0.00230   0.00230   0.00606
     Eigenvalues ---    0.01795   0.02983   0.03477   0.04417   0.04521
     Eigenvalues ---    0.04741   0.04955   0.04991   0.05320   0.05483
     Eigenvalues ---    0.05696   0.08511   0.08811   0.08820   0.11809
     Eigenvalues ---    0.12578   0.14359   0.15400   0.16000   0.16000
     Eigenvalues ---    0.16000   0.16000   0.16000   0.16000   0.17600
     Eigenvalues ---    0.21663   0.23803   0.25000   0.25000   0.25000
     Eigenvalues ---    0.27493   0.27891   0.28088   0.28252   0.31145
     Eigenvalues ---    0.32278   0.33409   0.33424   0.33910   0.33974
     Eigenvalues ---    0.34105   0.34313   0.34475   0.34479   0.34706
     Eigenvalues ---    0.34972   0.52724   0.54788   0.56888
 RFO step:  Lambda=-7.42639722D-02 EMin= 2.30000000D-03
 Linear search not attempted -- first point.
 Maximum step size (   0.300) exceeded in Quadratic search.
    -- Step size scaled by   0.660
 Iteration  1 RMS(Cart)=  0.07100123 RMS(Int)=  0.00245423
 Iteration  2 RMS(Cart)=  0.00501777 RMS(Int)=  0.00113450
 Iteration  3 RMS(Cart)=  0.00001747 RMS(Int)=  0.00113447
 Iteration  4 RMS(Cart)=  0.00000002 RMS(Int)=  0.00113447
 Variable       Old X    -DE/DX   Delta X   Delta X   Delta X     New X
                                 (Linear)    (Quad)   (Total)
    R1        2.93260   0.04567   0.00000   0.08639   0.08639   3.01898
    R2        2.06529  -0.00134   0.00000  -0.00211  -0.00211   2.06318
    R3        2.08314   0.00053   0.00000   0.00086   0.00086   2.08400
    R4        2.06536   0.00419   0.00000   0.00660   0.00660   2.07196
    R5        2.91590   0.06176   0.00000   0.11434   0.11434   3.03023
    R6        2.06805  -0.01057   0.00000  -0.01673  -0.01673   2.05132
    R7        2.05720  -0.00527   0.00000  -0.00820  -0.00820   2.04900
    R8        2.92378   0.01669   0.00000   0.03121   0.03121   2.95499
    R9        2.10338  -0.01026   0.00000  -0.01706  -0.01706   2.08632
   R10        2.08339  -0.00666   0.00000  -0.01078  -0.01078   2.07261
   R11        2.91946  -0.00523   0.00000  -0.00973  -0.00973   2.90973
   R12        2.85737   0.01074   0.00000   0.01839   0.01839   2.87576
   R13        2.07482  -0.00211   0.00000  -0.00337  -0.00337   2.07145
   R14        2.07153  -0.00110   0.00000  -0.00175  -0.00175   2.06977
   R15        2.06155  -0.00129   0.00000  -0.00203  -0.00203   2.05953
   R16        2.07375  -0.00268   0.00000  -0.00427  -0.00427   2.06947
   R17        2.55321  -0.00614   0.00000  -0.00652  -0.00652   2.54669
   R18        2.53491  -0.00207   0.00000  -0.00213  -0.00213   2.53279
   R19        2.57213  -0.00892   0.00000  -0.00980  -0.00980   2.56233
    A1        1.86632  -0.01223   0.00000  -0.03953  -0.03914   1.82718
    A2        1.97551   0.01198   0.00000   0.03669   0.03630   2.01181
    A3        1.98976   0.00848   0.00000   0.02625   0.02577   2.01554
    A4        1.86800  -0.00141   0.00000  -0.00828  -0.00782   1.86018
    A5        1.90166  -0.00004   0.00000  -0.00519  -0.00494   1.89672
    A6        1.85837  -0.00741   0.00000  -0.01259  -0.01353   1.84484
    A7        2.43303  -0.06311   0.00000  -0.14339  -0.14641   2.28662
    A8        1.58936   0.00049   0.00000   0.00488   0.00765   1.59701
    A9        1.39706  -0.01519   0.00000  -0.01492  -0.00780   1.38926
   A10        1.55519   0.00482   0.00000   0.01528   0.01717   1.57236
   A11        1.37876  -0.00791   0.00000   0.00422   0.01015   1.38892
   A12        2.59334   0.02163   0.00000   0.13032   0.13053   2.72388
   A13        1.99086   0.04666   0.00000   0.10631   0.10690   2.09776
   A14        1.86959  -0.00819   0.00000  -0.00408  -0.00373   1.86586
   A15        1.93672  -0.02413   0.00000  -0.06398  -0.06330   1.87343
   A16        1.94600  -0.01960   0.00000  -0.04739  -0.04864   1.89736
   A17        1.96840  -0.01258   0.00000  -0.02982  -0.02882   1.93957
   A18        1.73321   0.01188   0.00000   0.02613   0.02518   1.75839
   A19        2.06243  -0.00925   0.00000  -0.02189  -0.02213   2.04030
   A20        1.85553   0.00800   0.00000   0.02521   0.02537   1.88090
   A21        1.87520   0.00211   0.00000   0.00669   0.00691   1.88211
   A22        1.86504   0.00338   0.00000   0.01269   0.01284   1.87788
   A23        1.87201   0.00367   0.00000   0.00938   0.00945   1.88145
   A24        1.93326  -0.00870   0.00000  -0.03560  -0.03561   1.89765
   A25        1.95911   0.00022   0.00000  -0.00052  -0.00055   1.95856
   A26        1.98954  -0.00569   0.00000  -0.01617  -0.01621   1.97332
   A27        1.92086  -0.00325   0.00000  -0.00792  -0.00794   1.91292
   A28        1.89507   0.00210   0.00000   0.00388   0.00382   1.89889
   A29        1.86537   0.00166   0.00000   0.00484   0.00484   1.87020
   A30        1.82532   0.00577   0.00000   0.01841   0.01839   1.84371
   A31        1.92249   0.00631   0.00000   0.01251   0.01237   1.93486
   A32        1.95277   0.00344   0.00000   0.00577   0.00571   1.95848
   A33        1.93480   0.01348   0.00000   0.02901   0.02881   1.96361
   A34        1.89094  -0.00705   0.00000  -0.01733  -0.01732   1.87361
   A35        1.87704  -0.00855   0.00000  -0.01496  -0.01523   1.86181
   A36        1.88344  -0.00880   0.00000  -0.01733  -0.01744   1.86600
    D1        2.93168   0.00410   0.00000   0.02708   0.02665   2.95833
    D2       -1.78303   0.01108   0.00000   0.05398   0.05386  -1.72918
    D3        1.88744  -0.01546   0.00000  -0.08510  -0.08472   1.80272
    D4        0.87902   0.00689   0.00000   0.04182   0.04179   0.92081
    D5        2.44749   0.01387   0.00000   0.06872   0.06900   2.51649
    D6       -0.16522  -0.01267   0.00000  -0.07036  -0.06958  -0.23480
    D7       -1.24865   0.00075   0.00000   0.00919   0.00853  -1.24012
    D8        0.31982   0.00774   0.00000   0.03610   0.03574   0.35556
    D9       -2.29289  -0.01880   0.00000  -0.10299  -0.10284  -2.39573
   D10        0.33677  -0.00370   0.00000  -0.01933  -0.01781   0.31896
   D11       -1.82544  -0.00374   0.00000  -0.02675  -0.02652  -1.85196
   D12        2.58307  -0.00274   0.00000  -0.02666  -0.02639   2.55669
   D13       -1.24434  -0.01031   0.00000  -0.04517  -0.04360  -1.28794
   D14        2.87663  -0.01035   0.00000  -0.05259  -0.05232   2.82432
   D15        1.00196  -0.00935   0.00000  -0.05249  -0.05218   0.94978
   D16        1.38687   0.01415   0.00000   0.08838   0.08785   1.47472
   D17       -0.77534   0.01411   0.00000   0.08096   0.07913  -0.69621
   D18       -2.65001   0.01511   0.00000   0.08106   0.07926  -2.57075
   D19        0.55474  -0.00408   0.00000  -0.01207  -0.01152   0.54322
   D20        2.64857   0.00066   0.00000   0.01018   0.01056   2.65913
   D21       -1.56406  -0.00426   0.00000  -0.01481  -0.01427  -1.57833
   D22        2.67522   0.00445   0.00000   0.02448   0.02390   2.69912
   D23       -1.51413   0.00918   0.00000   0.04673   0.04597  -1.46816
   D24        0.55642   0.00427   0.00000   0.02174   0.02115   0.57757
   D25       -1.67543   0.00004   0.00000   0.01097   0.01118  -1.66424
   D26        0.41840   0.00478   0.00000   0.03322   0.03326   0.45166
   D27        2.48895  -0.00014   0.00000   0.00823   0.00843   2.49739
   D28        0.96110   0.00183   0.00000   0.00440   0.00436   0.96546
   D29       -1.20273   0.00333   0.00000   0.01242   0.01236  -1.19037
   D30        3.03630   0.00189   0.00000   0.00485   0.00479   3.04109
   D31       -1.12779  -0.00527   0.00000  -0.02430  -0.02424  -1.15202
   D32        2.99158  -0.00377   0.00000  -0.01629  -0.01624   2.97533
   D33        0.94742  -0.00521   0.00000  -0.02385  -0.02381   0.92361
   D34        3.08153   0.00123   0.00000   0.00581   0.00583   3.08736
   D35        0.91771   0.00273   0.00000   0.01382   0.01382   0.93153
   D36       -1.12645   0.00129   0.00000   0.00626   0.00626  -1.12019
   D37       -1.15068   0.00346   0.00000   0.00629   0.00615  -1.14453
   D38        0.95374   0.00113   0.00000  -0.00327  -0.00351   0.95023
   D39        3.05710   0.00157   0.00000  -0.00137  -0.00163   3.05548
   D40        1.06693  -0.00084   0.00000   0.00266   0.00288   1.06981
   D41       -3.11183  -0.00317   0.00000  -0.00690  -0.00679  -3.11862
   D42       -1.00847  -0.00273   0.00000  -0.00500  -0.00490  -1.01337
   D43        3.10054   0.00088   0.00000   0.00236   0.00250   3.10303
   D44       -1.07823  -0.00145   0.00000  -0.00720  -0.00717  -1.08539
   D45        1.02514  -0.00100   0.00000  -0.00531  -0.00528   1.01985
         Item               Value     Threshold  Converged?
 Maximum Force            0.063111     0.000450     NO 
 RMS     Force            0.013678     0.000300     NO 
 Maximum Displacement     0.358209     0.001800     NO 
 RMS     Displacement     0.070201     0.001200     NO 
 Predicted change in Energy=-3.863539D-02
 GradGradGradGradGradGradGradGradGradGradGradGradGradGradGradGradGradGrad

                          Input orientation:                          
 ---------------------------------------------------------------------
 Center     Atomic      Atomic             Coordinates (Angstroms)
 Number     Number       Type             X           Y           Z
 ---------------------------------------------------------------------
      1          6           0        0.372505    0.152723    0.284928
      2          6           0        1.813791   -0.076250    0.934939
      3          6           0        3.188980   -0.591080    0.290644
      4          6           0        3.391886   -0.558542   -1.259507
      5          6           0        2.672942    0.562148   -2.032838
      6          6           0        4.883089   -0.420490   -1.529860
      7          9           0        5.342031    0.768675   -1.092342
      8          9           0        5.599255   -1.374596   -0.918981
      9          9           0        5.179635   -0.489708   -2.851150
     10          1           0       -0.290746    0.323346    1.135218
     11          1           0       -0.037816   -0.709930   -0.266110
     12          1           0        0.293561    1.006292   -0.398706
     13          1           0        2.100556    0.950593    0.730736
     14          1           0        1.545160   -1.097689    0.689646
     15          1           0        3.343002   -1.624824    0.646368
     16          1           0        4.006103   -0.073098    0.807292
     17          1           0        3.048341   -1.517964   -1.663320
     18          1           0        2.923757    1.556866   -1.649092
     19          1           0        1.588839    0.450404   -2.036992
     20          1           0        2.976430    0.535766   -3.084734
 ---------------------------------------------------------------------
                    Distance matrix (angstroms):
                    1          2          3          4          5
     1  C    0.000000
     2  C    1.597576   0.000000
     3  C    2.913041   1.603531   0.000000
     4  C    3.465234   2.745649   1.563713   0.000000
     5  C    3.291152   3.154901   2.644768   1.539762   0.000000
     6  C    4.895652   3.951497   2.492658   1.521787   2.470489
     7  F    5.193502   4.155989   2.897794   2.364849   2.837468
     8  F    5.576829   4.410495   2.808295   2.377894   3.681707
     9  F    5.775484   5.082749   3.720733   2.394601   2.838934
    10  H    1.091790   2.151480   3.695669   4.480426   4.344773
    11  H    1.102804   2.296196   3.276630   3.573879   3.476740
    12  H    1.096434   2.293820   3.377906   3.576214   2.920463
    13  H    1.954866   1.085514   1.937809   2.811777   2.848835
    14  H    1.761376   1.084282   1.765786   2.738663   3.382140
    15  H    3.480541   2.195414   1.104033   2.184424   3.522780
    16  H    3.677893   2.196028   1.096778   2.210108   3.201124
    17  H    3.707690   3.217702   2.167226   1.096165   2.145771
    18  H    3.495846   3.252124   2.906302   2.201334   1.095278
    19  H    2.638067   3.026606   3.010486   2.207585   1.089854
    20  H    4.275719   4.228955   3.564846   2.168309   1.095118
                    6          7          8          9         10
     6  C    0.000000
     7  F    1.347650   0.000000
     8  F    1.340293   2.165601   0.000000
     9  F    1.355928   2.168711   2.166192   0.000000
    10  H    5.867240   6.073592   6.464894   6.817423   0.000000
    11  H    5.088826   5.640184   5.713544   5.826897   1.759361
    12  H    4.937508   5.101435   5.838639   5.668000   1.777851
    13  H    3.838314   3.723421   4.513199   4.938128   2.505069
    14  H    4.065290   4.590754   4.370360   5.110410   2.363985
    15  H    2.925450   3.570443   2.757465   4.110273   4.151923
    16  H    2.520330   2.470201   2.685526   3.864575   4.327542
    17  H    2.142093   3.288730   2.661157   2.647766   4.729877
    18  H    2.786240   2.603702   4.035446   3.274507   4.427977
    19  H    3.444956   3.883311   4.545768   3.800063   3.689430
    20  H    2.639585   3.101603   3.901177   2.441367   5.341119
                   11         12         13         14         15
    11  H    0.000000
    12  H    1.752943   0.000000
    13  H    2.885077   2.131660   0.000000
    14  H    1.889348   2.679132   2.122642   0.000000
    15  H    3.619334   4.161015   2.860692   1.874028   0.000000
    16  H    4.232142   4.049998   2.164466   2.668308   1.695126
    17  H    3.482740   3.944608   3.567012   2.823586   2.330859
    18  H    3.977677   2.963871   2.590137   3.796958   3.945637
    19  H    2.669907   2.161189   2.858734   3.135770   3.818911
    20  H    4.310693   3.825432   3.936629   4.354613   4.327083
                   16         17         18         19         20
    16  H    0.000000
    17  H    3.018090   0.000000
    18  H    3.140395   3.077385   0.000000
    19  H    3.769240   2.478759   1.776719   0.000000
    20  H    4.071708   2.498678   1.762523   1.740821   0.000000
 Stoichiometry    C6H11F3
 Framework group  C1[X(C6H11F3)]
 Deg. of freedom    54
 Full point group                 C1      NOp   1
 Largest Abelian subgroup         C1      NOp   1
 Largest concise Abelian subgroup C1      NOp   1
                         Standard orientation:                         
 ---------------------------------------------------------------------
 Center     Atomic      Atomic             Coordinates (Angstroms)
 Number     Number       Type             X           Y           Z
 ---------------------------------------------------------------------
      1          6           0       -3.427599    0.306512   -0.129946
      2          6           0       -2.405995   -0.852009    0.277981
      3          6           0       -0.842953   -1.033475   -0.030695
      4          6           0        0.018578    0.193590   -0.474848
      5          6           0       -0.395973    1.571140    0.074125
      6          6           0        1.453175   -0.063372   -0.036966
      7          9           0        1.547469   -0.088350    1.307150
      8          9           0        1.919862   -1.234416   -0.492207
      9          9           0        2.307633    0.896661   -0.469142
     10          1           0       -4.411555   -0.086775    0.133038
     11          1           0       -3.461907    0.546598   -1.205751
     12          1           0       -3.283783    1.264585    0.383455
     13          1           0       -2.165427   -0.350820    1.210331
     14          1           0       -2.432620   -0.984360   -0.797864
     15          1           0       -0.756694   -1.822963   -0.797610
     16          1           0       -0.395485   -1.538495    0.833972
     17          1           0       -0.011244    0.246250   -1.569341
     18          1           0       -0.443584    1.583682    1.168296
     19          1           0       -1.349203    1.919718   -0.322900
     20          1           0        0.341423    2.323211   -0.225745
 ---------------------------------------------------------------------
 Rotational constants (GHZ):           2.9418834           0.8878751           0.7990336
 Standard basis: 6-31G(2df,p) (6D, 7F)
 There are   334 symmetry adapted cartesian basis functions of A   symmetry.
 There are   307 symmetry adapted basis functions of A   symmetry.
   307 basis functions,   473 primitive gaussians,   334 cartesian basis functions
    37 alpha electrons       37 beta electrons
       nuclear repulsion energy       516.0455826712 Hartrees.
 NAtoms=   20 NActive=   20 NUniq=   20 SFac= 1.00D+00 NAtFMM=   60 NAOKFM=F Big=F
 Integral buffers will be    131072 words long.
 Raffenetti 2 integral format.
 Two-electron integral symmetry is turned on.
 One-electron integrals computed using PRISM.
 PrsmSu:  requested number of processors reduced to:  13 ShMem   1 Linda.
 NBasis=   307 RedAO= T EigKep=  6.23D-04  NBF=   307
 NBsUse=   307 1.00D-06 EigRej= -1.00D+00 NBFU=   307
 Initial guess from the checkpoint file:  "CCqCrCqCrCqFrqFrF.chk"
 B after Tr=    -0.000000   -0.000000    0.000000
         Rot=    0.999966   -0.006164    0.000054    0.005550 Ang=  -0.95 deg.
 ExpMin= 1.61D-01 ExpMax= 7.00D+03 ExpMxC= 1.05D+03 IAcc=2 IRadAn=         4 AccDes= 0.00D+00
 Harris functional with IExCor=  402 and IRadAn=       4 diagonalized for initial guess.
 HarFok:  IExCor=  402 AccDes= 0.00D+00 IRadAn=         4 IDoV= 1 UseB2=F ITyADJ=14
 ICtDFT=  3500011 ScaDFX=  1.000000  1.000000  1.000000  1.000000
 FoFCou: FMM=F IPFlag=           0 FMFlag=      100000 FMFlg1=           0
         NFxFlg=           0 DoJE=T BraDBF=F KetDBF=T FulRan=T
         wScrn=  0.000000 ICntrl=       500 IOpCl=  0 I1Cent=   200000004 NGrid=           0
         NMat0=    1 NMatS0=      1 NMatT0=    0 NMatD0=    1 NMtDS0=    0 NMtDT0=    0
 Petite list used in FoFCou.
 Requested convergence on RMS density matrix=1.00D-08 within 128 cycles.
 Requested convergence on MAX density matrix=1.00D-06.
 Requested convergence on             energy=1.00D-06.
 No special actions if energy rises.
 Integral accuracy reduced to 1.0D-05 until final iterations.
 Initial convergence to 1.0D-05 achieved.  Increase integral accuracy.
 SCF Done:  E(RB3LYP) =  -534.638152477     A.U. after   12 cycles
            NFock= 12  Conv=0.47D-08     -V/T= 2.0066
 PrsmSu:  requested number of processors reduced to:  13 ShMem   1 Linda.
 Calling FoFJK, ICntrl=      2127 FMM=F ISym2X=0 I1Cent= 0 IOpClX= 0 NMat=1 NMatS=1 NMatT=0.
 ***** Axes restored to original set *****
 -------------------------------------------------------------------
 Center     Atomic                   Forces (Hartrees/Bohr)
 Number     Number              X              Y              Z
 -------------------------------------------------------------------
      1        6          -0.008086510    0.003113075   -0.044298514
      2        6           0.001225505    0.006450312   -0.036354663
      3        6           0.012174834   -0.013372930   -0.036597006
      4        6           0.003877759    0.003468733    0.002684118
      5        6          -0.000621660    0.002204538   -0.003384648
      6        6           0.001470293   -0.003437027   -0.010421762
      7        9           0.000380962   -0.001800466   -0.000421156
      8        9           0.000605761   -0.000688411    0.000852059
      9        9          -0.000942274   -0.000272837    0.006473993
     10        1           0.004197906   -0.000608220    0.003018657
     11        1          -0.001111977    0.000824815    0.001701818
     12        1          -0.002998689    0.002334226    0.001314475
     13        1          -0.001979446    0.005243652    0.052407532
     14        1          -0.006684168   -0.013043395    0.067095255
     15        1          -0.001002552    0.003476198   -0.006553503
     16        1          -0.007465381    0.008444409   -0.002002045
     17        1           0.004685677    0.000304349   -0.001971289
     18        1          -0.000414602   -0.001124460    0.001093005
     19        1           0.000637598   -0.001570124    0.003907749
     20        1           0.002050964    0.000053564    0.001455925
 -------------------------------------------------------------------
 Cartesian Forces:  Max     0.067095255 RMS     0.014760836

 GradGradGradGradGradGradGradGradGradGradGradGradGradGradGradGradGradGrad
 Berny optimization.
 Using GEDIIS/GDIIS optimizer.
 FormGI is forming the generalized inverse of G from B-inverse, IUseBI=4.
 Internal  Forces:  Max     0.059952818 RMS     0.010514403
 Search for a local minimum.
 Step number   2 out of a maximum of  110
 All quantities printed in internal units (Hartrees-Bohrs-Radians)
 Mixed Optimization -- RFO/linear search
 Update second derivatives using D2CorX and points    1    2
 DE= -4.55D-02 DEPred=-3.86D-02 R= 1.18D+00
 TightC=F SS=  1.41D+00  RLast= 4.01D-01 DXNew= 5.0454D-01 1.2023D+00
 Trust test= 1.18D+00 RLast= 4.01D-01 DXMaxT set to 5.05D-01
 ITU=  1  0
 Use linear search instead of GDIIS.
     Eigenvalues ---    0.00229   0.00230   0.00230   0.00232   0.00607
     Eigenvalues ---    0.01027   0.02609   0.02999   0.03469   0.04425
     Eigenvalues ---    0.04495   0.04734   0.05063   0.05348   0.05552
     Eigenvalues ---    0.05802   0.08277   0.08558   0.09782   0.10243
     Eigenvalues ---    0.13294   0.13507   0.15678   0.15899   0.16000
     Eigenvalues ---    0.16000   0.16000   0.16000   0.16464   0.17528
     Eigenvalues ---    0.19857   0.23473   0.24999   0.25000   0.25737
     Eigenvalues ---    0.27638   0.27906   0.28090   0.30949   0.32233
     Eigenvalues ---    0.33350   0.33418   0.33906   0.33962   0.34105
     Eigenvalues ---    0.34234   0.34451   0.34478   0.34704   0.34922
     Eigenvalues ---    0.52483   0.53237   0.56101   0.59618
 RFO step:  Lambda=-2.96932475D-02 EMin= 2.29209857D-03
 Quartic linear search produced a step of  1.26426.
 Iteration  1 RMS(Cart)=  0.11394059 RMS(Int)=  0.03693636
 Iteration  2 RMS(Cart)=  0.13442554 RMS(Int)=  0.01544665
 Iteration  3 RMS(Cart)=  0.01805905 RMS(Int)=  0.01389788
 Iteration  4 RMS(Cart)=  0.00045483 RMS(Int)=  0.01389591
 Iteration  5 RMS(Cart)=  0.00025376 RMS(Int)=  0.01389537
 Iteration  6 RMS(Cart)=  0.00020315 RMS(Int)=  0.01389502
 Iteration  7 RMS(Cart)=  0.00015761 RMS(Int)=  0.01389482
 Iteration  8 RMS(Cart)=  0.00012368 RMS(Int)=  0.01389470
 Iteration  9 RMS(Cart)=  0.00009652 RMS(Int)=  0.01389462
 Iteration 10 RMS(Cart)=  0.00007578 RMS(Int)=  0.01389457
 Iteration 11 RMS(Cart)=  0.00005928 RMS(Int)=  0.01389455
 Iteration 12 RMS(Cart)=  0.00004654 RMS(Int)=  0.01389453
 Iteration 13 RMS(Cart)=  0.00003646 RMS(Int)=  0.01389452
 Iteration 14 RMS(Cart)=  0.00002862 RMS(Int)=  0.01389451
 Iteration 15 RMS(Cart)=  0.00002243 RMS(Int)=  0.01389451
 Iteration 16 RMS(Cart)=  0.00001761 RMS(Int)=  0.01389451
 Iteration 17 RMS(Cart)=  0.00001381 RMS(Int)=  0.01389450
 Iteration 18 RMS(Cart)=  0.00001084 RMS(Int)=  0.01389450
 Iteration 19 RMS(Cart)=  0.00000850 RMS(Int)=  0.01389450
 Iteration 20 RMS(Cart)=  0.00000667 RMS(Int)=  0.01389450
 Iteration 21 RMS(Cart)=  0.00000523 RMS(Int)=  0.01389450
 Iteration 22 RMS(Cart)=  0.00000411 RMS(Int)=  0.01389450
 Iteration 23 RMS(Cart)=  0.00000322 RMS(Int)=  0.01389450
 Iteration 24 RMS(Cart)=  0.00000253 RMS(Int)=  0.01389450
 Iteration 25 RMS(Cart)=  0.00000198 RMS(Int)=  0.01389450
 Iteration 26 RMS(Cart)=  0.00000156 RMS(Int)=  0.01389450
 Iteration 27 RMS(Cart)=  0.00000122 RMS(Int)=  0.01389450
 Iteration 28 RMS(Cart)=  0.00000096 RMS(Int)=  0.01389450
 Variable       Old X    -DE/DX   Delta X   Delta X   Delta X     New X
                                 (Linear)    (Quad)   (Total)
    R1        3.01898   0.02359   0.10921   0.05788   0.16709   3.18607
    R2        2.06318  -0.00029  -0.00267   0.00005  -0.00261   2.06057
    R3        2.08400  -0.00108   0.00109  -0.00535  -0.00426   2.07973
    R4        2.07196   0.00121   0.00835   0.00109   0.00944   2.08140
    R5        3.03023   0.03266   0.14455   0.08223   0.22678   3.25701
    R6        2.05132  -0.00542  -0.02115  -0.01294  -0.03410   2.01723
    R7        2.04900  -0.00124  -0.01037  -0.00019  -0.01056   2.03843
    R8        2.95499   0.00120   0.03946  -0.01760   0.02186   2.97685
    R9        2.08632  -0.00551  -0.02157  -0.01383  -0.03540   2.05092
   R10        2.07261  -0.00252  -0.01363  -0.00421  -0.01784   2.05477
   R11        2.90973  -0.00263  -0.01230  -0.00626  -0.01856   2.89117
   R12        2.87576   0.00155   0.02325  -0.00536   0.01788   2.89364
   R13        2.07145  -0.00101  -0.00426  -0.00227  -0.00653   2.06492
   R14        2.06977  -0.00073  -0.00221  -0.00208  -0.00430   2.06548
   R15        2.05953  -0.00049  -0.00256  -0.00083  -0.00339   2.05614
   R16        2.06947  -0.00083  -0.00540  -0.00092  -0.00632   2.06315
   R17        2.54669  -0.00160  -0.00824  -0.00189  -0.01013   2.53656
   R18        2.53279   0.00120  -0.00269   0.00404   0.00135   2.53414
   R19        2.56233  -0.00650  -0.01238  -0.01480  -0.02719   2.53514
    A1        1.82718  -0.00895  -0.04948  -0.02310  -0.07169   1.75549
    A2        2.01181   0.00228   0.04589  -0.02873   0.01626   2.02808
    A3        2.01554   0.00440   0.03258   0.00351   0.03534   2.05088
    A4        1.86018   0.00210  -0.00988   0.02979   0.02057   1.88075
    A5        1.89672   0.00116  -0.00624   0.02018   0.01488   1.91161
    A6        1.84484  -0.00109  -0.01710   0.00377  -0.01507   1.82977
    A7        2.28662  -0.05995  -0.18510  -0.25195  -0.44393   1.84269
    A8        1.59701   0.00280   0.00968   0.01907   0.06519   1.66220
    A9        1.38926  -0.00592  -0.00986   0.02002   0.09378   1.48304
   A10        1.57236   0.00666   0.02171   0.03873   0.08383   1.65619
   A11        1.38892  -0.00192   0.01284   0.02925   0.11102   1.49994
   A12        2.72388   0.03086   0.16503   0.25966   0.40112   3.12500
   A13        2.09776   0.01989   0.13515   0.01993   0.15781   2.25558
   A14        1.86586  -0.00353  -0.00471  -0.03534  -0.03824   1.82762
   A15        1.87343  -0.01126  -0.08002  -0.01365  -0.09204   1.78139
   A16        1.89736  -0.00820  -0.06149  -0.01037  -0.07259   1.82477
   A17        1.93957  -0.00518  -0.03644  -0.00042  -0.03326   1.90631
   A18        1.75839   0.00628   0.03183   0.04348   0.07183   1.83022
   A19        2.04030  -0.00526  -0.02798  -0.02395  -0.05217   1.98813
   A20        1.88090   0.00313   0.03207  -0.01191   0.02063   1.90152
   A21        1.88211   0.00188   0.00873   0.00918   0.01855   1.90066
   A22        1.87788   0.00323   0.01624   0.00522   0.02187   1.89975
   A23        1.88145   0.00194   0.01194   0.01279   0.02512   1.90657
   A24        1.89765  -0.00526  -0.04503   0.01082  -0.03450   1.86315
   A25        1.95856  -0.00061  -0.00070  -0.00556  -0.00653   1.95203
   A26        1.97332  -0.00444  -0.02050  -0.01836  -0.03915   1.93417
   A27        1.91292  -0.00058  -0.01004   0.00728  -0.00276   1.91016
   A28        1.89889   0.00160   0.00483   0.00514   0.00947   1.90836
   A29        1.87020   0.00091   0.00612   0.00371   0.00983   1.88004
   A30        1.84371   0.00366   0.02324   0.00983   0.03305   1.87676
   A31        1.93486   0.00161   0.01564   0.00096   0.01635   1.95121
   A32        1.95848  -0.00077   0.00722  -0.00831  -0.00115   1.95733
   A33        1.96361   0.00064   0.03642  -0.02360   0.01251   1.97613
   A34        1.87361  -0.00078  -0.02190   0.01582  -0.00607   1.86754
   A35        1.86181  -0.00053  -0.01926   0.00827  -0.01146   1.85036
   A36        1.86600  -0.00028  -0.02205   0.00955  -0.01261   1.85339
    D1        2.95833   0.00564   0.03369   0.05236   0.07487   3.03320
    D2       -1.72918   0.01404   0.06809   0.10826   0.16471  -1.56447
    D3        1.80272  -0.02048  -0.10711  -0.15778  -0.24185   1.56087
    D4        0.92081   0.00776   0.05283   0.04634   0.08849   1.00930
    D5        2.51649   0.01616   0.08723   0.10224   0.17833   2.69482
    D6       -0.23480  -0.01836  -0.08796  -0.16381  -0.22823  -0.46302
    D7       -1.24012   0.00338   0.01079   0.06344   0.06232  -1.17779
    D8        0.35556   0.01178   0.04518   0.11934   0.15217   0.50773
    D9       -2.39573  -0.02274  -0.13001  -0.14670  -0.25439  -2.65012
   D10        0.31896  -0.00433  -0.02251  -0.05715  -0.06555   0.25342
   D11       -1.85196  -0.00497  -0.03353  -0.02577  -0.04760  -1.89956
   D12        2.55669  -0.00587  -0.03336  -0.05416  -0.07736   2.47933
   D13       -1.28794  -0.01186  -0.05512  -0.10783  -0.14870  -1.43664
   D14        2.82432  -0.01251  -0.06614  -0.07644  -0.13075   2.69357
   D15        0.94978  -0.01340  -0.06597  -0.10484  -0.16050   0.78928
   D16        1.47472   0.02014   0.11106   0.14921   0.23826   1.71298
   D17       -0.69621   0.01949   0.10004   0.18059   0.25621  -0.44000
   D18       -2.57075   0.01860   0.10021   0.15219   0.22645  -2.34429
   D19        0.54322  -0.00186  -0.01456  -0.01928  -0.03208   0.51115
   D20        2.65913   0.00125   0.01335  -0.03815  -0.02345   2.63567
   D21       -1.57833  -0.00229  -0.01804  -0.02689  -0.04320  -1.62153
   D22        2.69912   0.00137   0.03022  -0.06260  -0.03387   2.66525
   D23       -1.46816   0.00449   0.05812  -0.08148  -0.02525  -1.49341
   D24        0.57757   0.00095   0.02674  -0.07021  -0.04499   0.53258
   D25       -1.66424   0.00183   0.01414  -0.01691  -0.00261  -1.66685
   D26        0.45166   0.00494   0.04205  -0.03578   0.00602   0.45768
   D27        2.49739   0.00140   0.01066  -0.02452  -0.01373   2.48366
   D28        0.96546   0.00005   0.00552  -0.00932  -0.00377   0.96169
   D29       -1.19037   0.00183   0.01562   0.00234   0.01775  -1.17262
   D30        3.04109   0.00041   0.00606  -0.00337   0.00259   3.04368
   D31       -1.15202  -0.00302  -0.03064   0.01847  -0.01179  -1.16381
   D32        2.97533  -0.00124  -0.02053   0.03014   0.00973   2.98506
   D33        0.92361  -0.00267  -0.03010   0.02443  -0.00544   0.91817
   D34        3.08736   0.00044   0.00737  -0.00359   0.00375   3.09111
   D35        0.93153   0.00222   0.01747   0.00807   0.02526   0.95680
   D36       -1.12019   0.00080   0.00791   0.00236   0.01010  -1.11009
   D37       -1.14453   0.00145   0.00778   0.01480   0.02227  -1.12226
   D38        0.95023   0.00105  -0.00444   0.03001   0.02511   0.97534
   D39        3.05548   0.00059  -0.00206   0.01943   0.01685   3.07233
   D40        1.06981  -0.00095   0.00364  -0.01887  -0.01473   1.05508
   D41       -3.11862  -0.00136  -0.00858  -0.00366  -0.01189  -3.13051
   D42       -1.01337  -0.00181  -0.00620  -0.01424  -0.02015  -1.03351
   D43        3.10303   0.00032   0.00316   0.00467   0.00799   3.11103
   D44       -1.08539  -0.00009  -0.00906   0.01988   0.01083  -1.07456
   D45        1.01985  -0.00054  -0.00668   0.00930   0.00258   1.02243
         Item               Value     Threshold  Converged?
 Maximum Force            0.059953     0.000450     NO 
 RMS     Force            0.010514     0.000300     NO 
 Maximum Displacement     1.000677     0.001800     NO 
 RMS     Displacement     0.204705     0.001200     NO 
 Predicted change in Energy=-9.259608D-02
 GradGradGradGradGradGradGradGradGradGradGradGradGradGradGradGradGradGrad

                          Input orientation:                          
 ---------------------------------------------------------------------
 Center     Atomic      Atomic             Coordinates (Angstroms)
 Number     Number       Type             X           Y           Z
 ---------------------------------------------------------------------
      1          6           0        0.527652    0.134375    0.097037
      2          6           0        1.787891   -0.050630    1.201644
      3          6           0        3.142249   -0.577114    0.274765
      4          6           0        3.349693   -0.556359   -1.286662
      5          6           0        2.598672    0.571470   -1.997078
      6          6           0        4.844952   -0.421445   -1.587870
      7          9           0        5.336966    0.749818   -1.154498
      8          9           0        5.567308   -1.389694   -1.005634
      9          9           0        5.128063   -0.479887   -2.897894
     10          1           0       -0.300429    0.351296    0.772475
     11          1           0        0.258935   -0.758500   -0.487576
     12          1           0        0.617430    0.941915   -0.646582
     13          1           0        2.070911    0.978637    1.199859
     14          1           0        1.493707   -1.088283    1.219182
     15          1           0        3.280354   -1.616638    0.554404
     16          1           0        3.963739   -0.048355    0.752124
     17          1           0        3.030807   -1.516779   -1.698878
     18          1           0        2.848599    1.551139   -1.581814
     19          1           0        1.523181    0.418102   -1.936459
     20          1           0        2.870621    0.579571   -3.054406
 ---------------------------------------------------------------------
                    Distance matrix (angstroms):
                    1          2          3          4          5
     1  C    0.000000
     2  C    1.685997   0.000000
     3  C    2.715497   1.723536   0.000000
     4  C    3.218020   2.981050   1.575283   0.000000
     5  C    2.977498   3.358005   2.603073   1.529942   0.000000
     6  C    4.667647   4.155059   2.528406   1.531250   2.489801
     7  F    5.007456   4.334520   2.936039   2.381768   2.870541
     8  F    5.379294   4.577026   2.860178   2.385632   3.693498
     9  F    5.523650   5.305396   3.744152   2.400940   2.883512
    10  H    1.090407   2.169518   3.600234   4.288038   4.015430
    11  H    1.100548   2.385844   2.987902   3.198778   3.085739
    12  H    1.101431   2.402304   3.087238   3.181161   2.426187
    13  H    2.076209   1.067471   2.103313   3.189715   3.265688
    14  H    1.920251   1.078691   1.967462   3.163365   3.784185
    15  H    3.294328   2.258041   1.085302   2.125681   3.429660
    16  H    3.502745   2.221799   1.087338   2.189011   3.131406
    17  H    3.495341   3.479578   2.188756   1.092711   2.153242
    18  H    3.195709   3.382071   2.839468   2.186266   1.093004
    19  H    2.281816   3.183940   2.915707   2.169783   1.088061
    20  H    3.952126   4.436601   3.534838   2.155172   1.091772
                    6          7          8          9         10
     6  C    0.000000
     7  F    1.342291   0.000000
     8  F    1.341009   2.157019   0.000000
     9  F    1.341540   2.143652   2.145072   0.000000
    10  H    5.713431   5.970952   6.373622   6.605376   0.000000
    11  H    4.728192   5.339120   5.370811   5.440189   1.769820
    12  H    4.540563   4.750673   5.483303   5.237913   1.790256
    13  H    4.174561   4.032676   4.764240   5.316488   2.489872
    14  H    4.422110   4.876845   4.651331   5.525305   2.343258
    15  H    2.909602   3.570730   2.777657   4.077326   4.091739
    16  H    2.528103   2.481540   2.731362   3.855451   4.282903
    17  H    2.122074   3.279052   2.632598   2.628928   4.549112
    18  H    2.806519   2.648903   4.046216   3.324619   4.110799
    19  H    3.443910   3.907231   4.526536   3.837436   3.266241
    20  H    2.655324   3.117931   3.917601   2.498598   4.975207
                   11         12         13         14         15
    11  H    0.000000
    12  H    1.745054   0.000000
    13  H    3.024621   2.350169   0.000000
    14  H    2.132238   2.893206   2.146088   0.000000
    15  H    3.309244   3.883262   2.935101   1.978180   0.000000
    16  H    3.970734   3.759627   2.199540   2.720413   1.722097
    17  H    3.118576   3.602345   3.943498   3.325862   2.269256
    18  H    3.638426   2.494779   2.944530   4.080178   3.845081
    19  H    2.254323   1.660887   3.232753   3.496875   3.664999
    20  H    3.898712   3.317496   4.347132   4.789696   4.244375
                   16         17         18         19         20
    16  H    0.000000
    17  H    3.005668   0.000000
    18  H    3.041247   3.075553   0.000000
    19  H    3.660926   2.464376   1.779404   0.000000
    20  H    4.009847   2.501560   1.764358   1.758259   0.000000
 Stoichiometry    C6H11F3
 Framework group  C1[X(C6H11F3)]
 Deg. of freedom    54
 Full point group                 C1      NOp   1
 Largest Abelian subgroup         C1      NOp   1
 Largest concise Abelian subgroup C1      NOp   1
                         Standard orientation:                         
 ---------------------------------------------------------------------
 Center     Atomic      Atomic             Coordinates (Angstroms)
 Number     Number       Type             X           Y           Z
 ---------------------------------------------------------------------
      1          6           0       -3.185529    0.477431   -0.186562
      2          6           0       -2.581409   -1.012907    0.319913
      3          6           0       -0.904071   -0.991113   -0.075867
      4          6           0        0.009950    0.228545   -0.474011
      5          6           0       -0.430728    1.559593    0.138228
      6          6           0        1.448149   -0.064593   -0.037687
      7          9           0        1.554475   -0.159775    1.296997
      8          9           0        1.907493   -1.215300   -0.550699
      9          9           0        2.318435    0.885438   -0.411552
     10          1           0       -4.251368    0.332755   -0.007557
     11          1           0       -3.053796    0.718341   -1.252308
     12          1           0       -2.840584    1.375181    0.350288
     13          1           0       -2.438914   -0.719918    1.336449
     14          1           0       -2.740229   -1.317798   -0.702532
     15          1           0       -0.807098   -1.686220   -0.903697
     16          1           0       -0.463259   -1.506396    0.774116
     17          1           0        0.023614    0.320026   -1.562800
     18          1           0       -0.508253    1.500623    1.226883
     19          1           0       -1.385973    1.877636   -0.274365
     20          1           0        0.304052    2.330766   -0.101266
 ---------------------------------------------------------------------
 Rotational constants (GHZ):           2.8641194           0.9030846           0.8073988
 Standard basis: 6-31G(2df,p) (6D, 7F)
 There are   334 symmetry adapted cartesian basis functions of A   symmetry.
 There are   307 symmetry adapted basis functions of A   symmetry.
   307 basis functions,   473 primitive gaussians,   334 cartesian basis functions
    37 alpha electrons       37 beta electrons
       nuclear repulsion energy       514.9861248745 Hartrees.
 NAtoms=   20 NActive=   20 NUniq=   20 SFac= 1.00D+00 NAtFMM=   60 NAOKFM=F Big=F
 Integral buffers will be    131072 words long.
 Raffenetti 2 integral format.
 Two-electron integral symmetry is turned on.
[...]
 92774,0.12386574,0.00001353,0.00005041,-0.00006807,0.00028001,0.000353
 87,0.00010794,0.00001452,0.00019967,-0.00060996,-0.00027223,0.03503419
 ,-0.01011818,-0.00610010,0.00021334,0.00378101,-0.08945325,0.03788503,
 -0.00779709,0.00286818,-0.04728061,0.00410010,0.07795029,0.00012159,-0
 .00035043,0.00019647,-0.00023893,0.00077246,-0.00066282,-0.00037998,-0
 .00177351,0.00315854,0.00459118,-0.03477369,0.01346423,0.00765676,0.00
 100394,-0.00343754,0.04561135,-0.23879677,0.04311590,-0.03226825,-0.06
 519741,-0.00157624,-0.02530550,0.35086410,-0.00001044,0.00002923,-0.00
 018129,-0.00034275,-0.00105216,0.00106363,0.00095943,0.00157146,-0.001
 89706,0.00082572,0.00148314,0.00573439,0.00039173,0.00006191,0.0006801
 2,-0.01132127,0.04721957,-0.08821386,0.00165909,-0.00800617,0.01507993
 ,0.00842555,-0.09536643,0.11581429,0.00008975,0.00020794,-0.00000881,0
 .00114559,-0.00041356,0.00256356,-0.00633140,0.00382385,-0.00231917,-0
 .00195302,0.00314918,0.03775267,0.00009740,-0.00040795,0.00045042,-0.0
 9104671,0.00648337,0.04199115,0.00438275,-0.01207228,-0.04494981,0.013
 43525,-0.00138451,-0.00321188,0.07946478,-0.00006224,-0.00016886,-0.00
 003922,-0.00036435,0.00039196,-0.00115725,0.00318401,-0.00067902,0.001
 15114,0.00332014,0.00531954,-0.01453888,0.00071703,-0.00006374,0.00066
 794,0.00568887,-0.07706806,-0.01352410,-0.00899370,0.00250568,-0.03263
 692,-0.00541906,-0.01229196,0.05806664,-0.00078228,0.08173889,0.000022
 53,-0.00032520,-0.00028661,-0.00137352,0.00061431,-0.00214844,0.006783
 36,-0.00281893,0.00291256,0.00563071,-0.00156079,-0.03425111,-0.000940
 59,0.00207214,-0.00235908,0.04995390,-0.01769471,-0.24693113,-0.029886
 66,-0.02649419,-0.05424807,0.00220128,0.04244221,-0.04976913,-0.034253
 18,0.00532616,0.38205594,-0.23820336,0.06550786,0.09752204,-0.02090594
 ,0.00821852,0.01070861,-0.00207057,-0.00447418,-0.00260296,0.00017766,
 -0.00009106,-0.00078865,-0.00005643,0.00009237,0.00006316,0.00027326,-
 0.00017502,-0.00033890,-0.00005950,0.00005998,0.00014701,-0.00007012,0
 .00005649,0.00007274,-0.00013491,0.00006074,0.00025520,0.26089204,0.06
 654458,-0.06893972,-0.03299008,-0.01842377,0.00579215,0.00960870,-0.00
 225044,-0.00266284,-0.00158758,-0.00007918,-0.00008107,-0.00046953,0.0
 0002007,0.00006735,0.00000368,0.00000051,-0.00023218,-0.00008111,0.000
 03809,0.00007179,0.00009918,0.00000671,0.00012656,-0.00000448,-0.00004
 320,0.00004625,0.00007695,-0.06979864,0.07223041,0.09862259,-0.0328347
 9,-0.09572952,-0.01076826,0.00388898,0.00418867,-0.00177525,-0.0016940
 7,-0.00057917,-0.00010409,-0.00045560,-0.00047962,0.00005612,-0.000018
 53,0.00015479,-0.00035419,0.00028016,0.00014841,0.00030740,0.00002714,
 0.00005155,0.00006296,-0.00008205,0.00003235,0.00002838,-0.00000412,0.
 00001165,-0.10593625,0.03752439,0.10128991,-0.05489458,0.04389883,-0.0
 1123099,0.00368018,-0.02560007,0.00722088,0.00210624,-0.00103651,0.000
 55818,-0.00004301,0.00006101,0.00005806,0.00005555,-0.00006195,-0.0000
 1871,-0.00008158,-0.00011265,0.00019932,0.00005918,0.00002751,-0.00002
 202,0.00001203,0.00009040,-0.00006219,0.00000873,0.00002227,-0.0000680
 2,-0.00444967,0.02619625,-0.00833850,0.05811481,0.04330274,-0.28146653
 ,0.06203442,0.00297930,-0.01977108,0.00488450,0.00129919,0.00081230,0.
 00008104,-0.00026439,0.00005330,0.00002411,0.00019763,-0.00001446,0.00
 000510,0.00008302,-0.00036182,0.00008930,-0.00001012,0.00006838,0.0000
 0979,-0.00003830,0.00022215,-0.00003807,-0.00005839,0.00007738,0.00003
 170,0.00136475,-0.00839377,0.00243617,-0.04491745,0.30897323,-0.011231
 91,0.06231232,-0.06415176,0.00214183,-0.01096259,0.00247273,0.00038412
 ,0.00049586,0.00021628,0.00001217,0.00009466,-0.00003936,-0.00012396,0
 .00001620,0.00008794,0.00009995,0.00025507,-0.00004563,-0.00003460,-0.
 00005850,-0.00000478,-0.00001715,-0.00015815,0.00004186,-0.00001188,-0
 .00003989,0.00003844,0.00203203,-0.01453829,0.00330611,0.01392561,-0.0
 6737765,0.06502157,-0.05067220,0.00163268,-0.03063952,-0.00260448,0.00
 218307,-0.02605693,0.00106926,0.00050982,-0.00068931,-0.00068563,-0.00
 033883,0.00003512,0.00001012,0.00001330,0.00023040,-0.00038540,0.00037
 339,0.00016132,0.00037456,0.00001239,0.00004015,0.00011110,-0.00012247
 ,0.00005432,0.00006620,-0.00003085,-0.00005105,0.00387222,-0.00244887,
 0.02793504,-0.00165152,0.00032873,-0.00614249,0.05411019,0.00179019,-0
 .04821227,0.01430164,-0.00175767,0.00058984,-0.02141024,0.00073848,0.0
 0027309,0.00045851,-0.00014346,0.00055243,0.00034189,-0.00027196,0.000
 17204,0.00002904,0.00016797,0.00005966,0.00001450,-0.00004448,-0.00003
 794,-0.00000743,0.00000076,-0.00009318,0.00001350,-0.00005539,-0.00002
 446,0.00005933,-0.00145492,-0.00019434,-0.01009742,0.00294411,-0.00085
 801,0.03145232,0.00068404,0.04913854,-0.03121461,0.01390337,-0.3022237
 9,-0.00136733,0.00004971,-0.00920741,0.00042275,-0.00025174,-0.0002270
 3,0.00029997,-0.00041768,-0.00083561,-0.00001379,-0.00001650,0.0002742
 7,-0.00037087,0.00034250,0.00020095,0.00039741,0.00002246,0.00006857,0
 .00006791,-0.00011334,0.00007173,-0.00003373,0.00002230,0.00012373,-0.
 00175380,0.00140510,-0.01388969,-0.00021924,0.00020262,-0.00748473,0.0
 3456991,-0.01361816,0.33087165,0.00353655,-0.02592271,0.00707715,-0.05
 561108,0.04352554,-0.01228167,-0.00714782,0.02968710,-0.00860055,0.001
 11599,-0.00018416,-0.00098609,-0.00006537,0.00011896,0.00021392,-0.000
 03911,0.00067351,-0.00086891,-0.00002042,-0.00013930,0.00009455,-0.000
 06626,-0.00037360,0.00053866,0.00000245,-0.00011297,0.00025283,0.00085
 921,0.00065125,0.00054923,-0.00382570,-0.00344728,-0.00194916,0.001086
 48,0.00097547,0.00002285,0.06491307,0.00234620,-0.01921227,0.00516125,
 0.04376519,-0.27358461,0.06369086,0.00271700,-0.00914182,0.00203959,-0
 .00009249,-0.00048607,0.00084918,0.00052629,-0.00028076,0.00080144,-0.
 00000753,-0.00042118,0.00038831,0.00003980,0.00010624,-0.00008275,-0.0
 0003474,0.00033341,-0.00025320,0.00005738,0.00010013,-0.00029229,-0.00
 031650,0.00064692,0.00023017,-0.00354883,-0.00090974,-0.00150155,0.000
 45261,0.00080360,-0.00040437,-0.04688253,0.30063503,0.00157930,-0.0115
 4401,0.00275654,-0.01248615,0.06507590,-0.06688707,0.00230994,-0.01164
 006,0.00307796,-0.00069008,-0.00059578,0.00054438,0.00059324,0.0000639
 9,-0.00050573,0.00040290,-0.00034629,0.00026503,-0.00011402,0.00004376
 ,-0.00003908,-0.00006942,0.00027411,-0.00019704,-0.00013881,0.00009624
 ,0.00005036,0.00033603,0.00057720,0.00010920,-0.00179346,-0.00198712,0
 .00025665,0.00078774,-0.00001466,0.00058230,0.01338671,-0.07083423,0.0
 7059174,-0.00338464,-0.00016988,-0.02696716,-0.04534857,0.00075029,-0.
 00951801,-0.00229376,-0.00073253,0.03219457,-0.00614882,0.00234100,0.0
 0043705,-0.00012914,0.00048708,-0.00034494,0.00175847,-0.00087280,0.00
 140368,-0.00034431,-0.00006662,-0.00018407,-0.00016914,0.00032980,-0.0
 0016210,-0.00094223,0.00040526,0.00095144,0.00084042,0.00082744,0.0001
 3289,0.00091003,0.00025109,0.00075621,-0.00369003,-0.00384549,-0.00154
 365,-0.00058843,0.00010336,-0.00609060,0.05687272,-0.00232810,-0.00030
 870,-0.02140283,0.00042917,-0.04836776,0.00683708,0.00099951,-0.000545
 04,-0.01127235,0.00212162,-0.00050699,0.00018272,0.00032074,-0.0001099
 1,0.00032440,-0.00035038,0.00031858,-0.00043831,0.00009993,0.00002428,
 0.00004106,-0.00001130,-0.00002269,0.00004836,0.00022207,-0.00007101,-
 0.00027660,0.00062147,0.00074975,0.00065187,0.00089915,0.00058839,-0.0
 0005577,-0.00338704,-0.00189690,-0.00152938,0.00101953,-0.00113964,0.0
 3123794,0.00101223,0.05028888,-0.00149581,-0.00008059,-0.01008294,-0.0
 0878687,0.00574156,-0.30200486,0.00034532,0.00057199,-0.01188832,0.002
 48447,-0.00074474,0.00138446,-0.00016264,-0.00018382,0.00020724,-0.001
 03849,0.00058413,-0.00059850,0.00033782,0.00002350,0.00009627,0.000166
 17,-0.00025596,0.00007499,0.00039821,-0.00020167,-0.00035422,-0.000415
 94,0.00017410,0.00071137,0.00019975,-0.00039216,0.00045401,-0.00151182
 ,-0.00143028,0.00112985,-0.00038360,0.00096706,-0.00924569,0.00965493,
 -0.00463244,0.32861659,0.00197390,0.00134494,-0.00064391,-0.00828356,0
 .02985048,-0.00860924,-0.05552485,0.04132879,-0.01580095,-0.00039128,-
 0.00258592,0.00036559,0.00018865,-0.00008251,0.00121074,0.00049754,-0.
 00217986,0.00126593,-0.00013159,0.00040426,-0.00009311,-0.00115069,0.0
 0131089,0.00067830,0.00006435,0.00026298,-0.00049920,0.00043358,-0.000
 27703,0.00025040,-0.00024110,-0.00100345,0.00006275,-0.00010319,-0.000
 09570,0.00002114,-0.00539468,0.00179907,0.00224235,0.00120455,-0.00061
 155,-0.00013000,0.06201846,-0.00080483,0.00103139,-0.00004290,0.002682
 86,-0.00993244,0.00210419,0.03989856,-0.27208068,0.07460479,-0.0009979
 3,-0.00061117,0.00036230,0.00019416,0.00103587,0.00028582,0.00120305,-
 0.00202611,0.00137730,-0.00028745,0.00030520,-0.00004049,0.00123036,0.
 00046053,-0.00286103,-0.00041074,0.00026029,-0.00000532,-0.00008159,0.
 00024999,-0.00015845,0.00074348,0.00055792,0.00021181,-0.00002232,0.00
 004271,-0.00000717,0.00152073,0.00099713,-0.00117864,-0.00001277,0.000
 23528,-0.00050513,-0.04858874,0.29627486,-0.00055294,0.00015050,-0.000
 10984,0.00296617,-0.01091856,0.00302697,-0.01510182,0.07146739,-0.0712
 9712,-0.00444788,0.03228184,-0.01237337,0.00154179,-0.00217690,-0.0066
 4034,-0.00076785,0.00484369,-0.00118902,0.00024094,-0.00060838,0.00009
 224,0.00041445,-0.00263033,0.00098845,-0.00014373,-0.00058881,0.000803
 58,-0.00008477,-0.00015183,-0.00007390,-0.00017791,0.00015899,0.000100
 80,0.00002126,0.00006082,0.00004284,0.00264040,-0.00059663,-0.00001132
 ,-0.00056450,-0.00024658,0.00050655,0.01204951,-0.08002020,0.08150988,
 -0.00396157,0.00370146,0.00344509,-0.02217739,-0.01863435,-0.01154375,
 -0.16965608,-0.10490749,-0.07356966,0.00212136,0.00129853,0.00084025,0
 .00001080,0.00005891,0.00011074,0.00020796,0.00051298,-0.00011753,-0.0
 0083937,0.00028338,0.00123753,-0.00013720,-0.00007721,-0.00002895,0.00
 009036,-0.00018555,-0.00036000,-0.00152202,-0.00109940,-0.00071231,0.0
 0030231,0.00006074,0.00015466,0.00016422,0.00012460,-0.00014496,0.0010
 1871,0.00040637,-0.00060307,0.00120271,-0.00034259,0.00032048,0.004199
 68,0.00345155,0.00284879,0.18815689,0.00146683,-0.00027579,-0.00068928
 ,0.00885182,0.00600708,0.00444076,-0.10504258,-0.13836058,-0.06068254,
 0.00137274,-0.00031574,0.00003308,0.00096761,0.00098609,0.00041288,-0.
 00261993,-0.00112367,-0.00132959,0.00084309,0.00072273,0.00124750,0.00
 067089,0.00025060,-0.00021741,0.00041446,0.00004665,0.00014168,0.00035
 753,0.00050702,-0.00004699,0.00028326,0.00039252,-0.00006524,-0.000058
 79,-0.00003094,0.00000973,-0.00053202,0.00065944,0.00041958,-0.0006462
 6,0.00030120,0.00045383,-0.02138259,-0.01760798,-0.01256251,0.11474061
 ,0.14642951,0.00216966,-0.00101607,-0.00032067,0.00833464,0.00729388,0
 .00385021,-0.07261180,-0.05985980,-0.08921495,-0.02300326,-0.02071297,
 -0.01797020,-0.00058236,-0.00149839,0.00179096,-0.00430340,-0.00166157
 ,-0.00094355,0.00177305,0.00122404,0.00125162,0.00055157,0.00007254,0.
 00008938,0.00066979,0.00031421,0.00042900,0.00069548,0.00018667,0.0003
 2989,-0.00021164,-0.00020848,-0.00012028,0.00032289,-0.00001062,0.0001
 5198,-0.00049847,-0.00011910,0.00019207,-0.00016221,0.00059399,0.00066
 600,0.00728692,0.00564004,0.00402170,0.07729676,0.06812415,0.10204196,
 -0.00054697,-0.00004030,0.00043671,0.00012249,0.00046569,-0.00017695,0
 .00398421,0.00282362,0.00105508,-0.16804060,-0.09920659,-0.07093433,0.
 00360978,0.00280876,0.00215188,-0.02391411,-0.02319144,-0.01654427,-0.
 00837951,0.00145620,0.00078821,0.00260720,0.00100403,0.00126364,0.0026
 3927,0.00146959,0.00058141,0.00008648,0.00013467,0.00000339,-0.0000109
 2,-0.00000858,-0.00008553,-0.00118037,0.00002556,0.00089539,-0.0000430
 2,0.00000334,0.00006873,0.00006249,-0.00014499,-0.00017916,0.00012077,
 -0.00000575,-0.00057815,0.00049473,0.00042053,0.00150562,0.18684736,-0
 .00050903,0.00027470,-0.00053690,-0.00061376,-0.00019913,-0.00028614,0
 .00081996,0.00040450,-0.00019128,-0.10361780,-0.13648439,-0.06522796,-
 0.02126158,-0.02105320,-0.01160440,0.00734176,0.00500575,0.00488223,0.
 00474663,0.00088307,-0.00008507,-0.00028535,0.00070767,-0.00017186,-0.
 00031551,0.00025364,0.00086001,0.00009262,-0.00002312,0.00036789,-0.00
 001905,-0.00011789,0.00012640,0.00033161,0.00010323,0.00051191,0.00000
 147,0.00002412,-0.00003150,0.00018330,0.00001841,0.00001653,0.00037399
 ,0.00054119,-0.00032327,0.00014518,0.00104346,0.00030602,0.11115481,0.
 15138985,0.00005038,0.00003786,-0.00028547,-0.00086718,-0.00013644,0.0
 0137949,-0.02299976,-0.01940064,-0.01659549,-0.07460259,-0.06525618,-0
 .09173776,0.00893231,0.00853402,0.00489621,0.00490456,0.00401639,0.001
 17251,0.00296333,-0.00013724,0.00106934,-0.00018447,0.00074268,-0.0000
 1444,-0.00014347,0.00004198,0.00046024,0.00007240,0.00017811,0.0004484
 4,0.00007709,0.00016711,-0.00014262,0.00101234,-0.00012329,0.00037854,
 0.00016376,-0.00001872,-0.00007530,-0.00004051,0.00025585,0.00028177,0
 .00000727,0.00046476,0.00110276,0.00109619,0.00049436,-0.00647302,0.07
 944540,0.06874256,0.10351361,0.00001871,0.00007833,-0.00020860,-0.0000
 5135,-0.00012268,0.00013098,0.00016664,-0.00010808,-0.00016115,0.00227
 981,0.00175874,0.00186767,-0.16360177,-0.10809788,-0.07466086,0.000442
 76,0.00041713,0.00079319,-0.00059178,0.00076760,-0.00023406,0.00002908
 ,-0.00047517,-0.00005459,-0.00015203,-0.00006886,-0.00012320,0.0000171
 7,-0.00000547,0.00003116,0.00004624,0.00001287,0.00008909,0.00010536,0
 .00013306,0.00005834,-0.00021459,0.00002400,-0.00007741,0.00001798,-0.
 00002633,0.00005747,0.00008521,0.00011685,0.00015505,0.00017525,-0.000
 17022,0.00032863,0.00086321,0.00101382,-0.00014327,0.17492968,-0.00003
 629,0.00004106,-0.00012358,0.00000775,0.00000607,0.00025470,-0.0002476
 1,0.00130039,-0.00179023,-0.02063152,-0.02125408,-0.01313510,-0.106519
 32,-0.14472027,-0.06829911,-0.00471540,-0.00151569,-0.00145227,0.00178
 618,0.00183353,0.00074199,0.00072192,0.00052792,0.00015731,0.00068400,
 0.00006632,0.00011127,0.00001767,0.00003327,0.00008386,0.00002055,0.00
 002444,-0.00004913,0.00009440,-0.00006409,0.00006559,-0.00010392,-0.00
 002263,0.00003199,-0.00008152,0.00004151,0.00004335,0.00039607,0.00032
 641,-0.00006178,0.00032754,0.00033043,0.00113166,0.00158655,-0.0052287
 9,0.00270126,0.11867189,0.16095693,-0.00001762,0.00004753,0.00004564,0
 .00000841,-0.00002569,-0.00000163,0.00112603,0.00038567,0.00147403,0.0
 0969676,0.00804610,0.00491318,-0.07478075,-0.06947565,-0.09628841,-0.0
 0077557,-0.00090783,-0.00011905,0.00012091,0.00064089,-0.00003741,0.00
 012535,-0.00005943,-0.00005609,0.00037963,-0.00014997,0.00025275,-0.00
 002049,-0.00002184,-0.00002428,0.00000238,-0.00003280,-0.00001084,-0.0
 0007754,-0.00003167,-0.00002174,0.00004348,-0.00003725,0.00002108,0.00
 000558,-0.00002897,-0.00002472,-0.00013459,-0.00017782,0.00012229,-0.0
 0034573,-0.00016638,-0.00004874,-0.00029042,0.00297190,-0.00030374,0.0
 8286532,0.07380524,0.10033563,0.00027128,-0.00008747,0.00011490,-0.000
 42664,0.00055725,0.00081017,-0.00041392,0.00039170,0.00035752,-0.00093
 941,-0.00004282,-0.00027167,-0.27473024,0.08817264,0.04008421,0.000688
 42,-0.00127741,0.00008645,0.00035665,0.00064754,0.00008534,0.00001837,
 0.00027502,-0.00011424,0.00000827,0.00008528,-0.00004784,0.00001580,0.
 00000526,0.00000208,-0.00005512,-0.00007334,-0.00005608,-0.00001594,0.
 00003520,-0.00011119,0.00034930,-0.00092748,0.00050436,0.00011167,-0.0
 0033797,0.00007512,0.00006077,-0.00002925,-0.00017713,0.00000469,0.000
 03692,0.00002385,0.00064803,0.00039014,-0.00014242,-0.01858299,0.00781
 201,0.00447491,0.29675111,-0.00013203,0.00000985,0.00030206,0.00009309
 ,-0.00002443,0.00028573,0.00010955,0.00094247,-0.00092170,0.03000617,-
 0.01225632,-0.00581698,0.08653717,-0.07913925,-0.01562747,-0.00407273,
 -0.00426525,0.00326811,0.00068006,0.00099433,0.00002024,0.00229245,-0.
 00255606,0.00001210,0.00027276,0.00016665,-0.00016796,-0.00000168,0.00
 002767,-0.00008455,0.00004393,0.00007562,-0.00016746,-0.00021118,-0.00
 031576,-0.00015532,-0.00023620,0.00052856,0.00041144,-0.00017439,0.000
 25490,-0.00013340,-0.00008069,-0.00001210,-0.00022816,-0.00004997,-0.0
 0001010,0.00013933,-0.00025348,0.00132981,-0.00078311,-0.01863713,0.00
 776056,0.00446021,-0.09641197,0.08744765,0.00023588,-0.00002699,0.0001
 4253,0.00014791,0.00100688,-0.00063204,-0.00051036,-0.00055530,0.00043
 584,-0.01313466,0.00437184,0.00174811,0.04121401,-0.01620355,-0.052876
 50,0.00092525,0.00156060,-0.00320003,0.00002463,0.00037647,0.00029381,
 -0.00087049,0.00100858,0.00022228,0.00023437,-0.00080472,0.00121127,-0
 .00002125,-0.00000112,-0.00001535,-0.00010392,-0.00009994,-0.00001723,
 -0.00000633,0.00000702,-0.00003372,0.00063810,0.00000439,-0.00154107,-
 0.00000293,-0.00028700,0.00009654,0.00017632,-0.00007750,0.00018863,-0
 .00001444,0.00007149,-0.00007389,0.00042716,-0.00058627,0.00036631,-0.
 01352504,0.00589638,0.00184534,-0.04598125,0.01558161,0.05569296,0.000
 15543,-0.00004111,0.00003361,-0.00007855,0.00038323,0.00015510,-0.0001
 0285,0.00111414,-0.00031465,-0.00080175,-0.00016657,-0.00346959,-0.054
 21603,-0.00050417,0.04364491,0.00053282,0.00020163,-0.00239801,-0.0001
 0109,0.00007350,0.00040418,0.00007945,-0.00042189,0.00043925,-0.000934
 85,0.00080368,0.00097061,0.00000467,0.00000118,0.00000720,-0.00004211,
 -0.00005875,-0.00000566,0.00001907,0.00004962,0.00001750,0.00013472,-0
 .00043050,-0.00014829,0.00005802,-0.00020516,0.00006457,0.00037347,0.0
 0019975,-0.00028168,0.00014397,0.00002610,0.00041430,0.00002949,0.0000
 2679,0.00039863,0.00401743,0.00020905,-0.02240606,-0.00412007,0.000226
 25,0.03014704,0.05484877,-0.00004900,0.00012837,0.00003348,0.00057317,
 -0.00044631,-0.00036464,0.00131312,-0.00645343,0.00048258,-0.00505860,
 0.00080740,0.03181639,-0.00000198,-0.04654032,-0.00774607,-0.00039297,
 0.00087860,0.00360493,0.00007750,-0.00009182,-0.00046530,-0.00028473,0
 .00058638,-0.00069242,0.00062881,-0.00060628,-0.00209974,-0.00005640,-
 0.00002208,-0.00001408,0.00006575,0.00004766,0.00000960,0.00000429,-0.
 00000725,-0.00002164,-0.00023888,0.00036414,-0.00005986,-0.00008858,0.
 00014745,-0.00001586,-0.00018344,-0.00004830,0.00215071,0.00018469,0.0
 0004806,0.00006049,-0.00050223,0.00112711,-0.00052131,0.00471752,-0.00
 044329,-0.01924223,0.00077874,-0.00095882,-0.01124284,-0.00148679,0.05
 148273,-0.00003513,-0.00002710,-0.00009137,-0.00035661,0.00000054,0.00
 023324,-0.00013093,0.00275488,0.00077084,0.00084435,-0.00022144,-0.011
 24450,0.04217624,-0.00469049,-0.30811394,0.00129901,0.00017020,-0.0033
 2131,-0.00030414,0.00010080,0.00040592,-0.00026947,-0.00013296,0.00043
 553,0.00074631,-0.00200105,0.00199829,0.00005830,0.00001178,0.00000920
 ,0.00000532,0.00001137,0.00002082,0.00000451,0.00000523,0.00002733,-0.
 00005319,0.00000784,0.00005500,0.00004432,-0.00000306,-0.00002637,0.00
 029380,0.00002364,-0.00081177,0.00008991,-0.00008910,0.00035054,0.0001
 6617,0.00025922,0.00055865,0.00281129,-0.00011339,-0.01207328,0.000282
 91,-0.00039472,-0.00385379,-0.04767297,0.00432781,0.33467098\\0.000007
 77,0.00002094,0.00000512,-0.00000442,-0.00001223,-0.00001425,-0.000005
 68,0.00001320,-0.00000472,-0.00002862,0.00000288,0.00002359,-0.0000051
 9,-0.00000086,-0.00000234,-0.00000450,-0.00001527,0.00001770,0.0000063
 7,-0.00000320,-0.00000015,0.00001200,0.00001270,-0.00000930,0.00001554
 ,-0.00001204,-0.00002149,-0.00000478,-0.00000350,-0.00000323,-0.000002
 68,-0.00000355,-0.00000224,-0.00000557,-0.00000795,0.00000028,0.000011
 08,-0.00000141,-0.00000937,0.00000017,-0.00000660,0.00001751,-0.000004
 79,0.00000572,0.00000495,0.00001073,0.00000037,0.00000219,-0.00000092,
 0.00000395,-0.00000345,0.00000039,-0.00000030,0.00000131,0.00000357,0.
 00000986,-0.00000482,-0.00000047,-0.00000274,0.00000272\\\@


 THOSE WITH THE GOLD MAKE THE RULES.

             -- PETER'S GOLDEN RULE
 Job cpu time:       0 days  2 hours 54 minutes 14.7 seconds.
 Elapsed time:       0 days  0 hours 44 minutes  9.5 seconds.
 File lengths (MBytes):  RWF=    153 Int=      0 D2E=      0 Chk=      9 Scr=      1
 Normal termination of Gaussian 16 at Sat May 27 23:48:20 2023.
### All Done ###
