### Starting Gaussian ###
 Entering Gaussian System, Link 0=g16
 Initial command:
 /cluster/software/gaussian/gaussian-16-A.03/avx2/g16/l1.exe "/local/scratch/linjian/Gau-14682.inp" -scrdir="/local/scratch/linjian/"
 Entering Link 1 = /cluster/software/gaussian/gaussian-16-A.03/avx2/g16/l1.exe PID=     14683.
  
 Copyright (c) 1988,1990,1992,1993,1995,1998,2003,2009,2016,
            Gaussian, Inc.  All Rights Reserved.
  
 This is part of the Gaussian(R) 16 program.  It is based on
 the Gaussian(R) 09 system (copyright 2009, Gaussian, Inc.),
 the Gaussian(R) 03 system (copyright 2003, Gaussian, Inc.),
 the Gaussian(R) 98 system (copyright 1998, Gaussian, Inc.),
 the Gaussian(R) 94 system (copyright 1995, Gaussian, Inc.),
 the Gaussian 92(TM) system (copyright 1992, Gaussian, Inc.),
 the Gaussian 90(TM) system (copyright 1990, Gaussian, Inc.),
 the Gaussian 88(TM) system (copyright 1988, Gaussian, Inc.),
 the Gaussian 86(TM) system (copyright 1986, Carnegie Mellon
 University), and the Gaussian 82(TM) system (copyright 1983,
 Carnegie Mellon University). Gaussian is a federally registered
 trademark of Gaussian, Inc.
  
 This software contains proprietary and confidential information,
 including trade secrets, belonging to Gaussian, Inc.
  
 This software is provided under written license and may be
 used, copied, transmitted, or stored only in accord with that
 written license.
  
 The following legend is applicable only to US Government
 contracts under FAR:
  
                    RESTRICTED RIGHTS LEGEND
  
 Use, reproduction and disclosure by the US Government is
 subject to restrictions as set forth in subparagraphs (a)
 and (c) of the Commercial Computer Software - Restricted
 Rights clause in FAR 52.227-19.
  
 Gaussian, Inc.
 340 Quinnipiac St., Bldg. 40, Wallingford CT 06492
  
  
 ---------------------------------------------------------------
 Warning -- This program may not be used in any manner that
 competes with the business of Gaussian, Inc. or will provide
 assistance to any competitor of Gaussian, Inc.  The licensee
 of this program is prohibited from giving any competitor of
 Gaussian, Inc. access to this program.  By using this program,
 the user acknowledges that Gaussian, Inc. is engaged in the
 business of creating and licensing software in the field of
 computational chemistry and represents and warrants to the
 licensee that it is not a competitor of Gaussian, Inc. and that
 it will not use this program in any manner prohibited above.
 ---------------------------------------------------------------
  

 Cite this work as:
 Gaussian 16, Revision A.03,
 M. J. Frisch, G. W. Trucks, H. B. Schlegel, G. E. Scuseria, 
 M. A. Robb, J. R. Cheeseman, G. Scalmani, V. Barone, 
 G. A. Petersson, H. Nakatsuji, X. Li, M. Caricato, A. V. Marenich, 
 J. Bloino, B. G. Janesko, R. Gomperts, B. Mennucci, H. P. Hratchian, 
 J. V. Ortiz, A. F. Izmaylov, J. L. Sonnenberg, D. Williams-Young, 
 F. Ding, F. Lipparini, F. Egidi, J. Goings, B. Peng, A. Petrone, 
 T. Henderson, D. Ranasinghe, V. G. Zakrzewski, J. Gao, N. Rega, 
 G. Zheng, W. Liang, M. Hada, M. Ehara, K. Toyota, R. Fukuda, 
 J. Hasegawa, M. Ishida, T. Nakajima, Y. Honda, O. Kitao, H. Nakai, 
 T. Vreven, K. Throssell, J. A. Montgomery, Jr., J. E. Peralta, 
 F. Ogliaro, M. J. Bearpark, J. J. Heyd, E. N. Brothers, K. N. Kudin, 
 V. N. Staroverov, T. A. Keith, R. Kobayashi, J. Normand, 
 K. Raghavachari, A. P. Rendell, J. C. Burant, S. S. Iyengar, 
 J. Tomasi, M. Cossi, J. M. Millam, M. Klene, C. Adamo, R. Cammi, 
 J. W. Ochterski, R. L. Martin, K. Morokuma, O. Farkas, 
 J. B. Foresman, and D. J. Fox, Gaussian, Inc., Wallingford CT, 2016.
 
 ******************************************
 Gaussian 16:  ES64L-G16RevA.03 25-Dec-2016
                22-May-2023 
 ******************************************
 %chk=CCqCrCCCOCqCOOrCqCrO.chk
 %NProcShared=20
 Will use up to   20 processors via shared memory.
 -----------------------------
 # opt freq b3lyp/6-31g(2df,p)
 -----------------------------
 1/18=20,19=15,26=3,38=1/1,3;
 2/9=110,12=2,17=6,18=5,40=1/2;
 3/5=1,6=6,7=104,11=2,25=1,30=1,71=1,74=-5/1,2,3;
 4//1;
 5/5=2,38=5/2;
 6/7=2,8=2,9=2,10=2,28=1/1;
 7//1,2,3,16;
 1/18=20,19=15,26=3/3(2);
 2/9=110/2;
 99//99;
 2/9=110/2;
 3/5=1,6=6,7=104,11=2,25=1,30=1,71=1,74=-5/1,2,3;
 4/5=5,16=3,69=1/1;
 5/5=2,38=5/2;
 7//1,2,3,16;
 1/18=20,19=15,26=3/3(-5);
 2/9=110/2;
 6/7=2,8=2,9=2,10=2,19=2,28=1/1;
 99/9=1/99;
 -------------------
 Title Card Required
 -------------------
 Symbolic Z-matrix:
 Charge =  0 Multiplicity = 1
 C                     0.99293  -0.00405   0.11017 
 C                     2.51962  -0.01244   0.16347 
 C                     2.99464  -0.45972   1.54468 
 C                     3.07081  -0.92647  -0.93092 
 C                     4.5986   -0.95127  -0.95353 
 C                     5.05095  -1.84839  -2.07973 
 O                     6.46875  -1.85245  -2.16604 
 C                     6.94891  -2.74883  -3.18792 
 C                     6.4884   -2.32528  -4.59981 
 O                     5.10175  -2.65051  -4.79291 
 O                     4.63613  -1.78787  -5.86955 
 C                     8.49092  -2.76233  -3.11561 
 C                     9.00882  -3.22523  -1.75672 
 O                     9.03473  -3.62823  -4.117 
 H                     0.58553   0.66392   0.87516 
 H                     0.58629  -1.00691   0.28106 
 H                     0.63573   0.34293  -0.86545 
 H                     2.87697   1.00845  -0.02126 
 H                     2.69098  -1.49315   1.74437 
 H                     2.58215   0.18325   2.32586 
 H                     4.08379  -0.40613   1.63312 
 H                     2.70052  -0.58482  -1.90802 
 H                     2.68845  -1.9476   -0.79884 
 H                     5.02393  -1.32336  -0.01706 
 H                     4.99524   0.06084  -1.10026 
 H                     4.62588  -1.42631  -2.98972 
 H                     4.68381  -2.86968  -1.92459 
 H                     6.56899  -3.7555   -2.96903 
 H                     7.02742  -2.875    -5.37377 
 H                     6.64552  -1.24791  -4.73176 
 H                     3.6932   -1.80687  -5.62633 
 H                     8.87569  -1.75338  -3.30155 
 H                     8.67437  -4.24528  -1.53916 
 H                     8.67757  -2.56757  -0.94757 
 H                     10.10429  -3.24769  -1.75638 
 H                     8.70894  -4.52388  -3.94653 
 

 GradGradGradGradGradGradGradGradGradGradGradGradGradGradGradGradGradGrad
 Berny optimization.
 Initialization pass.
                           ----------------------------
                           !    Initial Parameters    !
                           ! (Angstroms and Degrees)  !
 --------------------------                            --------------------------
 ! Name  Definition              Value          Derivative Info.                !
 --------------------------------------------------------------------------------
 ! R1    R(1,2)                  1.5276         estimate D2E/DX2                !
 ! R2    R(1,15)                 1.0942         estimate D2E/DX2                !
 ! R3    R(1,16)                 1.0956         estimate D2E/DX2                !
 ! R4    R(1,17)                 1.0954         estimate D2E/DX2                !
 ! R5    R(2,3)                  1.5276         estimate D2E/DX2                !
 ! R6    R(2,4)                  1.5287         estimate D2E/DX2                !
 ! R7    R(2,18)                 1.0973         estimate D2E/DX2                !
 ! R8    R(3,19)                 1.0955         estimate D2E/DX2                !
 ! R9    R(3,20)                 1.0926         estimate D2E/DX2                !
 ! R10   R(3,21)                 1.094          estimate D2E/DX2                !
 ! R11   R(4,5)                  1.5282         estimate D2E/DX2                !
 ! R12   R(4,22)                 1.0993         estimate D2E/DX2                !
 ! R13   R(4,23)                 1.0983         estimate D2E/DX2                !
 ! R14   R(5,6)                  1.5092         estimate D2E/DX2                !
 ! R15   R(5,24)                 1.0938         estimate D2E/DX2                !
 ! R16   R(5,25)                 1.0969         estimate D2E/DX2                !
 ! R17   R(6,7)                  1.4204         estimate D2E/DX2                !
 ! R18   R(6,26)                 1.0895         estimate D2E/DX2                !
 ! R19   R(6,27)                 1.0963         estimate D2E/DX2                !
 ! R20   R(7,8)                  1.4416         estimate D2E/DX2                !
 ! R21   R(8,9)                  1.5443         estimate D2E/DX2                !
 ! R22   R(8,12)                 1.5438         estimate D2E/DX2                !
 ! R23   R(8,28)                 1.098          estimate D2E/DX2                !
 ! R24   R(9,10)                 1.4373         estimate D2E/DX2                !
 ! R25   R(9,29)                 1.0917         estimate D2E/DX2                !
 ! R26   R(9,30)                 1.0967         estimate D2E/DX2                !
 ! R27   R(10,11)                1.4561         estimate D2E/DX2                !
 ! R28   R(11,31)                0.974          estimate D2E/DX2                !
 ! R29   R(12,13)                1.5261         estimate D2E/DX2                !
 ! R30   R(12,14)                1.4312         estimate D2E/DX2                !
 ! R31   R(12,32)                1.0957         estimate D2E/DX2                !
 ! R32   R(13,33)                1.0953         estimate D2E/DX2                !
 ! R33   R(13,34)                1.0941         estimate D2E/DX2                !
 ! R34   R(13,35)                1.0957         estimate D2E/DX2                !
 ! R35   R(14,36)                0.9682         estimate D2E/DX2                !
 ! A1    A(2,1,15)             110.551          estimate D2E/DX2                !
 ! A2    A(2,1,16)             111.1287         estimate D2E/DX2                !
 ! A3    A(2,1,17)             111.0213         estimate D2E/DX2                !
 ! A4    A(15,1,16)            108.1522         estimate D2E/DX2                !
 ! A5    A(15,1,17)            107.9326         estimate D2E/DX2                !
 ! A6    A(16,1,17)            107.9301         estimate D2E/DX2                !
 ! A7    A(1,2,3)              110.1164         estimate D2E/DX2                !
 ! A8    A(1,2,4)              109.7941         estimate D2E/DX2                !
 ! A9    A(1,2,18)             108.3294         estimate D2E/DX2                !
 ! A10   A(3,2,4)              111.107          estimate D2E/DX2                !
 ! A11   A(3,2,18)             108.8669         estimate D2E/DX2                !
 ! A12   A(4,2,18)             108.5624         estimate D2E/DX2                !
 ! A13   A(2,3,19)             110.784          estimate D2E/DX2                !
 ! A14   A(2,3,20)             110.9014         estimate D2E/DX2                !
 ! A15   A(2,3,21)             111.6123         estimate D2E/DX2                !
 ! A16   A(19,3,20)            108.6729         estimate D2E/DX2                !
 ! A17   A(19,3,21)            107.9043         estimate D2E/DX2                !
 ! A18   A(20,3,21)            106.811          estimate D2E/DX2                !
 ! A19   A(2,4,5)              112.3812         estimate D2E/DX2                !
 ! A20   A(2,4,22)             109.2095         estimate D2E/DX2                !
 ! A21   A(2,4,23)             110.1372         estimate D2E/DX2                !
 ! A22   A(5,4,22)             109.1862         estimate D2E/DX2                !
 ! A23   A(5,4,23)             109.5563         estimate D2E/DX2                !
 ! A24   A(22,4,23)            106.1738         estimate D2E/DX2                !
 ! A25   A(4,5,6)              108.6833         estimate D2E/DX2                !
 ! A26   A(4,5,24)             112.4344         estimate D2E/DX2                !
 ! A27   A(4,5,25)             110.3965         estimate D2E/DX2                !
 ! A28   A(6,5,24)             108.6705         estimate D2E/DX2                !
 ! A29   A(6,5,25)             109.8934         estimate D2E/DX2                !
 ! A30   A(24,5,25)            106.7267         estimate D2E/DX2                !
 ! A31   A(5,6,7)              110.2556         estimate D2E/DX2                !
 ! A32   A(5,6,26)             106.0246         estimate D2E/DX2                !
 ! A33   A(5,6,27)             110.3514         estimate D2E/DX2                !
 ! A34   A(7,6,26)             109.8646         estimate D2E/DX2                !
 ! A35   A(7,6,27)             109.8893         estimate D2E/DX2                !
 ! A36   A(26,6,27)            110.3925         estimate D2E/DX2                !
 ! A37   A(6,7,8)              112.1665         estimate D2E/DX2                !
 ! A38   A(7,8,9)              112.2224         estimate D2E/DX2                !
 ! A39   A(7,8,12)             107.7537         estimate D2E/DX2                !
 ! A40   A(7,8,28)             108.2706         estimate D2E/DX2                !
 ! A41   A(9,8,12)             110.0647         estimate D2E/DX2                !
 ! A42   A(9,8,28)             109.3008         estimate D2E/DX2                !
 ! A43   A(12,8,28)            109.1631         estimate D2E/DX2                !
 ! A44   A(8,9,10)             110.3929         estimate D2E/DX2                !
 ! A45   A(8,9,29)             111.2741         estimate D2E/DX2                !
 ! A46   A(8,9,30)             109.6758         estimate D2E/DX2                !
 ! A47   A(10,9,29)            105.4954         estimate D2E/DX2                !
 ! A48   A(10,9,30)            110.1409         estimate D2E/DX2                !
 ! A49   A(29,9,30)            109.7936         estimate D2E/DX2                !
 ! A50   A(9,10,11)            105.8901         estimate D2E/DX2                !
 ! A51   A(10,11,31)            96.5104         estimate D2E/DX2                !
 ! A52   A(8,12,13)            112.54           estimate D2E/DX2                !
 ! A53   A(8,12,14)            110.6132         estimate D2E/DX2                !
 ! A54   A(8,12,32)            109.5578         estimate D2E/DX2                !
 ! A55   A(13,12,14)           108.0929         estimate D2E/DX2                !
 ! A56   A(13,12,32)           108.1334         estimate D2E/DX2                !
 ! A57   A(14,12,32)           107.7549         estimate D2E/DX2                !
 ! A58   A(12,13,33)           110.8374         estimate D2E/DX2                !
 ! A59   A(12,13,34)           111.9292         estimate D2E/DX2                !
 ! A60   A(12,13,35)           110.2292         estimate D2E/DX2                !
 ! A61   A(33,13,34)           108.691          estimate D2E/DX2                !
 ! A62   A(33,13,35)           106.6266         estimate D2E/DX2                !
 ! A63   A(34,13,35)           108.3488         estimate D2E/DX2                !
 ! A64   A(12,14,36)           107.9773         estimate D2E/DX2                !
 ! D1    D(15,1,2,3)            58.581          estimate D2E/DX2                !
 ! D2    D(15,1,2,4)          -178.7754         estimate D2E/DX2                !
 ! D3    D(15,1,2,18)          -60.3743         estimate D2E/DX2                !
 ! D4    D(16,1,2,3)           -61.5231         estimate D2E/DX2                !
 ! D5    D(16,1,2,4)            61.1204         estimate D2E/DX2                !
 ! D6    D(16,1,2,18)          179.5216         estimate D2E/DX2                !
 ! D7    D(17,1,2,3)           178.339          estimate D2E/DX2                !
 ! D8    D(17,1,2,4)           -59.0174         estimate D2E/DX2                !
 ! D9    D(17,1,2,18)           59.3837         estimate D2E/DX2                !
 ! D10   D(1,2,3,19)            63.8052         estimate D2E/DX2                !
 ! D11   D(1,2,3,20)           -56.9597         estimate D2E/DX2                !
 ! D12   D(1,2,3,21)          -175.926          estimate D2E/DX2                !
 ! D13   D(4,2,3,19)           -58.0626         estimate D2E/DX2                !
 ! D14   D(4,2,3,20)          -178.8275         estimate D2E/DX2                !
 ! D15   D(4,2,3,21)            62.2063         estimate D2E/DX2                !
 ! D16   D(18,2,3,19)         -177.5687         estimate D2E/DX2                !
 ! D17   D(18,2,3,20)           61.6664         estimate D2E/DX2                !
 ! D18   D(18,2,3,21)          -57.2998         estimate D2E/DX2                !
 ! D19   D(1,2,4,5)            178.5653         estimate D2E/DX2                !
 ! D20   D(1,2,4,22)            57.2435         estimate D2E/DX2                !
 ! D21   D(1,2,4,23)           -58.9844         estimate D2E/DX2                !
 ! D22   D(3,2,4,5)            -59.3794         estimate D2E/DX2                !
 ! D23   D(3,2,4,22)           179.2988         estimate D2E/DX2                !
 ! D24   D(3,2,4,23)            63.0709         estimate D2E/DX2                !
 ! D25   D(18,2,4,5)            60.3083         estimate D2E/DX2                !
 ! D26   D(18,2,4,22)          -61.0135         estimate D2E/DX2                !
 ! D27   D(18,2,4,23)         -177.2414         estimate D2E/DX2                !
 ! D28   D(2,4,5,6)           -178.6751         estimate D2E/DX2                !
 ! D29   D(2,4,5,24)            60.9791         estimate D2E/DX2                !
 ! D30   D(2,4,5,25)           -58.0803         estimate D2E/DX2                !
 ! D31   D(22,4,5,6)           -57.34           estimate D2E/DX2                !
 ! D32   D(22,4,5,24)         -177.6858         estimate D2E/DX2                !
 ! D33   D(22,4,5,25)           63.2547         estimate D2E/DX2                !
 ! D34   D(23,4,5,6)            58.5469         estimate D2E/DX2                !
 ! D35   D(23,4,5,24)          -61.7989         estimate D2E/DX2                !
 ! D36   D(23,4,5,25)          179.1417         estimate D2E/DX2                !
 ! D37   D(4,5,6,7)            177.6137         estimate D2E/DX2                !
 ! D38   D(4,5,6,26)            58.7433         estimate D2E/DX2                !
 ! D39   D(4,5,6,27)           -60.8084         estimate D2E/DX2                !
 ! D40   D(24,5,6,7)           -59.7369         estimate D2E/DX2                !
 ! D41   D(24,5,6,26)         -178.6073         estimate D2E/DX2                !
 ! D42   D(24,5,6,27)           61.841          estimate D2E/DX2                !
 ! D43   D(25,5,6,7)            56.7087         estimate D2E/DX2                !
 ! D44   D(25,5,6,26)          -62.1617         estimate D2E/DX2                !
 ! D45   D(25,5,6,27)          178.2866         estimate D2E/DX2                !
 ! D46   D(5,6,7,8)            177.1529         estimate D2E/DX2                !
 ! D47   D(26,6,7,8)           -66.3474         estimate D2E/DX2                !
 ! D48   D(27,6,7,8)            55.301          estimate D2E/DX2                !
 ! D49   D(6,7,8,9)             63.2723         estimate D2E/DX2                !
 ! D50   D(6,7,8,12)          -175.3989         estimate D2E/DX2                !
 ! D51   D(6,7,8,28)           -57.4505         estimate D2E/DX2                !
 ! D52   D(7,8,9,10)           -75.5045         estimate D2E/DX2                !
 ! D53   D(7,8,9,29)           167.7123         estimate D2E/DX2                !
 ! D54   D(7,8,9,30)            46.0335         estimate D2E/DX2                !
 ! D55   D(12,8,9,10)          164.5022         estimate D2E/DX2                !
 ! D56   D(12,8,9,29)           47.719          estimate D2E/DX2                !
 ! D57   D(12,8,9,30)          -73.9598         estimate D2E/DX2                !
 ! D58   D(28,8,9,10)           44.6217         estimate D2E/DX2                !
 ! D59   D(28,8,9,29)          -72.1615         estimate D2E/DX2                !
 ! D60   D(28,8,9,30)          166.1596         estimate D2E/DX2                !
 ! D61   D(7,8,12,13)           59.5017         estimate D2E/DX2                !
 ! D62   D(7,8,12,14)         -179.4773         estimate D2E/DX2                !
 ! D63   D(7,8,12,32)          -60.8326         estimate D2E/DX2                !
 ! D64   D(9,8,12,13)         -177.8338         estimate D2E/DX2                !
 ! D65   D(9,8,12,14)          -56.8128         estimate D2E/DX2                !
 ! D66   D(9,8,12,32)           61.8319         estimate D2E/DX2                !
 ! D67   D(28,8,12,13)         -57.8698         estimate D2E/DX2                !
 ! D68   D(28,8,12,14)          63.1512         estimate D2E/DX2                !
 ! D69   D(28,8,12,32)        -178.2041         estimate D2E/DX2                !
 ! D70   D(8,9,10,11)          158.4444         estimate D2E/DX2                !
 ! D71   D(29,9,10,11)         -81.2404         estimate D2E/DX2                !
 ! D72   D(30,9,10,11)          37.1824         estimate D2E/DX2                !
 ! D73   D(9,10,11,31)        -156.1255         estimate D2E/DX2                !
 ! D74   D(8,12,13,33)          60.5877         estimate D2E/DX2                !
 ! D75   D(8,12,13,34)         -60.9371         estimate D2E/DX2                !
 ! D76   D(8,12,13,35)         178.3978         estimate D2E/DX2                !
 ! D77   D(14,12,13,33)        -61.8647         estimate D2E/DX2                !
 ! D78   D(14,12,13,34)        176.6106         estimate D2E/DX2                !
 ! D79   D(14,12,13,35)         55.9454         estimate D2E/DX2                !
 ! D80   D(32,12,13,33)       -178.2606         estimate D2E/DX2                !
 ! D81   D(32,12,13,34)         60.2147         estimate D2E/DX2                !
 ! D82   D(32,12,13,35)        -60.4505         estimate D2E/DX2                !
 ! D83   D(8,12,14,36)         -61.234          estimate D2E/DX2                !
 ! D84   D(13,12,14,36)         62.3901         estimate D2E/DX2                !
 ! D85   D(32,12,14,36)        179.0316         estimate D2E/DX2                !
 --------------------------------------------------------------------------------
 Trust Radius=3.00D-01 FncErr=1.00D-07 GrdErr=1.00D-06 EigMax=2.50D+02 EigMin=1.00D-04
 Number of steps in this run=    194 maximum allowed number of steps=    216.
 GradGradGradGradGradGradGradGradGradGradGradGradGradGradGradGradGradGrad

                          Input orientation:                          
 ---------------------------------------------------------------------
 Center     Atomic      Atomic             Coordinates (Angstroms)
 Number     Number       Type             X           Y           Z
 ---------------------------------------------------------------------
      1          6           0        0.992930   -0.004050    0.110170
      2          6           0        2.519620   -0.012440    0.163470
      3          6           0        2.994640   -0.459720    1.544680
      4          6           0        3.070810   -0.926470   -0.930920
      5          6           0        4.598600   -0.951270   -0.953530
      6          6           0        5.050950   -1.848390   -2.079730
      7          8           0        6.468750   -1.852450   -2.166040
      8          6           0        6.948910   -2.748830   -3.187920
      9          6           0        6.488400   -2.325280   -4.599810
     10          8           0        5.101750   -2.650510   -4.792910
     11          8           0        4.636130   -1.787870   -5.869550
     12          6           0        8.490920   -2.762330   -3.115610
     13          6           0        9.008820   -3.225230   -1.756720
     14          8           0        9.034730   -3.628230   -4.117000
     15          1           0        0.585530    0.663920    0.875160
     16          1           0        0.586290   -1.006910    0.281060
     17          1           0        0.635730    0.342930   -0.865450
     18          1           0        2.876970    1.008450   -0.021260
     19          1           0        2.690980   -1.493150    1.744370
     20          1           0        2.582150    0.183250    2.325860
     21          1           0        4.083790   -0.406130    1.633120
     22          1           0        2.700520   -0.584820   -1.908020
     23          1           0        2.688450   -1.947600   -0.798840
     24          1           0        5.023930   -1.323360   -0.017060
     25          1           0        4.995240    0.060840   -1.100260
     26          1           0        4.625880   -1.426310   -2.989720
     27          1           0        4.683810   -2.869680   -1.924590
     28          1           0        6.568990   -3.755500   -2.969030
     29          1           0        7.027420   -2.875000   -5.373770
     30          1           0        6.645520   -1.247910   -4.731760
     31          1           0        3.693200   -1.806870   -5.626330
     32          1           0        8.875690   -1.753380   -3.301550
     33          1           0        8.674370   -4.245280   -1.539160
     34          1           0        8.677570   -2.567570   -0.947570
     35          1           0       10.104290   -3.247690   -1.756380
     36          1           0        8.708940   -4.523880   -3.946530
 ---------------------------------------------------------------------
                    Distance matrix (angstroms):
                    1          2          3          4          5
     1  C    0.000000
     2  C    1.527643   0.000000
     3  C    2.504455   1.527562   0.000000
     4  C    2.500462   1.528709   2.520368   0.000000
     5  C    3.876795   2.539931   3.009213   1.528159   0.000000
     6  C    4.966365   3.848414   4.392398   2.467925   1.509229
     7  O    6.211467   4.940433   5.270539   3.732152   2.404115
     8  C    7.340634   6.191789   6.578281   4.843006   3.707786
     9  C    7.600803   6.617347   7.310365   5.205511   4.330659
    10  O    6.922886   6.180009   7.028835   4.691695   4.228642
    11  O    7.225785   6.635442   7.709039   5.251886   4.986839
    12  C    8.615893   7.346474   7.565012   6.125426   4.806733
    13  C    8.838313   7.491253   7.397138   6.420764   5.026534
    14  O    9.781319   8.593196   8.864354   7.281412   6.070659
    15  H    1.094243   2.169025   2.741283   3.459463   4.696560
    16  H    1.095576   2.177283   2.774221   2.765539   4.198326
    17  H    1.095364   2.175777   3.466617   2.746867   4.169778
    18  H    2.142904   1.097288   2.149776   2.146851   2.770134
    19  H    2.787723   2.172812   1.095474   2.760901   3.348330
    20  H    2.733127   2.172127   1.092612   3.475181   4.013428
    21  H    3.469072   2.182084   1.094048   2.805563   2.693133
    22  H    2.706704   2.156714   3.467462   1.099347   2.155932
    23  H    2.734680   2.167807   2.792781   1.098340   2.159925
    24  H    4.243316   2.832432   2.702392   2.192565   1.093770
    25  H    4.181846   2.780482   3.356947   2.169536   1.096914
    26  H    4.983018   4.046970   4.914878   2.628068   2.091047
    27  H    5.096536   4.148196   4.549400   2.713893   2.151863
    28  H    7.392381   6.341960   6.634133   4.939086   3.975976
    29  H    8.644711   7.692564   8.364320   6.260227   5.398002
    30  H    7.546075   6.520177   7.303689   5.227644   4.307308
    31  H    6.591589   6.174063   7.329815   4.817608   4.835996
    32  H    8.765723   7.445593   7.729570   6.324579   4.944702
    33  H    8.928205   7.661386   7.489984   6.540974   5.273079
    34  H    8.169709   6.758953   6.553628   5.842024   4.387534
    35  H    9.849979   8.466397   8.319669   7.452469   6.019197
    36  H    9.819495   8.692116   8.906403   7.336469   6.214216
                    6          7          8          9         10
     6  C    0.000000
     7  O    1.420430   0.000000
     8  C    2.375106   1.441627   0.000000
     9  C    2.940151   2.479353   1.544311   0.000000
    10  O    2.829721   3.066926   2.449012   1.437310   0.000000
    11  O    3.812935   4.132633   3.669269   2.309102   1.456058
    12  C    3.706984   2.412206   1.543764   2.530602   3.783162
    13  C    4.202946   2.916166   2.553139   3.904560   4.981360
    14  O    4.815475   3.680203   2.446871   2.900790   4.108664
    15  H    5.914647   7.084723   8.285414   8.588043   7.969235
    16  H    5.120020   6.427019   7.453257   7.771480   6.988274
    17  H    5.076468   6.366738   7.403316   7.437643   6.658150
    18  H    4.138239   5.068107   6.381660   6.717090   6.411418
    19  H    4.507704   5.449032   6.635826   7.440528   7.063096
    20  H    5.443506   6.279084   7.620201   8.337651   8.065697
    21  H    4.098874   4.713119   6.077794   6.950878   6.882394
    22  H    2.674063   3.984096   4.936588   4.962154   4.284340
    23  H    2.689224   4.021064   4.949868   5.387916   4.719184
    24  H    2.128613   2.643020   3.973898   4.914277   4.957431
    25  H    2.146538   2.639659   4.008665   4.491096   4.582404
    26  H    1.089458   2.063059   2.680450   2.620976   2.230832
    27  H    1.096309   2.068590   2.596399   3.272571   2.906883
    28  H    2.594681   2.067956   1.098015   2.170591   2.588500
    29  H    3.976313   3.412807   2.190895   1.091672   2.023857
    30  H    3.152220   2.641900   2.174454   1.096733   2.086684
    31  H    3.797839   4.436143   4.175258   3.022521   1.841285
    32  H    4.016280   2.663186   2.171708   2.776995   4.155914
    33  H    4.377953   3.314117   2.816910   4.222848   5.088595
    34  H    3.866701   2.622013   2.835540   4.264977   5.251667
    35  H    5.253460   3.915567   3.500656   4.691545   5.882393
    36  H    4.901437   3.914733   2.612278   3.192400   4.151830
                   11         12         13         14         15
    11  O    0.000000
    12  C    4.836648   0.000000
    13  C    6.172665   1.526132   0.000000
    14  O    5.079964   1.431186   2.394578   0.000000
    15  H    8.240737   9.495295   9.643863  10.711358   0.000000
    16  H    7.405478   8.780777   8.944971   9.878785   1.773310
    17  H    6.751631   8.741274   9.145204   9.843063   1.770672
    18  H    6.716885   7.437084   7.650847   8.728797   2.484546
    19  H    7.863984   7.672648   7.427842   8.897044   3.137100
    20  H    8.675765   8.555676   8.341899   9.882996   2.514372
    21  H    7.648813   6.893831   6.610163   8.243641   3.735951
    22  H    4.570299   6.303059   6.840271   7.366421   3.711957
    23  H    5.434250   6.300783   6.518968   7.355948   3.747611
    24  H    5.883689   4.867409   4.745827   6.181298   4.944161
    25  H    5.127652   4.924602   5.228577   6.247194   4.869449
    26  H    2.902456   4.091373   4.895566   5.055410   5.969153
    27  H    4.090880   3.990506   4.342846   4.930777   6.092686
    28  H    4.002566   2.168337   2.775545   2.722849   8.373223
    29  H    2.673185   2.693290   4.139041   2.485180   9.647333
    30  H    2.371449   2.882865   4.283205   3.428145   8.474439
    31  H    0.973978   5.498612   6.726176   5.841864   7.617860
    32  H    4.956781   1.095720   2.137888   2.050686   9.592445
    33  H    6.410813   2.172093   1.095304   2.675046   9.765169
    34  H    6.416156   2.184758   1.094060   3.361227   8.902021
    35  H    6.996429   2.164727   1.095700   2.619408  10.622264
    36  H    5.269871   1.959852   2.563530   0.968188  10.777372
                   16         17         18         19         20
    16  H    0.000000
    17  H    1.771722   0.000000
    18  H    3.065989   2.485705   0.000000
    19  H    2.609104   3.795577   3.067580   0.000000
    20  H    3.095342   3.741458   2.505363   1.777721   0.000000
    21  H    3.797566   4.323547   2.488860   1.770285   1.755614
    22  H    3.072491   2.492194   2.475784   3.763656   4.304612
    23  H    2.543651   3.076463   3.062418   2.583495   3.783592
    24  H    4.458886   4.769967   3.169668   2.928160   3.704246
    25  H    4.742043   4.374933   2.559155   3.976986   4.192408
    26  H    5.214613   4.854280   4.218827   5.114676   5.918015
    27  H    5.012432   5.275376   4.682652   4.396302   5.639475
    28  H    7.342379   7.511708   6.709365   6.509480   7.710026
    29  H    8.772401   8.457761   7.807482   8.448795   9.402001
    30  H    7.867701   7.320977   6.440647   7.592021   8.268567
    31  H    6.722357   6.052747   6.325272   7.445138   8.272384
    32  H    9.061262   8.844549   7.373781   7.986217   8.661808
    33  H    8.900409   9.280371   7.969664   7.359127   8.465542
    34  H    8.331507   8.552716   6.876986   6.651329   7.445569
    35  H    9.988222  10.165625   8.565017   8.383962   9.220554
    36  H    9.809130   9.917440   8.945742   8.819723   9.951759
                   21         22         23         24         25
    21  H    0.000000
    22  H    3.805922   0.000000
    23  H    3.199614   1.757155   0.000000
    24  H    2.109092   3.085353   2.540733   0.000000
    25  H    2.918933   2.516961   3.073429   1.757884   0.000000
    26  H    4.765006   2.363301   2.970746   3.000958   2.432715
    27  H    4.368799   3.025607   2.469617   2.479003   3.060140
    28  H    6.210820   5.113122   4.799669   4.125123   4.531384
    29  H    7.991044   5.998201   6.373125   5.925867   5.568824
    30  H    6.912507   4.896552   5.622795   4.986346   4.198100
    31  H    7.403664   4.037902   4.932949   5.785200   5.066454
    32  H    7.009162   6.437405   6.677067   5.080241   4.816115
    33  H    6.773172   7.015833   6.454351   4.917328   5.680783
    34  H    5.695138   6.370156   6.022960   3.970264   4.526744
    35  H    7.470582   7.869541   7.589585   5.704239   6.122030
    36  H    8.335489   7.468121   7.265774   6.266048   6.550762
                   26         27         28         29         30
    26  H    0.000000
    27  H    1.794763   0.000000
    28  H    3.033353   2.330115   0.000000
    29  H    3.681004   4.170057   2.601579   0.000000
    30  H    2.673102   3.789281   3.066118   1.790376   0.000000
    31  H    2.822487   3.976651   4.373622   3.510230   3.135105
    32  H    4.273769   4.551264   3.072445   2.994700   2.697158
    33  H    5.142080   4.238561   2.591725   4.392533   4.826298
    34  H    4.678573   4.122615   3.153345   4.733789   4.493420
    35  H    5.903518   5.436248   3.771835   4.763564   4.981475
    36  H    5.213617   4.798572   2.474934   2.753784   3.950477
                   31         32         33         34         35
    31  H    0.000000
    32  H    5.680287   0.000000
    33  H    6.889329   3.058777   0.000000
    34  H    6.878474   2.498675   1.778960   0.000000
    35  H    7.625913   2.475878   1.756998   1.775462   0.000000
    36  H    5.946555   2.849469   2.423684   3.580767   2.893513
                   36
    36  H    0.000000
 Stoichiometry    C10H22O4
 Framework group  C1[X(C10H22O4)]
 Deg. of freedom   102
 Full point group                 C1      NOp   1
 Largest Abelian subgroup         C1      NOp   1
 Largest concise Abelian subgroup C1      NOp   1
                         Standard orientation:                         
 ---------------------------------------------------------------------
 Center     Atomic      Atomic             Coordinates (Angstroms)
 Number     Number       Type             X           Y           Z
 ---------------------------------------------------------------------
      1          6           0        5.234412    0.676813    0.183224
      2          6           0        4.118225   -0.230458   -0.331245
      3          6           0        4.363651   -1.670420    0.115654
      4          6           0        2.765980    0.278146    0.168460
      5          6           0        1.600961   -0.568856   -0.342016
      6          6           0        0.311266    0.023151    0.171778
      7          8           0       -0.799108   -0.707652   -0.328843
      8          6           0       -2.051612   -0.216899    0.189505
      9          6           0       -2.333550    1.238015   -0.244814
     10          8           0       -1.521469    2.152421    0.510333
     11          8           0       -1.453571    3.372554   -0.281354
     12          6           0       -3.170612   -1.148864   -0.322830
     13          6           0       -2.975340   -2.596076    0.120479
     14          8           0       -4.448274   -0.708299    0.148100
     15          1           0        6.206813    0.336267   -0.185331
     16          1           0        5.266821    0.680922    1.278313
     17          1           0        5.088618    1.708826   -0.153698
     18          1           0        4.121637   -0.193817   -1.427916
     19          1           0        4.323753   -1.750749    1.207450
     20          1           0        5.339685   -2.023506   -0.225650
     21          1           0        3.617031   -2.353965   -0.299395
     22          1           0        2.627215    1.318316   -0.159189
     23          1           0        2.752060    0.298822    1.266518
     24          1           0        1.664921   -1.609388   -0.011053
     25          1           0        1.592789   -0.586350   -1.438760
     26          1           0        0.280035    1.046068   -0.201832
     27          1           0        0.298659    0.016289    1.267993
     28          1           0       -2.014029   -0.267604    1.285705
     29          1           0       -3.366207    1.521615   -0.032827
     30          1           0       -2.130428    1.349322   -1.316810
     31          1           0       -0.620192    3.704259    0.098232
     32          1           0       -3.192755   -1.127744   -1.418123
     33          1           0       -2.977414   -2.672527    1.213110
     34          1           0       -2.039260   -3.016774   -0.258644
     35          1           0       -3.803241   -3.217382   -0.238849
     36          1           0       -4.437428   -0.740401    1.115695
 ---------------------------------------------------------------------
 Rotational constants (GHZ):           0.9465373           0.2624668           0.2111750
 Standard basis: 6-31G(2df,p) (6D, 7F)
 There are   544 symmetry adapted cartesian basis functions of A   symmetry.
 There are   502 symmetry adapted basis functions of A   symmetry.
   502 basis functions,   770 primitive gaussians,   544 cartesian basis functions
    57 alpha electrons       57 beta electrons
       nuclear repulsion energy       971.6781112608 Hartrees.
 NAtoms=   36 NActive=   36 NUniq=   36 SFac= 1.00D+00 NAtFMM=   60 NAOKFM=F Big=F
 Integral buffers will be    131072 words long.
 Raffenetti 2 integral format.
 Two-electron integral symmetry is turned on.
 One-electron integrals computed using PRISM.
 PrsmSu:  requested number of processors reduced to:  12 ShMem   1 Linda.
 NBasis=   502 RedAO= T EigKep=  5.77D-04  NBF=   502
 NBsUse=   502 1.00D-06 EigRej= -1.00D+00 NBFU=   502
 ExpMin= 1.61D-01 ExpMax= 5.48D+03 ExpMxC= 8.25D+02 IAcc=3 IRadAn=         5 AccDes= 0.00D+00
 Harris functional with IExCor=  402 and IRadAn=       5 diagonalized for initial guess.
 HarFok:  IExCor=  402 AccDes= 0.00D+00 IRadAn=         5 IDoV= 1 UseB2=F ITyADJ=14
 ICtDFT=  3500011 ScaDFX=  1.000000  1.000000  1.000000  1.000000
 FoFCou: FMM=F IPFlag=           0 FMFlag=      100000 FMFlg1=           0
         NFxFlg=           0 DoJE=T BraDBF=F KetDBF=T FulRan=T
         wScrn=  0.000000 ICntrl=       500 IOpCl=  0 I1Cent=   200000004 NGrid=           0
         NMat0=    1 NMatS0=      1 NMatT0=    0 NMatD0=    1 NMtDS0=    0 NMtDT0=    0
 Petite list used in FoFCou.
 Requested convergence on RMS density matrix=1.00D-08 within 128 cycles.
 Requested convergence on MAX density matrix=1.00D-06.
 Requested convergence on             energy=1.00D-06.
 No special actions if energy rises.
 Integral accuracy reduced to 1.0D-05 until final iterations.
 Initial convergence to 1.0D-05 achieved.  Increase integral accuracy.
 SCF Done:  E(RB3LYP) =  -695.143995714     A.U. after   13 cycles
            NFock= 13  Conv=0.31D-08     -V/T= 2.0073

 **********************************************************************

            Population analysis using the SCF density.

 **********************************************************************

 Orbital symmetries:
       Occupied  (A) (A) (A) (A) (A) (A) (A) (A) (A) (A) (A) (A)
                 (A) (A) (A) (A) (A) (A) (A) (A) (A) (A) (A) (A)
                 (A) (A) (A) (A) (A) (A) (A) (A) (A) (A) (A) (A)
                 (A) (A) (A) (A) (A) (A) (A) (A) (A) (A) (A) (A)
                 (A) (A) (A) (A) (A) (A) (A) (A) (A)
       Virtual   (A) (A) (A) (A) (A) (A) (A) (A) (A) (A) (A) (A)
                 (A) (A) (A) (A) (A) (A) (A) (A) (A) (A) (A) (A)
                 (A) (A) (A) (A) (A) (A) (A) (A) (A) (A) (A) (A)
                 (A) (A) (A) (A) (A) (A) (A) (A) (A) (A) (A) (A)
                 (A) (A) (A) (A) (A) (A) (A) (A) (A) (A) (A) (A)
                 (A) (A) (A) (A) (A) (A) (A) (A) (A) (A) (A) (A)
                 (A) (A) (A) (A) (A) (A) (A) (A) (A) (A) (A) (A)
                 (A) (A) (A) (A) (A) (A) (A) (A) (A) (A) (A) (A)
                 (A) (A) (A) (A) (A) (A) (A) (A) (A) (A) (A) (A)
                 (A) (A) (A) (A) (A) (A) (A) (A) (A) (A) (A) (A)
                 (A) (A) (A) (A) (A) (A) (A) (A) (A) (A) (A) (A)
                 (A) (A) (A) (A) (A) (A) (A) (A) (A) (A) (A) (A)
                 (A) (A) (A) (A) (A) (A) (A) (A) (A) (A) (A) (A)
                 (A) (A) (A) (A) (A) (A) (A) (A) (A) (A) (A) (A)
                 (A) (A) (A) (A) (A) (A) (A) (A) (A) (A) (A) (A)
                 (A) (A) (A) (A) (A) (A) (A) (A) (A) (A) (A) (A)
                 (A) (A) (A) (A) (A) (A) (A) (A) (A) (A) (A) (A)
                 (A) (A) (A) (A) (A) (A) (A) (A) (A) (A) (A) (A)
                 (A) (A) (A) (A) (A) (A) (A) (A) (A) (A) (A) (A)
                 (A) (A) (A) (A) (A) (A) (A) (A) (A) (A) (A) (A)
                 (A) (A) (A) (A) (A) (A) (A) (A) (A) (A) (A) (A)
                 (A) (A) (A) (A) (A) (A) (A) (A) (A) (A) (A) (A)
                 (A) (A) (A) (A) (A) (A) (A) (A) (A) (A) (A) (A)
                 (A) (A) (A) (A) (A) (A) (A) (A) (A) (A) (A) (A)
                 (A) (A) (A) (A) (A) (A) (A) (A) (A) (A) (A) (A)
                 (A) (A) (A) (A) (A) (A) (A) (A) (A) (A) (A) (A)
                 (A) (A) (A) (A) (A) (A) (A) (A) (A) (A) (A) (A)
                 (A) (A) (A) (A) (A) (A) (A) (A) (A) (A) (A) (A)
                 (A) (A) (A) (A) (A) (A) (A) (A) (A) (A) (A) (A)
                 (A) (A) (A) (A) (A) (A) (A) (A) (A) (A) (A) (A)
                 (A) (A) (A) (A) (A) (A) (A) (A) (A) (A) (A) (A)
                 (A) (A) (A) (A) (A) (A) (A) (A) (A) (A) (A) (A)
                 (A) (A) (A) (A) (A) (A) (A) (A) (A) (A) (A) (A)
                 (A) (A) (A) (A) (A) (A) (A) (A) (A) (A) (A) (A)
                 (A) (A) (A) (A) (A) (A) (A) (A) (A) (A) (A) (A)
                 (A) (A) (A) (A) (A) (A) (A) (A) (A) (A) (A) (A)
                 (A) (A) (A) (A) (A) (A) (A) (A) (A) (A) (A) (A)
                 (A)
 The electronic state is 1-A.
 Alpha  occ. eigenvalues --  -19.18981 -19.18766 -19.13985 -19.13861 -10.23967
 Alpha  occ. eigenvalues --  -10.23815 -10.22563 -10.21342 -10.18252 -10.17650
 Alpha  occ. eigenvalues --  -10.17319 -10.17124 -10.16870 -10.16793  -1.10857
 Alpha  occ. eigenvalues --   -1.02915  -1.01664  -0.90546  -0.81693  -0.78134
 Alpha  occ. eigenvalues --   -0.74910  -0.71328  -0.68004  -0.66190  -0.62515
 Alpha  occ. eigenvalues --   -0.59596  -0.58896  -0.55668  -0.51994  -0.50867
 Alpha  occ. eigenvalues --   -0.48539  -0.47910  -0.47375  -0.46063  -0.44666
 Alpha  occ. eigenvalues --   -0.44325  -0.42783  -0.42347  -0.41779  -0.40796
 Alpha  occ. eigenvalues --   -0.38734  -0.38188  -0.37868  -0.36813  -0.36543
 Alpha  occ. eigenvalues --   -0.35766  -0.35017  -0.33902  -0.33521  -0.32578
 Alpha  occ. eigenvalues --   -0.32247  -0.31862  -0.31367  -0.30184  -0.27317
 Alpha  occ. eigenvalues --   -0.26196  -0.22965
 Alpha virt. eigenvalues --    0.02606   0.06829   0.07442   0.08630   0.09784
 Alpha virt. eigenvalues --    0.11647   0.11901   0.12266   0.12790   0.13901
 Alpha virt. eigenvalues --    0.14051   0.15140   0.15640   0.16052   0.16649
 Alpha virt. eigenvalues --    0.16842   0.17750   0.18545   0.18900   0.19441
 Alpha virt. eigenvalues --    0.19670   0.20476   0.20639   0.21286   0.21578
 Alpha virt. eigenvalues --    0.22784   0.23866   0.24427   0.25380   0.25541
 Alpha virt. eigenvalues --    0.26365   0.27378   0.27737   0.30124   0.32352
 Alpha virt. eigenvalues --    0.42859   0.44889   0.45105   0.46235   0.47209
 Alpha virt. eigenvalues --    0.47734   0.48169   0.48797   0.50544   0.51513
 Alpha virt. eigenvalues --    0.52541   0.52718   0.54022   0.54996   0.56701
 Alpha virt. eigenvalues --    0.57803   0.58596   0.60113   0.60703   0.62025
 Alpha virt. eigenvalues --    0.62428   0.63033   0.63852   0.64111   0.65225
 Alpha virt. eigenvalues --    0.66504   0.67489   0.69717   0.69966   0.70687
 Alpha virt. eigenvalues --    0.70896   0.72444   0.72807   0.73139   0.73676
 Alpha virt. eigenvalues --    0.73941   0.74567   0.74653   0.75144   0.75572
 Alpha virt. eigenvalues --    0.76088   0.77027   0.77841   0.78071   0.78847
 Alpha virt. eigenvalues --    0.79347   0.79884   0.80795   0.82569   0.82807
 Alpha virt. eigenvalues --    0.83317   0.84409   0.85218   0.85860   0.86900
 Alpha virt. eigenvalues --    0.87155   0.87689   0.88860   0.88990   0.89529
 Alpha virt. eigenvalues --    0.91308   0.92514   0.93720   0.95827   0.96459
 Alpha virt. eigenvalues --    0.97322   0.98130   0.98554   0.99472   1.02669
 Alpha virt. eigenvalues --    1.03161   1.04659   1.06629   1.08355   1.09085
 Alpha virt. eigenvalues --    1.10094   1.11007   1.12230   1.14497   1.15516
 Alpha virt. eigenvalues --    1.18129   1.19816   1.21662   1.23026   1.23700
 Alpha virt. eigenvalues --    1.25041   1.25757   1.27141   1.29901   1.32067
 Alpha virt. eigenvalues --    1.32887   1.34038   1.34572   1.36115   1.37273
 Alpha virt. eigenvalues --    1.38969   1.39947   1.41072   1.42398   1.44718
 Alpha virt. eigenvalues --    1.45702   1.46780   1.47499   1.48170   1.49850
 Alpha virt. eigenvalues --    1.51057   1.51391   1.52284   1.53391   1.54187
 Alpha virt. eigenvalues --    1.56009   1.57242   1.57509   1.60381   1.61478
 Alpha virt. eigenvalues --    1.62207   1.63612   1.65454   1.68228   1.69774
 Alpha virt. eigenvalues --    1.69986   1.71319   1.72522   1.74009   1.76385
 Alpha virt. eigenvalues --    1.78900   1.81400   1.82042   1.82068   1.82964
 Alpha virt. eigenvalues --    1.84139   1.85214   1.85321   1.86976   1.88672
 Alpha virt. eigenvalues --    1.90035   1.90303   1.93446   1.94170   1.95306
 Alpha virt. eigenvalues --    1.96046   1.96467   1.98244   1.98803   2.00631
 Alpha virt. eigenvalues --    2.03957   2.05086   2.09164   2.15206   2.16384
 Alpha virt. eigenvalues --    2.19888   2.21097   2.21880   2.23194   2.23965
 Alpha virt. eigenvalues --    2.26621   2.27324   2.29269   2.30417   2.30845
 Alpha virt. eigenvalues --    2.33992   2.34493   2.40818   2.41329   2.42534
 Alpha virt. eigenvalues --    2.43566   2.45276   2.47344   2.48374   2.50523
 Alpha virt. eigenvalues --    2.52219   2.54618   2.55946   2.57734   2.62202
 Alpha virt. eigenvalues --    2.63868   2.64457   2.65721   2.70362   2.71664
 Alpha virt. eigenvalues --    2.71838   2.73707   2.74490   2.75580   2.76057
 Alpha virt. eigenvalues --    2.76720   2.79164   2.80282   2.80809   2.81922
 Alpha virt. eigenvalues --    2.82467   2.83336   2.84569   2.85463   2.86412
 Alpha virt. eigenvalues --    2.86939   2.87893   2.88410   2.89006   2.89936
 Alpha virt. eigenvalues --    2.91619   2.92297   2.92467   2.93668   2.93984
 Alpha virt. eigenvalues --    2.94841   2.96173   2.96844   2.98100   2.98787
 Alpha virt. eigenvalues --    2.99737   3.03214   3.04472   3.05168   3.08764
 Alpha virt. eigenvalues --    3.10421   3.11315   3.12927   3.14002   3.16770
 Alpha virt. eigenvalues --    3.17721   3.17944   3.19990   3.21743   3.22299
 Alpha virt. eigenvalues --    3.27986   3.29326   3.30934   3.32340   3.34608
 Alpha virt. eigenvalues --    3.36769   3.37768   3.38394   3.40196   3.42077
 Alpha virt. eigenvalues --    3.43646   3.44250   3.47235   3.49275   3.50241
 Alpha virt. eigenvalues --    3.51691   3.52733   3.56451   3.57767   3.58999
 Alpha virt. eigenvalues --    3.60524   3.60739   3.62132   3.63119   3.64775
 Alpha virt. eigenvalues --    3.66208   3.67322   3.67927   3.68867   3.69534
 Alpha virt. eigenvalues --    3.72436   3.74452   3.75662   3.77152   3.78254
 Alpha virt. eigenvalues --    3.80712   3.81512   3.83239   3.84386   3.88754
 Alpha virt. eigenvalues --    3.89812   3.90956   3.94055   3.96502   3.99985
 Alpha virt. eigenvalues --    4.03172   4.06500   4.10802   4.11419   4.11887
 Alpha virt. eigenvalues --    4.13552   4.14609   4.16634   4.19612   4.20304
 Alpha virt. eigenvalues --    4.24303   4.26629   4.29686   4.31205   4.32057
 Alpha virt. eigenvalues --    4.35753   4.35908   4.37638   4.39667   4.40453
 Alpha virt. eigenvalues --    4.41194   4.42102   4.42812   4.44496   4.45635
 Alpha virt. eigenvalues --    4.46104   4.46435   4.47188   4.49199   4.50135
 Alpha virt. eigenvalues --    4.52475   4.53564   4.54560   4.55919   4.55950
 Alpha virt. eigenvalues --    4.58283   4.58587   4.59025   4.59471   4.60030
 Alpha virt. eigenvalues --    4.61160   4.62093   4.63244   4.65038   4.66123
 Alpha virt. eigenvalues --    4.67314   4.67868   4.68955   4.70543   4.71287
 Alpha virt. eigenvalues --    4.71994   4.72808   4.73573   4.74106   4.74696
 Alpha virt. eigenvalues --    4.75164   4.76005   4.76630   4.77843   4.79558
 Alpha virt. eigenvalues --    4.79967   4.81241   4.81674   4.83545   4.84195
 Alpha virt. eigenvalues --    4.85025   4.85550   4.86543   4.88472   4.90025
 Alpha virt. eigenvalues --    4.91272   4.92417   4.93466   4.94904   4.97499
 Alpha virt. eigenvalues --    4.99240   4.99925   5.02306   5.02938   5.04837
 Alpha virt. eigenvalues --    5.07057   5.12238   5.18807   5.23797   5.25222
 Alpha virt. eigenvalues --    5.26014   5.30413   5.34827   5.36848   5.39046
 Alpha virt. eigenvalues --    5.40280   5.40700   5.42648   5.43877   5.44486
 Alpha virt. eigenvalues --    5.47163   5.48469   5.50752   5.52995   5.54200
 Alpha virt. eigenvalues --    5.56203   5.56893   5.60162   5.62627   5.65881
 Alpha virt. eigenvalues --    5.67300   5.75845   5.76736   5.84086   5.88557
 Alpha virt. eigenvalues --    5.93082   5.93912   5.98066   6.04412   6.05948
 Alpha virt. eigenvalues --    6.07521   6.12238   6.17391   6.22119   6.30119
 Alpha virt. eigenvalues --    6.30706   6.45283   6.80160   7.06499   7.12154
 Alpha virt. eigenvalues --    7.20936  11.19156  11.24939  11.56921  11.68123
 Alpha virt. eigenvalues --   11.82989  12.02785  12.10720  12.30025  12.46847
 Alpha virt. eigenvalues --   12.58584  12.98193  13.28249  13.38055  13.68114
          Condensed to atoms (all electrons):
               1          2          3          4          5          6
     1  C    5.008306   0.403067  -0.044770  -0.034792   0.002124  -0.000123
     2  C    0.403067   4.574907   0.415382   0.438233  -0.031812   0.001230
     3  C   -0.044770   0.415382   4.984589  -0.034882  -0.004235   0.000623
     4  C   -0.034792   0.438233  -0.034882   4.828187   0.386554  -0.037569
     5  C    0.002124  -0.031812  -0.004235   0.386554   4.940186   0.406227
     6  C   -0.000123   0.001230   0.000623  -0.037569   0.406227   4.732922
     7  O    0.000000  -0.000021  -0.000000   0.001648  -0.026324   0.347271
     8  C   -0.000000  -0.000001   0.000000  -0.000259   0.001975  -0.066123
     9  C    0.000000   0.000000  -0.000000   0.000046  -0.000531  -0.000729
    10  O    0.000000  -0.000000   0.000000  -0.000033   0.000966  -0.004517
    11  O   -0.000000   0.000000   0.000000   0.000001  -0.000019  -0.001144
    12  C    0.000000  -0.000000   0.000000   0.000000  -0.000170   0.002767
    13  C   -0.000000   0.000000   0.000000   0.000000   0.000001   0.000574
    14  O   -0.000000   0.000000  -0.000000   0.000000   0.000000  -0.000025
    15  H    0.368100  -0.021194  -0.003361   0.003758  -0.000168   0.000001
    16  H    0.373012  -0.024740  -0.006106  -0.006980   0.000149   0.000003
    17  H    0.367708  -0.022473   0.005104  -0.003591   0.000121   0.000006
    18  H   -0.043134   0.365743  -0.047469  -0.042769  -0.003930   0.000196
    19  H   -0.005325  -0.026827   0.372853  -0.007030  -0.000358  -0.000056
    20  H   -0.004195  -0.025105   0.370899   0.004197   0.000117  -0.000011
    21  H    0.005045  -0.023384   0.372473  -0.003750   0.000043  -0.000007
    22  H   -0.003386  -0.029333   0.005505   0.357557  -0.036511  -0.002349
    23  H   -0.004466  -0.028333  -0.009137   0.359519  -0.037367  -0.002252
    24  H    0.000099  -0.005207   0.000393  -0.023898   0.349653  -0.022100
    25  H    0.000152  -0.002236  -0.001069  -0.027661   0.355961  -0.024638
    26  H    0.000009  -0.000006  -0.000005  -0.000097  -0.041900   0.355770
    27  H    0.000014   0.000040  -0.000002   0.000470  -0.036695   0.352568
    28  H    0.000000   0.000000   0.000000   0.000038   0.000333  -0.006060
    29  H   -0.000000  -0.000000   0.000000  -0.000001   0.000017   0.000179
    30  H    0.000000  -0.000000  -0.000000   0.000006  -0.000118   0.000136
    31  H   -0.000000  -0.000000   0.000000   0.000001  -0.000028   0.000142
    32  H    0.000000   0.000000   0.000000   0.000000   0.000014  -0.000102
    33  H   -0.000000  -0.000000   0.000000   0.000000  -0.000000  -0.000092
    34  H    0.000000   0.000000  -0.000000   0.000002   0.000001  -0.000221
    35  H    0.000000  -0.000000  -0.000000   0.000000  -0.000000  -0.000006
    36  H    0.000000   0.000000   0.000000   0.000000   0.000000   0.000006
               7          8          9         10         11         12
     1  C    0.000000  -0.000000   0.000000   0.000000  -0.000000   0.000000
     2  C   -0.000021  -0.000001   0.000000  -0.000000   0.000000  -0.000000
     3  C   -0.000000   0.000000  -0.000000   0.000000   0.000000   0.000000
     4  C    0.001648  -0.000259   0.000046  -0.000033   0.000001   0.000000
     5  C   -0.026324   0.001975  -0.000531   0.000966  -0.000019  -0.000170
     6  C    0.347271  -0.066123  -0.000729  -0.004517  -0.001144   0.002767
     7  O    7.794570   0.297855  -0.030026   0.001185  -0.000030  -0.024399
     8  C    0.297855   4.820978   0.362570  -0.020109   0.001471   0.382153
     9  C   -0.030026   0.362570   4.877213   0.303636  -0.047998  -0.041151
    10  O    0.001185  -0.020109   0.303636   7.906981   0.106038   0.000602
    11  O   -0.000030   0.001471  -0.047998   0.106038   7.960482  -0.000036
    12  C   -0.024399   0.382153  -0.041151   0.000602  -0.000036   4.660390
    13  C    0.001217  -0.031945   0.004802  -0.000018   0.000000   0.377663
    14  O    0.001078  -0.042240  -0.003263   0.000077   0.000001   0.345695
    15  H   -0.000000   0.000000  -0.000000  -0.000000   0.000000  -0.000000
    16  H    0.000000   0.000000   0.000000  -0.000000  -0.000000  -0.000000
    17  H   -0.000000   0.000000   0.000000   0.000000  -0.000000   0.000000
    18  H    0.000000   0.000000   0.000000  -0.000000  -0.000000  -0.000000
    19  H    0.000000  -0.000000   0.000000  -0.000000   0.000000  -0.000000
    20  H   -0.000000  -0.000000   0.000000  -0.000000   0.000000  -0.000000
    21  H    0.000002   0.000000  -0.000000   0.000000   0.000000   0.000000
    22  H    0.000029   0.000017  -0.000001  -0.000056   0.000002   0.000000
    23  H    0.000020   0.000009   0.000002  -0.000001   0.000000   0.000000
    24  H    0.003344   0.000180   0.000039  -0.000011   0.000000  -0.000018
    25  H    0.002179   0.000215  -0.000057   0.000005   0.000000   0.000019
    26  H   -0.028910  -0.004225   0.003409   0.002029   0.005849  -0.000254
    27  H   -0.032648  -0.006004  -0.002383   0.000818  -0.000029   0.000547
    28  H   -0.032514   0.323098  -0.062263   0.000716  -0.000110  -0.027249
    29  H    0.002773  -0.021804   0.344172  -0.026735   0.002662  -0.005323
    30  H   -0.000187  -0.017711   0.331645  -0.026641   0.006077  -0.000860
    31  H    0.000005  -0.000533   0.001669  -0.034553   0.292152   0.000001
    32  H    0.001235  -0.036874  -0.007397   0.000007  -0.000002   0.354339
    33  H   -0.000254  -0.007505   0.000046   0.000000   0.000000  -0.023903
    34  H    0.007256   0.000091   0.000047  -0.000001   0.000000  -0.016696
    35  H    0.000145   0.003119  -0.000098   0.000000  -0.000000  -0.018115
    36  H    0.000023  -0.003091   0.000152  -0.000039   0.000000  -0.068044
              13         14         15         16         17         18
     1  C   -0.000000  -0.000000   0.368100   0.373012   0.367708  -0.043134
     2  C    0.000000   0.000000  -0.021194  -0.024740  -0.022473   0.365743
     3  C    0.000000  -0.000000  -0.003361  -0.006106   0.005104  -0.047469
     4  C    0.000000   0.000000   0.003758  -0.006980  -0.003591  -0.042769
     5  C    0.000001   0.000000  -0.000168   0.000149   0.000121  -0.003930
     6  C    0.000574  -0.000025   0.000001   0.000003   0.000006   0.000196
     7  O    0.001217   0.001078  -0.000000   0.000000  -0.000000   0.000000
     8  C   -0.031945  -0.042240   0.000000   0.000000   0.000000   0.000000
     9  C    0.004802  -0.003263  -0.000000   0.000000   0.000000   0.000000
    10  O   -0.000018   0.000077  -0.000000  -0.000000   0.000000  -0.000000
    11  O    0.000000   0.000001   0.000000  -0.000000  -0.000000  -0.000000
    12  C    0.377663   0.345695  -0.000000  -0.000000   0.000000  -0.000000
    13  C    5.061532  -0.038732  -0.000000   0.000000  -0.000000   0.000000
    14  O   -0.038732   7.857882   0.000000  -0.000000  -0.000000  -0.000000
    15  H   -0.000000   0.000000   0.609085  -0.032577  -0.031348  -0.002921
    16  H    0.000000  -0.000000  -0.032577   0.604783  -0.033040   0.006221
    17  H   -0.000000  -0.000000  -0.031348  -0.033040   0.611353  -0.003130
    18  H    0.000000  -0.000000  -0.002921   0.006221  -0.003130   0.693459
    19  H    0.000000  -0.000000  -0.000152   0.004842  -0.000049   0.006291
    20  H   -0.000000   0.000000   0.004274  -0.000133  -0.000039  -0.002678
    21  H   -0.000000  -0.000000  -0.000070  -0.000053  -0.000224  -0.003478
    22  H   -0.000000   0.000000  -0.000084  -0.000254   0.004833  -0.004603
    23  H   -0.000000   0.000000  -0.000066   0.005256  -0.000249   0.006898
    24  H   -0.000009   0.000000   0.000002   0.000007   0.000001  -0.000108
    25  H   -0.000004   0.000000   0.000003   0.000010  -0.000006   0.005308
    26  H    0.000025   0.000001   0.000000   0.000001  -0.000001   0.000002
    27  H   -0.000146   0.000002   0.000000  -0.000002   0.000001   0.000007
    28  H   -0.009552  -0.000453   0.000000  -0.000000   0.000000  -0.000000
    29  H    0.000388   0.016947   0.000000  -0.000000   0.000000  -0.000000
    30  H   -0.000022   0.000453  -0.000000  -0.000000   0.000000  -0.000000
    31  H   -0.000000   0.000000  -0.000000   0.000000   0.000000   0.000000
    32  H   -0.051860  -0.017596   0.000000  -0.000000   0.000000  -0.000000
    33  H    0.362730  -0.002123   0.000000  -0.000000   0.000000  -0.000000
    34  H    0.353506   0.003129   0.000000   0.000000  -0.000000   0.000000
    35  H    0.368940   0.000962  -0.000000   0.000000  -0.000000   0.000000
    36  H   -0.003245   0.308526  -0.000000  -0.000000  -0.000000  -0.000000
              19         20         21         22         23         24
     1  C   -0.005325  -0.004195   0.005045  -0.003386  -0.004466   0.000099
     2  C   -0.026827  -0.025105  -0.023384  -0.029333  -0.028333  -0.005207
     3  C    0.372853   0.370899   0.372473   0.005505  -0.009137   0.000393
     4  C   -0.007030   0.004197  -0.003750   0.357557   0.359519  -0.023898
     5  C   -0.000358   0.000117   0.000043  -0.036511  -0.037367   0.349653
     6  C   -0.000056  -0.000011  -0.000007  -0.002349  -0.002252  -0.022100
     7  O    0.000000  -0.000000   0.000002   0.000029   0.000020   0.003344
     8  C   -0.000000  -0.000000   0.000000   0.000017   0.000009   0.000180
     9  C    0.000000   0.000000  -0.000000  -0.000001   0.000002   0.000039
    10  O   -0.000000  -0.000000   0.000000  -0.000056  -0.000001  -0.000011
    11  O    0.000000   0.000000   0.000000   0.000002   0.000000   0.000000
    12  C   -0.000000  -0.000000   0.000000   0.000000   0.000000  -0.000018
    13  C    0.000000  -0.000000  -0.000000  -0.000000  -0.000000  -0.000009
    14  O   -0.000000   0.000000  -0.000000   0.000000   0.000000   0.000000
    15  H   -0.000152   0.004274  -0.000070  -0.000084  -0.000066   0.000002
    16  H    0.004842  -0.000133  -0.000053  -0.000254   0.005256   0.000007
    17  H   -0.000049  -0.000039  -0.000224   0.004833  -0.000249   0.000001
    18  H    0.006291  -0.002678  -0.003478  -0.004603   0.006898  -0.000108
    19  H    0.606670  -0.031867  -0.033878  -0.000016   0.005492   0.000966
    20  H   -0.031867   0.609211  -0.030688  -0.000194  -0.000072  -0.000114
    21  H   -0.033878  -0.030688   0.597525  -0.000067   0.000039   0.002703
    22  H   -0.000016  -0.000194  -0.000067   0.659210  -0.042643   0.006088
    23  H    0.005492  -0.000072   0.000039  -0.042643   0.650985  -0.004895
    24  H    0.000966  -0.000114   0.002703   0.006088  -0.004895   0.636186
    25  H    0.000114  -0.000047   0.000915  -0.005367   0.006120  -0.044439
    26  H    0.000001   0.000000  -0.000003   0.007015  -0.000751   0.007225
    27  H    0.000004  -0.000000   0.000028  -0.000507   0.005505  -0.007887
    28  H   -0.000000   0.000000   0.000000   0.000000  -0.000002  -0.000064
    29  H   -0.000000   0.000000   0.000000  -0.000000   0.000000  -0.000000
    30  H    0.000000   0.000000   0.000000   0.000002   0.000000   0.000001
    31  H    0.000000  -0.000000  -0.000000   0.000057  -0.000000   0.000000
    32  H   -0.000000  -0.000000   0.000000   0.000000  -0.000000  -0.000001
    33  H   -0.000000  -0.000000  -0.000000   0.000000  -0.000000   0.000000
    34  H    0.000000   0.000000  -0.000000   0.000000   0.000000   0.000138
    35  H    0.000000   0.000000   0.000000   0.000000   0.000000   0.000000
    36  H   -0.000000   0.000000   0.000000   0.000000  -0.000000   0.000000
              25         26         27         28         29         30
     1  C    0.000152   0.000009   0.000014   0.000000  -0.000000   0.000000
     2  C   -0.002236  -0.000006   0.000040   0.000000  -0.000000  -0.000000
     3  C   -0.001069  -0.000005  -0.000002   0.000000   0.000000  -0.000000
     4  C   -0.027661  -0.000097   0.000470   0.000038  -0.000001   0.000006
     5  C    0.355961  -0.041900  -0.036695   0.000333   0.000017  -0.000118
     6  C   -0.024638   0.355770   0.352568  -0.006060   0.000179   0.000136
     7  O    0.002179  -0.028910  -0.032648  -0.032514   0.002773  -0.000187
     8  C    0.000215  -0.004225  -0.006004   0.323098  -0.021804  -0.017711
     9  C   -0.000057   0.003409  -0.002383  -0.062263   0.344172   0.331645
    10  O    0.000005   0.002029   0.000818   0.000716  -0.026735  -0.026641
    11  O    0.000000   0.005849  -0.000029  -0.000110   0.002662   0.006077
    12  C    0.000019  -0.000254   0.000547  -0.027249  -0.005323  -0.000860
    13  C   -0.000004   0.000025  -0.000146  -0.009552   0.000388  -0.000022
    14  O    0.000000   0.000001   0.000002  -0.000453   0.016947   0.000453
    15  H    0.000003   0.000000   0.000000   0.000000   0.000000  -0.000000
    16  H    0.000010   0.000001  -0.000002  -0.000000  -0.000000  -0.000000
    17  H   -0.000006  -0.000001   0.000001   0.000000   0.000000   0.000000
    18  H    0.005308   0.000002   0.000007  -0.000000  -0.000000  -0.000000
    19  H    0.000114   0.000001   0.000004  -0.000000  -0.000000   0.000000
    20  H   -0.000047   0.000000  -0.000000   0.000000   0.000000   0.000000
    21  H    0.000915  -0.000003   0.000028   0.000000   0.000000   0.000000
    22  H   -0.005367   0.007015  -0.000507   0.000000  -0.000000   0.000002
    23  H    0.006120  -0.000751   0.005505  -0.000002   0.000000   0.000000
    24  H   -0.044439   0.007225  -0.007887  -0.000064  -0.000000   0.000001
    25  H    0.635685  -0.008197   0.006855   0.000045   0.000000   0.000039
    26  H   -0.008197   0.658821  -0.056137  -0.001947  -0.000080  -0.000365
    27  H    0.006855  -0.056137   0.680373   0.015005   0.000039   0.000377
    28  H    0.000045  -0.001947   0.015005   0.706440   0.000961   0.006822
    29  H    0.000000  -0.000080   0.000039   0.000961   0.605370  -0.042268
    30  H    0.000039  -0.000365   0.000377   0.006822  -0.042268   0.620495
    31  H   -0.000000   0.000205   0.000008   0.000029  -0.000139   0.000746
    32  H    0.000004  -0.000029   0.000039   0.007171  -0.000107   0.004055
    33  H    0.000000   0.000000   0.000018   0.005835  -0.000013   0.000007
    34  H    0.000002   0.000032   0.000022   0.000440  -0.000040  -0.000004
    35  H   -0.000000   0.000000  -0.000001  -0.000167  -0.000010   0.000001
    36  H    0.000000   0.000000   0.000004   0.005034   0.000068   0.000013
              31         32         33         34         35         36
     1  C   -0.000000   0.000000  -0.000000   0.000000   0.000000   0.000000
     2  C   -0.000000   0.000000  -0.000000   0.000000  -0.000000   0.000000
     3  C    0.000000   0.000000   0.000000  -0.000000  -0.000000   0.000000
     4  C    0.000001   0.000000   0.000000   0.000002   0.000000   0.000000
     5  C   -0.000028   0.000014  -0.000000   0.000001  -0.000000   0.000000
     6  C    0.000142  -0.000102  -0.000092  -0.000221  -0.000006   0.000006
     7  O    0.000005   0.001235  -0.000254   0.007256   0.000145   0.000023
     8  C   -0.000533  -0.036874  -0.007505   0.000091   0.003119  -0.003091
     9  C    0.001669  -0.007397   0.000046   0.000047  -0.000098   0.000152
    10  O   -0.034553   0.000007   0.000000  -0.000001   0.000000  -0.000039
    11  O    0.292152  -0.000002   0.000000   0.000000  -0.000000   0.000000
    12  C    0.000001   0.354339  -0.023903  -0.016696  -0.018115  -0.068044
    13  C   -0.000000  -0.051860   0.362730   0.353506   0.368940  -0.003245
    14  O    0.000000  -0.017596  -0.002123   0.003129   0.000962   0.308526
    15  H   -0.000000   0.000000   0.000000   0.000000  -0.000000  -0.000000
    16  H    0.000000  -0.000000  -0.000000   0.000000   0.000000  -0.000000
    17  H    0.000000   0.000000   0.000000  -0.000000  -0.000000  -0.000000
    18  H    0.000000  -0.000000  -0.000000   0.000000   0.000000  -0.000000
    19  H    0.000000  -0.000000  -0.000000   0.000000   0.000000  -0.000000
    20  H   -0.000000  -0.000000  -0.000000   0.000000   0.000000   0.000000
    21  H   -0.000000   0.000000  -0.000000  -0.000000   0.000000   0.000000
    22  H    0.000057   0.000000   0.000000   0.000000   0.000000   0.000000
    23  H   -0.000000  -0.000000  -0.000000   0.000000   0.000000  -0.000000
    24  H    0.000000  -0.000001   0.000000   0.000138   0.000000   0.000000
    25  H   -0.000000   0.000004   0.000000   0.000002  -0.000000   0.000000
    26  H    0.000205  -0.000029   0.000000   0.000032   0.000000   0.000000
    27  H    0.000008   0.000039   0.000018   0.000022  -0.000001   0.000004
    28  H    0.000029   0.007171   0.005835   0.000440  -0.000167   0.005034
    29  H   -0.000139  -0.000107  -0.000013  -0.000040  -0.000010   0.000068
    30  H    0.000746   0.004055   0.000007  -0.000004   0.000001   0.000013
    31  H    0.424216   0.000000   0.000000  -0.000000   0.000000  -0.000000
    32  H    0.000000   0.632419   0.005795   0.000365  -0.003613   0.006975
    33  H    0.000000   0.005795   0.614007  -0.026440  -0.034225   0.005718
    34  H   -0.000000   0.000365  -0.026440   0.573074  -0.028113  -0.000141
    35  H    0.000000  -0.003613  -0.034225  -0.028113   0.588841  -0.000262
    36  H   -0.000000   0.006975   0.005718  -0.000141  -0.000262   0.466146
 Mulliken charges:
               1
     1  C   -0.387444
     2  C    0.042068
     3  C   -0.376786
     4  C   -0.156906
     5  C   -0.224276
     6  C   -0.032500
     7  O   -0.286521
     8  C    0.064693
     9  C   -0.033551
    10  O   -0.210347
    11  O   -0.325369
    12  C    0.102040
    13  C   -0.395847
    14  O   -0.430322
    15  H    0.106719
    16  H    0.109603
    17  H    0.105024
    18  H    0.070098
    19  H    0.108323
    20  H    0.106445
    21  H    0.116830
    22  H    0.085055
    23  H    0.090391
    24  H    0.101724
    25  H    0.100093
    26  H    0.102513
    27  H    0.079701
    28  H    0.068413
    29  H    0.122944
    30  H    0.117300
    31  H    0.316023
    32  H    0.105163
    33  H    0.100398
    34  H    0.133551
    35  H    0.122602
    36  H    0.282156
 Sum of Mulliken charges =  -0.00000
 Mulliken charges with hydrogens summed into heavy atoms:
               1
     1  C   -0.066098
     2  C    0.112165
     3  C   -0.045187
     4  C    0.018540
     5  C   -0.022459
     6  C    0.149713
     7  O   -0.286521
     8  C    0.133107
     9  C    0.206693
    10  O   -0.210347
    11  O   -0.009346
    12  C    0.207203
    13  C   -0.039297
    14  O   -0.148166
 Electronic spatial extent (au):  <R**2>=           5161.4654
 Charge=             -0.0000 electrons
 Dipole moment (field-independent basis, Debye):
    X=              1.5152    Y=             -0.1880    Z=              1.1692  Tot=              1.9231
 Quadrupole moment (field-independent basis, Debye-Ang):
   XX=            -93.3579   YY=            -87.2359   ZZ=            -85.0584
   XY=              5.5562   XZ=             -4.7812   YZ=             -0.6679
 Traceless Quadrupole moment (field-independent basis, Debye-Ang):
   XX=             -4.8072   YY=              1.3148   ZZ=              3.4923
   XY=              5.5562   XZ=             -4.7812   YZ=             -0.6679
 Octapole moment (field-independent basis, Debye-Ang**2):
  XXX=             -5.7825  YYY=             30.9440  ZZZ=              2.6717  XYY=              0.8833
  XXY=             -6.4307  XXZ=             16.8148  XZZ=            -22.5280  YZZ=              1.9681
  YYZ=              2.5656  XYZ=              3.1024
 Hexadecapole moment (field-independent basis, Debye-Ang**3):
 XXXX=          -5475.0719 YYYY=          -1250.7915 ZZZZ=           -189.0889 XXXY=            -39.9040
 XXXZ=           -133.3421 YYYX=             57.6004 YYYZ=             23.7572 ZZZX=            -11.2032
 ZZZY=             -2.6275 XXYY=          -1124.2435 XXZZ=           -843.9694 YYZZ=           -258.9056
 XXYZ=            -11.2679 YYXZ=             -6.0962 ZZXY=              6.1537
 N-N= 9.716781112608D+02 E-N=-3.566321753430D+03  KE= 6.901301572776D+02
 PrsmSu:  requested number of processors reduced to:  13 ShMem   1 Linda.
 Calling FoFJK, ICntrl=      2127 FMM=F ISym2X=0 I1Cent= 0 IOpClX= 0 NMat=1 NMatS=1 NMatT=0.
 ***** Axes restored to original set *****
 -------------------------------------------------------------------
 Center     Atomic                   Forces (Hartrees/Bohr)
 Number     Number              X              Y              Z
 -------------------------------------------------------------------
      1        6          -0.002334154    0.004740091   -0.000367441
      2        6          -0.006629992   -0.006020426    0.000930133
      3        6           0.004254733    0.003621227    0.003138951
      4        6           0.005128733    0.005403485    0.002462737
      5        6           0.003608442   -0.004995755    0.000798003
      6        6           0.004941074    0.013112479    0.002258179
      7        8           0.006728154   -0.010860844   -0.012635081
      8        6          -0.005576474    0.015149116    0.000726254
      9        6          -0.004604497   -0.005360660   -0.004114101
     10        8           0.007460031    0.000773212    0.004917587
     11        8          -0.008316478   -0.003143428    0.003590593
     12        6           0.002310188   -0.013663632    0.007055628
     13        6           0.001451399    0.003775065    0.006847085
     14        8          -0.003256014    0.004691471   -0.004993472
     15        1          -0.002114109   -0.000239802    0.000160375
     16        1          -0.000212735   -0.000195570    0.000385878
     17        1          -0.001028929   -0.000282875    0.000040133
     18        1           0.001037895    0.000601190   -0.000224735
     19        1          -0.000665515   -0.000201667    0.001017595
     20        1          -0.001938936   -0.000473144    0.001772821
     21        1          -0.000828776   -0.000600582    0.001077036
     22        1           0.000339264   -0.000389689    0.000425162
     23        1          -0.001032900    0.000094730    0.001500481
     24        1          -0.001936313    0.000411921    0.001615102
     25        1           0.000132938   -0.000247934   -0.000943294
     26        1          -0.002047487   -0.006241432   -0.004148147
     27        1          -0.002607006   -0.002381690   -0.002684690
     28        1          -0.000212178   -0.004360689   -0.000897043
     29        1           0.009009966    0.002128561    0.001697011
     30        1          -0.001928033   -0.000798915    0.001122831
     31        1           0.005595099    0.003108097   -0.005503641
     32        1          -0.000847244   -0.001530058   -0.005830687
     33        1          -0.002800918   -0.000552692    0.000585173
     34        1          -0.001418263   -0.001309245   -0.000741532
     35        1          -0.001266097    0.001559298   -0.002061111
     36        1           0.001605135    0.004680786    0.001020227
 -------------------------------------------------------------------
 Cartesian Forces:  Max     0.015149116 RMS     0.004320684

 GradGradGradGradGradGradGradGradGradGradGradGradGradGradGradGradGradGrad
 Berny optimization.
 FormGI is forming the generalized inverse of G from B-inverse, IUseBI=4.
 Internal  Forces:  Max     0.036738395 RMS     0.004576894
 Search for a local minimum.
 Step number   1 out of a maximum of  194
 All quantities printed in internal units (Hartrees-Bohrs-Radians)
 Mixed Optimization -- RFO/linear search
 Second derivative matrix not updated -- first step.
 ITU=  0
     Eigenvalues ---    0.00230   0.00230   0.00386   0.00393   0.00400
     Eigenvalues ---    0.00401   0.00420   0.00553   0.00644   0.01141
     Eigenvalues ---    0.01198   0.01279   0.01422   0.03556   0.03770
     Eigenvalues ---    0.04009   0.04221   0.04423   0.04707   0.04747
     Eigenvalues ---    0.04769   0.04848   0.04875   0.04994   0.05003
     Eigenvalues ---    0.05321   0.05425   0.05507   0.05536   0.05550
     Eigenvalues ---    0.05593   0.05600   0.05688   0.06269   0.07023
     Eigenvalues ---    0.07406   0.07806   0.08321   0.11226   0.11470
     Eigenvalues ---    0.11756   0.12192   0.13767   0.13767   0.16000
     Eigenvalues ---    0.16000   0.16000   0.16000   0.16000   0.16000
     Eigenvalues ---    0.16000   0.16000   0.16000   0.16000   0.16000
     Eigenvalues ---    0.16266   0.16387   0.16622   0.16813   0.19829
     Eigenvalues ---    0.19855   0.21811   0.21885   0.22075   0.22139
     Eigenvalues ---    0.25000   0.25000   0.28140   0.28188   0.29543
     Eigenvalues ---    0.29594   0.29642   0.29650   0.29784   0.31428
     Eigenvalues ---    0.33754   0.33866   0.33903   0.33984   0.34026
     Eigenvalues ---    0.34046   0.34094   0.34160   0.34162   0.34176
     Eigenvalues ---    0.34188   0.34200   0.34207   0.34327   0.34348
     Eigenvalues ---    0.34349   0.34381   0.34513   0.34620   0.34875
     Eigenvalues ---    0.37462   0.39363   0.39957   0.40819   0.42396
     Eigenvalues ---    0.52572   0.53749
 RFO step:  Lambda=-2.11503855D-02 EMin= 2.30000000D-03
 Linear search not attempted -- first point.
 Iteration  1 RMS(Cart)=  0.27436070 RMS(Int)=  0.01059669
 Iteration  2 RMS(Cart)=  0.04377584 RMS(Int)=  0.00048003
 Iteration  3 RMS(Cart)=  0.00079496 RMS(Int)=  0.00040080
 Iteration  4 RMS(Cart)=  0.00000063 RMS(Int)=  0.00040080
 Variable       Old X    -DE/DX   Delta X   Delta X   Delta X     New X
                                 (Linear)    (Quad)   (Total)
    R1        2.88683   0.00570   0.00000   0.01795   0.01795   2.90478
    R2        2.06782   0.00075   0.00000   0.00207   0.00207   2.06989
    R3        2.07034   0.00032   0.00000   0.00088   0.00088   2.07122
    R4        2.06994   0.00021   0.00000   0.00058   0.00058   2.07052
    R5        2.88667   0.00590   0.00000   0.01859   0.01859   2.90526
    R6        2.88884   0.01002   0.00000   0.03164   0.03164   2.92048
    R7        2.07357   0.00094   0.00000   0.00259   0.00259   2.07616
    R8        2.07015   0.00056   0.00000   0.00154   0.00154   2.07169
    R9        2.06474   0.00172   0.00000   0.00470   0.00470   2.06944
   R10        2.06745  -0.00077   0.00000  -0.00210  -0.00210   2.06535
   R11        2.88780   0.00630   0.00000   0.01988   0.01988   2.90768
   R12        2.07746  -0.00061   0.00000  -0.00171  -0.00171   2.07575
   R13        2.07556   0.00045   0.00000   0.00126   0.00126   2.07682
   R14        2.85203   0.01228   0.00000   0.03662   0.03662   2.88865
   R15        2.06693   0.00049   0.00000   0.00134   0.00134   2.06827
   R16        2.07287  -0.00005   0.00000  -0.00015  -0.00015   2.07272
   R17        2.68422   0.00450   0.00000   0.01011   0.01011   2.69434
   R18        2.05878   0.00185   0.00000   0.00499   0.00499   2.06377
   R19        2.07172   0.00271   0.00000   0.00749   0.00749   2.07921
   R20        2.72428  -0.00655   0.00000  -0.01580  -0.01580   2.70848
   R21        2.91833  -0.00462   0.00000  -0.01526  -0.01526   2.90306
   R22        2.91729  -0.00411   0.00000  -0.01356  -0.01356   2.90373
   R23        2.07495   0.00389   0.00000   0.01081   0.01081   2.08575
   R24        2.71612  -0.00514   0.00000  -0.01222  -0.01222   2.70390
   R25        2.06296   0.00217   0.00000   0.00592   0.00592   2.06888
   R26        2.07253  -0.00120   0.00000  -0.00331  -0.00331   2.06922
   R27        2.75155   0.00226   0.00000   0.00572   0.00572   2.75727
   R28        1.84055  -0.00685   0.00000  -0.01253  -0.01253   1.82802
   R29        2.88397   0.00170   0.00000   0.00533   0.00533   2.88930
   R30        2.70455  -0.00352   0.00000  -0.00819  -0.00819   2.69636
   R31        2.07061  -0.00072   0.00000  -0.00198  -0.00198   2.06863
   R32        2.06982   0.00149   0.00000   0.00409   0.00409   2.07392
   R33        2.06747  -0.00091   0.00000  -0.00249  -0.00249   2.06499
   R34        2.07057  -0.00130   0.00000  -0.00358  -0.00358   2.06699
   R35        1.82961  -0.00469   0.00000  -0.00840  -0.00840   1.82121
    A1        1.92948   0.00266   0.00000   0.01561   0.01556   1.94504
    A2        1.93956  -0.00073   0.00000  -0.00570  -0.00568   1.93389
    A3        1.93769   0.00110   0.00000   0.00679   0.00673   1.94442
    A4        1.88761  -0.00125   0.00000  -0.00828  -0.00825   1.87936
    A5        1.88378  -0.00143   0.00000  -0.00471  -0.00482   1.87896
    A6        1.88374  -0.00050   0.00000  -0.00452  -0.00450   1.87923
    A7        1.92189  -0.00225   0.00000  -0.00416  -0.00464   1.91726
    A8        1.91627  -0.00037   0.00000   0.00578   0.00549   1.92176
    A9        1.89070   0.00050   0.00000  -0.01173  -0.01181   1.87889
   A10        1.93918   0.00490   0.00000   0.03671   0.03670   1.97588
   A11        1.90009  -0.00095   0.00000  -0.01104  -0.01096   1.88913
   A12        1.89477  -0.00195   0.00000  -0.01712  -0.01700   1.87777
   A13        1.93355   0.00014   0.00000  -0.00169  -0.00172   1.93183
   A14        1.93559   0.00025   0.00000   0.00026   0.00021   1.93580
[...]
 .00003293,0.00024687,0.00003555,0.00000366,0.00007505,-0.00006307,0.00
 013803,0.00002531,-0.00022349,0.00025929,-0.00000053,-0.00003665,-0.00
 030308,-0.00039780,-0.00077132,0.00045645,-0.00874868,0.01898984,0.067
 04429,0.00000025,0.00000400,0.00000541,-0.00000714,-0.00001207,-0.0000
 0415,-0.00000730,0.00000285,0.00000137,0.00001950,0.00001160,0.0000044
 6,-0.00000771,0.00005707,-0.00002571,-0.00002668,0.00006639,0.00030968
 ,0.00259529,0.00086238,-0.00072802,-0.01797369,-0.03078586,0.00266374,
 0.00073424,-0.00133865,0.00142231,0.00051598,0.00032282,0.00018985,-0.
 00005992,0.00023525,-0.00023238,-0.09781241,-0.10246862,0.01327500,0.0
 0261378,0.00446033,-0.00175874,0.00716371,0.02089102,0.00061813,-0.000
 00361,0.00000179,0.00000234,0.00000099,0.00000057,-0.00000182,0.000001
 28,-0.00000156,-0.00000007,-0.00000079,0.00000578,0.00000044,0.0000024
 4,0.00000143,-0.00000194,-0.00000109,0.00000183,0.00000363,0.00000082,
 -0.00000330,-0.00000104,0.00000175,-0.00000282,-0.00000015,0.00000881,
 0.00000450,-0.00000859,-0.00000625,0.00000206,0.00002516,-0.00002773,0
 .00006283,0.00003133,0.00012034,-0.00003691,-0.00000579,0.00014741,0.0
 0026835,-0.00012802,-0.00552960,0.00108856,-0.00124448,0.00000073,0.00
 008784,-0.00028968,-0.00014882,0.00077702,-0.00059200,-0.00002069,-0.0
 0002043,-0.00005573,0.10645716,-0.00000014,0.00000246,0.00000341,-0.00
 000740,-0.00000878,0.00000051,-0.00000459,-0.00000109,0.00000117,-0.00
 000585,0.00002011,0.00002368,-0.00008552,-0.00005364,0.00000519,-0.000
 07815,0.00042645,0.00010375,-0.00063516,0.00093042,0.00061422,-0.00056
 581,0.00039518,-0.00005930,0.00000946,0.00016378,0.00023650,0.00025367
 ,0.00029329,-0.00001911,-0.00009381,-0.00001655,-0.00010681,-0.0950745
 6,-0.24549076,0.03159438,-0.00495969,-0.00824245,0.00315392,-0.0022123
 7,-0.02785252,-0.00478419,-0.00000181,0.00000090,0.00000110,0.00000128
 ,0.00000096,-0.00000124,0.00000018,-0.00000080,-0.00000060,-0.00000045
 ,0.00000520,-0.00000183,0.00000359,0.00000290,-0.00000205,-0.00000091,
 0.00000173,0.00000141,0.00000093,-0.00000364,0.00000074,0.00000134,0.0
 0000045,0.00000015,0.00000572,0.00000481,-0.00000275,-0.00000069,-0.00
 001338,-0.00000121,-0.00001060,0.00001267,-0.00000943,0.00000438,0.000
 01067,-0.00002401,0.00016887,-0.00005728,-0.00005477,0.00076172,0.0006
 4747,-0.00018049,-0.00006625,-0.00012039,0.00010119,-0.00013612,0.0004
 1622,-0.00034879,-0.00002687,-0.00001654,-0.00000550,0.10072943,0.2780
 3400,0.00000098,0.00000397,0.00000256,-0.00000444,-0.00000450,-0.00000
 143,0.00000581,0.00000578,-0.00000270,0.00000876,0.00000794,-0.0000011
 7,-0.00002957,0.00001741,-0.00001839,0.00005224,0.00012705,-0.00006603
 ,0.00028083,0.00009554,0.00014157,-0.00570337,-0.00719258,0.00193086,-
 0.00039612,-0.00096119,0.00045407,0.00028906,0.00013285,0.00007479,0.0
 0005584,0.00007919,-0.00006739,0.01511256,0.03830112,-0.05353583,0.012
 92954,0.02903923,-0.00600904,-0.00520376,-0.02858891,-0.00019003,-0.00
 000206,0.00000056,0.00000088,-0.00000170,-0.00000187,0.00000074,0.,-0.
 00000024,-0.00000015,0.00000213,-0.00000454,0.00000217,-0.00000561,-0.
 00000463,0.00000277,0.00000007,-0.00000130,0.00000180,-0.00000203,0.00
 000329,-0.00000366,-0.00000210,-0.00000235,0.00000045,-0.00001115,-0.0
 0000770,0.00000405,0.00000969,0.00001733,-0.00000132,0.00001466,-0.000
 01599,0.00001653,-0.00003363,-0.00002299,0.00000449,-0.00001679,-0.000
 03898,-0.00002152,-0.00140964,-0.00012211,-0.00001177,0.00012911,-0.00
 008632,0.00003068,-0.00012594,0.00027252,0.00004923,-0.00002475,0.0000
 0040,-0.00001010,-0.01580728,-0.02834450,0.06375950,-0.00000221,-0.000
 00497,-0.00000443,0.00000165,0.00000901,0.00000837,0.00000054,-0.00000
 349,-0.00000077,-0.00001342,-0.00000353,-0.00000655,-0.00000969,-0.000
 00592,0.00001322,-0.00011709,0.00014040,-0.00008437,-0.00021810,-0.000
 32935,0.00019750,0.00115979,0.00131400,0.00021228,0.00012881,0.0000505
 4,-0.00016538,-0.00007329,-0.00002672,0.00003955,0.00003727,-0.0000249
 3,0.00006907,0.00121355,0.00516024,-0.00059551,-0.08849892,-0.09287884
 ,0.01224110,-0.00036923,0.00055688,0.00046236,0.00000423,-0.00000238,-
 0.00000281,-0.00000009,0.00000165,0.00000042,-0.00000035,0.00000070,0.
 00000127,0.00000054,-0.00000191,-0.00000163,-0.00000127,0.00000124,0.0
 0000161,0.00000217,-0.00000322,-0.00000366,0.00000295,0.00000302,0.000
 00286,0.00000242,-0.00000131,0.00000143,-0.00000355,-0.00000154,0.0000
 0213,0.00000360,0.00001265,-0.00000013,0.00000642,-0.00001569,-0.00000
 349,-0.00003295,-0.00001220,0.00001328,-0.00004282,-0.00001601,-0.0000
 1093,0.00014074,-0.00022753,-0.00001325,-0.00000487,0.00002312,0.00002
 863,-0.00004915,-0.00004584,-0.00002096,-0.00000511,0.00000446,0.00000
 283,0.00085282,0.00045347,-0.00108343,0.09142467,-0.00000026,-0.000005
 10,0.00000149,0.00000825,0.00000260,-0.00000545,-0.00001540,-0.0000100
 4,0.00000746,-0.00000647,-0.00003047,0.00001461,0.00005059,0.00002406,
 -0.00005552,-0.00028289,-0.00040742,0.00032114,0.00078424,0.00027265,-
 0.00014673,-0.00117954,-0.00004403,-0.00038805,0.00014394,0.00035633,-
 0.00009323,0.00010940,0.00003665,0.00009282,0.00005552,-0.00001710,0.0
 0005463,-0.00392478,-0.01350392,0.00051201,-0.09212560,-0.25386108,0.0
 2905673,0.00031832,0.00301623,-0.00012914,0.00000012,0.00000142,0.0000
 0078,0.00000301,0.00000318,-0.00000258,0.00000014,-0.00000044,-0.00000
 061,-0.00000313,0.00001089,-0.00000163,0.00001083,0.00000772,-0.000007
 05,-0.00000110,0.00000531,-0.00000010,0.00000236,-0.00000600,0.0000020
 3,0.00000275,0.00000499,-0.00000250,0.00002292,0.00001741,-0.00001305,
 -0.00002085,-0.00004315,0.00001605,-0.00002490,0.00005014,0.00000155,0
 .00009091,0.00009055,-0.00001935,0.00014403,0.00017994,-0.00004375,0.0
 0095347,0.00042931,0.00028144,-0.00000081,0.00000255,-0.00001747,-0.00
 005952,0.00011006,-0.00018473,-0.00001538,0.00000003,0.00000727,0.0007
 9150,0.00081848,0.00239171,0.10284581,0.27805020,-0.00000039,-0.000003
 28,-0.00000002,0.00000293,0.00000380,0.00000003,-0.00000877,-0.0000071
 6,0.00000353,-0.00000501,-0.00001091,0.00001309,-0.00000476,0.00000053
 ,-0.00001919,-0.00011117,0.00001564,0.00005774,0.00005905,-0.00011773,
 0.00005173,0.00196294,0.00016845,0.00158193,0.00021774,-0.00010639,0.0
 0000689,-0.00016254,-0.00011467,-0.00003833,0.00002343,-0.00000197,0.0
 0004862,0.01364986,0.03167556,-0.00641514,0.01283046,0.02852052,-0.051
 17644,-0.00116303,0.00038086,0.00350566,0.00000079,-0.00000008,-0.0000
 0046,0.00000129,0.00000146,-0.00000037,0.00000002,0.00000057,-0.000000
 35,-0.00000150,0.00000310,-0.00000180,0.00000591,0.00000417,-0.0000028
 8,0.00000050,0.00000215,-0.00000139,0.00000129,-0.00000196,0.00000197,
 0.00000412,0.00000383,-0.00000162,0.00000835,0.00000622,-0.00000204,-0
 .00001016,-0.00001950,0.00001553,-0.00000566,0.00000729,-0.00000842,0.
 00002758,0.00000923,-0.00000026,0.00000392,0.00002566,0.00002075,-0.00
 063877,-0.00061149,0.00002878,-0.00000754,0.00003504,0.00001271,-0.000
 00939,-0.00017936,0.00010372,0.00000671,0.00000177,0.00000098,-0.00107
 929,0.00161326,-0.00585688,-0.01370033,-0.03553969,0.05550611,-0.00000
 683,-0.00001958,-0.00001894,0.00000805,0.00004730,0.00003466,0.0000061
 1,-0.00001851,-0.00000802,-0.00004755,-0.00005339,0.00004527,-0.000058
 39,0.00007630,-0.00020201,-0.00071190,0.00015253,-0.00001814,-0.002086
 03,0.00096042,-0.00079125,0.00036279,-0.00054343,0.00007277,0.00019580
 ,0.00018448,-0.00002330,-0.00004767,-0.00001632,0.00005313,0.00004711,
 -0.00003071,0.00009596,0.00092761,-0.00423977,-0.00182393,-0.09618287,
 0.07440370,0.07687104,0.00141351,0.00008103,-0.00169738,0.00001677,-0.
 00000743,-0.00001014,-0.00000012,0.00000388,0.00000184,-0.00000464,0.0
 0000279,0.00000113,0.00000005,-0.00000679,-0.00000336,-0.00000416,0.00
 000284,0.00000402,0.00001216,-0.00000942,-0.00001592,0.00000463,0.0000
 1784,0.00001942,0.00003090,0.00000109,-0.00000379,-0.00000429,0.000002
 32,-0.00000352,-0.00009626,0.00008522,0.00018959,0.00003593,-0.0000290
 2,0.00004245,0.00012681,-0.00001539,0.00002095,0.00002086,-0.00002176,
 -0.00005034,-0.00007033,0.00012518,0.00005284,-0.00001886,0.00001953,0
 .00007929,0.00000792,-0.00001799,-0.00001098,-0.00000458,0.00001402,-0
 .00000800,0.00018572,-0.00002732,0.00021061,0.00565020,-0.00934807,-0.
 01020758,0.10198535,-0.00000042,0.00000051,0.00000063,-0.00000612,0.00
 000157,-0.00000230,0.00000870,0.00000724,-0.00000456,0.00000358,0.0000
 1612,-0.00001369,-0.00004460,-0.00003474,0.00000334,0.00000295,0.00008
 472,-0.00009559,0.00156738,-0.00092691,0.00171210,0.00014105,0.0000004
 4,-0.00097545,-0.00013148,-0.00003462,0.00012581,-0.00002807,0.0000110
 8,-0.00004014,-0.00004082,0.00001238,-0.00002844,-0.00559156,0.0063002
 0,0.00442393,0.07381236,-0.15626359,-0.11244431,0.00009307,0.00158444,
 0.00390138,0.00000052,-0.00000091,-0.00000133,-0.00000276,-0.00000152,
 0.00000054,0.00000241,-0.00000006,0.00000277,0.00000403,-0.00000923,0.
 00000374,-0.00001474,-0.00000857,0.00000755,0.00000301,-0.00000652,0.0
 0000070,0.00000414,0.00001225,-0.00000485,-0.00000015,-0.00000626,0.00
 000812,-0.00002239,-0.00001462,0.00000579,0.00006445,0.00005899,-0.000
 01038,0.00003203,-0.00004088,0.00002144,0.00001177,-0.00001301,0.00001
 040,-0.00011821,-0.00006969,-0.00003833,0.00002991,0.00002450,-0.00010
 620,0.00001628,-0.00001177,-0.00000043,0.00000837,-0.00000376,0.000000
 79,0.00000908,-0.00000339,-0.00000611,-0.00035189,0.00039751,-0.000621
 50,0.01280476,-0.01758574,-0.01863723,-0.08168845,0.16708509,-0.000006
 88,-0.00002019,-0.00002198,0.00001445,0.00004228,0.00003478,0.00000687
 ,-0.00001727,-0.00000302,-0.00006225,-0.00004944,-0.00001181,-0.000001
 08,0.00004419,-0.00001128,-0.00101246,0.00013441,0.00073967,0.00062709
 ,0.00038302,0.00154935,0.00086813,-0.00123584,-0.00102603,0.00013446,0
 .00003904,-0.00003645,-0.00016528,0.00004997,0.00006169,-0.00000565,-0
 .00001471,0.00002196,0.01391024,-0.02255236,-0.01415074,0.07422807,-0.
 10931257,-0.15930435,-0.00017560,0.00052622,-0.00973733,0.00001677,-0.
 00000704,-0.00000945,0.00000183,0.00000500,0.00000103,-0.00000469,0.00
 000243,0.00000159,-0.00000289,-0.00000056,-0.00000657,0.00000513,0.000
 00833,-0.00000122,0.00000458,-0.00000500,-0.00001586,0.00000502,0.0000
 0082,0.00001748,0.00000229,0.00000421,0.00000296,0.00001325,0.00001025
 ,-0.00000305,-0.00001959,-0.00001356,0.00005979,-0.00001929,0.00000496
 ,-0.00001083,0.00040545,0.00001091,-0.00006109,0.00010242,0.00009267,-
 0.00009076,-0.00010898,0.00024774,0.00007753,0.00014581,-0.00004922,0.
 00032868,-0.00003089,0.00004778,-0.00001926,0.00000392,0.00000352,-0.0
 0001537,0.00028628,0.00053630,0.00101308,-0.00262665,0.00338166,0.0032
 0712,-0.08391426,0.12115830,0.17253816,0.00000511,0.00001673,0.0000164
 9,-0.00000950,-0.00003661,-0.00002692,-0.00000518,0.00001341,0.0000046
 7,0.00003711,0.00003569,0.00000970,-0.00001380,-0.00002958,0.00000988,
 0.00041827,-0.00008590,-0.00006588,-0.00037854,0.00003528,-0.00066930,
 0.00079287,0.00103716,-0.00031851,-0.00028618,0.00005366,0.00042328,0.
 00011093,0.00002961,-0.00012168,-0.00008555,0.00002250,-0.00009537,-0.
 00528160,0.00045231,0.00070560,-0.30448380,0.01294202,-0.04873065,0.00
 186146,-0.00091121,0.00032307,-0.00001436,0.00000733,0.00000912,-0.000
 00012,-0.00000389,-0.00000172,0.00000349,-0.00000263,-0.00000174,0.000
 00048,0.00000503,0.00000340,0.00000229,-0.00000340,-0.00000293,-0.0000
 0838,0.00000853,0.00001382,-0.00000501,-0.00000959,-0.00001304,-0.0000
 0786,-0.00000033,0.00000058,-0.00000031,-0.00000094,-0.00000036,0.0000
 0154,-0.00001496,-0.00002710,-0.00000860,0.00002133,-0.00000475,-0.000
 08430,0.00002354,-0.00000370,0.00000260,0.00001358,0.00002040,0.000317
 38,0.00004491,0.00013149,0.00002913,-0.00004017,-0.00005622,-0.0000179
 7,0.00002999,-0.00007894,0.00001537,-0.00002055,0.00001083,0.00065337,
 0.00039736,-0.00031804,-0.01129217,0.00123977,-0.00183683,-0.01142611,
 -0.00065210,-0.00279506,0.32955236,-0.00000216,-0.00001104,-0.00000880
 ,0.00000940,0.00002361,0.00001211,0.00000232,-0.00001031,-0.00000119,-
 0.00002188,-0.00003647,0.00000321,0.00002343,0.00004652,-0.00005277,-0
 .00044694,-0.00017595,0.00024101,0.00056982,0.00014338,0.00083573,-0.0
 0007456,-0.00082650,0.00140614,0.00052194,0.00046788,-0.00029555,-0.00
 002280,-0.00007660,0.00017746,0.00011198,-0.00004819,0.00014133,0.0115
 5983,-0.00183161,0.00152393,0.01212550,-0.04772702,0.00282347,-0.00059
 749,0.00005022,-0.00074401,0.00000751,-0.00000259,-0.00000413,0.000000
 58,0.00000205,0.00000020,-0.00000258,0.00000135,-0.00000002,-0.0000010
 0,-0.00000057,-0.00000076,0.00000043,0.00000236,-0.00000077,0.00000398
 ,-0.00000201,-0.00000730,0.00000160,0.00000468,0.00000693,0.00000388,0
 .00000288,-0.00000187,0.00000729,0.00000522,-0.00000525,-0.00000798,-0
 .00000423,0.00002378,-0.00000087,0.00000400,0.00001286,0.00011750,0.00
 003819,-0.00003606,0.00007410,0.00008985,-0.00004352,0.00036345,0.0003
 0445,0.00011224,0.00001934,0.00002055,0.00003644,-0.00001982,-0.000010
 45,-0.00007427,-0.00000627,0.00002054,0.00000963,0.00041420,0.00019575
 ,-0.00060305,-0.02939870,0.00188199,-0.00580689,0.01973259,-0.00064519
 ,0.00529055,-0.01460856,0.04814013,-0.00000047,0.00000240,0.00000133,-
 0.00000917,-0.00000363,0.00000039,-0.00000467,0.00000158,-0.00000315,0
 .00000346,0.00002395,0.00003386,-0.00009100,-0.00002566,-0.00005792,0.
 00007940,0.00015326,-0.00003840,0.00058817,-0.00039883,0.00118911,0.00
 117400,0.00159237,-0.00695086,-0.00191686,-0.00013695,0.00078586,0.000
 18775,0.00021385,-0.00041044,-0.00036938,0.00013834,-0.00044144,-0.033
 95339,0.00196085,-0.00796150,-0.04613524,0.00199130,-0.05431951,0.0014
 8462,-0.00003646,0.00388231,-0.00000095,-0.00000002,0.00000030,-0.0000
 0052,-0.00000084,0.00000031,0.00000190,-0.00000035,0.00000091,0.000000
 50,-0.00000221,0.00000013,-0.00000250,-0.00000166,0.00000279,0.0000033
 8,-0.00000205,0.00000121,0.00000223,0.00000459,0.00000215,0.00001862,-
 0.00000265,0.00000259,-0.00000548,-0.00000375,0.00000060,0.00000131,0.
 00002580,0.00006315,0.00001066,-0.00001119,0.00000723,0.00006312,-0.00
 002818,-0.00000313,-0.00006250,-0.00004120,-0.00001907,0.00023991,-0.0
 0008877,0.00002244,-0.00004727,-0.00005684,-0.00002088,0.00003670,0.00
 010836,-0.00011053,0.00002486,-0.00004490,-0.00004702,0.00060166,-0.00
 029322,0.00138633,0.00403917,-0.00070615,-0.00017520,0.02072126,0.0008
 8178,0.00460348,0.05368031,-0.00493767,0.05895185,-0.00000513,-0.00001
 784,-0.00001644,0.00001204,0.00003784,0.00002863,0.00000626,-0.0000158
 5,-0.00000162,-0.00003988,-0.00003698,-0.00002940,0.00005666,0.0000027
 0,0.00004555,-0.00052718,0.00001126,0.00010582,-0.00026304,-0.00114434
 ,-0.00044961,0.00185273,0.00425000,0.00063761,-0.00080131,0.00013800,-
 0.00031628,-0.00001146,-0.00002582,-0.00002259,0.00009227,-0.00008978,
 0.00011903,0.00211951,0.02257549,-0.00133630,0.00065961,0.00052834,0.0
 0004485,-0.05610150,-0.14180844,0.04591983,0.00001514,-0.00000868,-0.0
 0001047,0.00000047,0.00000497,0.00000233,-0.00000540,0.00000380,0.0000
 0082,-0.00000082,-0.00000337,-0.00000469,0.00000034,0.00000599,0.00000
 084,0.00000650,-0.00000778,-0.00001566,0.00000405,0.00000613,0.0000118
 7,-0.00000703,0.00000372,-0.00000369,0.00000668,0.00000272,0.00000268,
 -0.00000894,-0.00000347,-0.00002468,0.00000058,-0.00001376,-0.00001000
 ,0.00000549,0.00001207,0.00000698,0.00000509,0.00000666,0.00004519,-0.
 00084063,-0.00101054,0.00034620,0.00009956,0.00024589,-0.00024290,0.00
 015141,-0.00024929,0.00007906,-0.00004025,0.00002954,-0.00001754,-0.00
 044297,0.00120267,0.00107949,0.00010194,-0.00056913,0.00014583,-0.0002
 6766,0.00007389,0.00016944,-0.00039440,-0.00045907,-0.00036354,0.05456
 127,0.00000589,0.00002141,0.00001465,-0.00001807,-0.00004200,-0.000020
 81,-0.00000014,0.00001654,-0.00000007,0.00004392,0.00006492,0.00003574
 ,-0.00011839,-0.00005784,0.00000084,0.00057260,0.00026743,-0.00008504,
 -0.00129747,0.00087499,0.00032928,0.00030516,0.00024754,0.00093296,0.0
 0010456,-0.00013792,0.00027960,-0.00000243,0.00004411,0.00001312,-0.00
 011849,0.00004992,-0.00020967,-0.00930131,-0.03086310,0.00533276,-0.00
 082791,0.00416257,0.00080788,-0.11034018,-0.44660969,0.07095531,-0.000
 01547,0.00000640,0.00000935,-0.00000091,-0.00000552,0.00000067,0.00000
 163,-0.00000208,-0.00000289,0.00000070,0.00000107,0.00000295,0.0000017
 2,-0.00000515,-0.00000105,-0.00000760,0.00000745,0.00001339,-0.0000083
 2,-0.00000968,-0.00001100,-0.00000396,-0.00000103,-0.00000240,-0.00000
 604,-0.00000671,0.00000543,0.00001014,-0.00000483,-0.00000966,-0.00000
 066,0.00000385,-0.00000481,-0.00007899,-0.00000094,-0.00001612,-0.0000
 1838,-0.00006523,0.00000744,0.00098908,0.00006810,0.00008228,0.0002329
 2,-0.00029379,0.00040511,-0.00012237,0.00021314,-0.00005252,0.00003254
 ,-0.00002897,0.00001429,0.00387070,-0.00090360,-0.00387064,-0.00037788
 ,0.00014182,-0.00132080,0.00018029,0.00008396,0.00125319,-0.00000934,-
 0.00003686,-0.00027522,0.11632246,0.47279972,0.00000252,0.00000164,0.0
 0000028,0.00000507,-0.00000495,0.00000413,0.00000893,-0.00000247,-0.00
 000014,0.00000731,-0.00001004,-0.00001103,0.00003316,0.00000222,0.0000
 4353,0.00002194,-0.00005107,0.00004504,0.00003830,0.00000125,-0.000571
 07,-0.00004053,0.00040044,0.00052266,-0.00061139,0.00023112,-0.0000227
 4,-0.00000578,-0.00004857,-0.00000081,-0.00002213,0.00000350,-0.000062
 53,-0.00628780,-0.03358622,0.00137231,-0.00194873,-0.00252625,0.001934
 22,0.05062769,0.11141322,-0.04867765,-0.00000189,0.00000124,0.00000232
 ,0.00000118,-0.00000027,0.00000091,-0.00000529,0.00000057,-0.00000573,
 -0.00000107,0.00000405,-0.00000225,0.00000625,0.00000371,-0.00000394,-
 0.00000485,0.00000452,0.00000050,-0.00000891,-0.00000879,-0.00000021,-
 0.00001921,0.00000404,-0.00000909,0.00000609,0.00000351,0.00000175,-0.
 00000497,-0.00001589,-0.00004556,-0.00000698,0.00001114,-0.00000401,-0
 .00004734,0.00003627,-0.00001032,0.00005169,0.00003109,0.00000262,0.00
 020204,0.00019663,0.00029459,0.00018010,0.00048419,-0.00012772,0.00013
 601,-0.00015266,-0.00016049,0.00000322,-0.00000451,-0.00001599,0.00252
 407,-0.00375107,-0.00307916,0.00098719,0.00121340,-0.00046611,0.000294
 65,0.00076171,0.00027811,-0.00019392,-0.00003314,-0.00037930,-0.045926
 62,-0.07461355,0.04915287\\0.00000006,-0.00000006,0.00000082,-0.000000
 47,0.00000027,0.00000015,0.00000034,0.00000011,-0.00000003,-0.00000054
 ,0.00000008,0.00000016,0.00000174,-0.00000099,-0.00000169,-0.00000105,
 -0.00000351,0.00000312,-0.00000182,0.00000970,-0.00000223,0.00000424,-
 0.00000866,-0.00000317,0.00000461,0.00000036,0.00000816,-0.00000061,-0
 .00000530,0.00001250,-0.00000449,0.00000661,-0.00001001,0.00000510,-0.
 00000650,-0.00000378,-0.00000151,0.00000043,0.00000048,-0.00000567,0.0
 0000554,0.00000126,0.00000006,0.00000015,0.00000025,0.00000022,0.00000
 015,0.00000058,0.00000017,-0.00000030,0.00000040,0.00000006,-0.0000001
 7,0.00000006,0.00000059,-0.00000005,0.00000007,0.00000018,0.00000006,0
 .00000044,0.00000012,0.00000055,0.00000001,0.00000024,-0.00000028,0.00
 000014,0.00000015,0.00000021,0.00000052,-0.00000117,-0.00000048,0.0000
 0064,0.00000122,-0.00000008,0.00000034,-0.00000116,0.00000116,-0.00000
 152,0.00000093,0.00000076,-0.00000089,-0.00000057,0.00000192,-0.000001
 16,-0.00000082,-0.00000014,-0.00000042,-0.00000094,-0.00000122,-0.0000
 0137,-0.00000061,-0.00000173,-0.00000391,-0.00000044,0.00000030,-0.000
 00091,0.00000081,-0.00000100,-0.00000043,0.00000052,0.00000031,-0.0000
 0018,-0.00000025,0.00000014,0.00000079,0.00000075,0.00000167,0.0000008
 0\\\@


 IT PROBABLY IS NOT POSSIBLE FOR A SCIENTIST TO INTERROGATE NATURE 
 FROM A WHOLLY DISINTERESTED VIEWPOINT.
 EVEN IF HE HAS NO PARTICULAR AXE TO GRIND, HE IS LIKELY TO HAVE 
 A DISTINCTIVE WAY OF VIEWING NATURE.

                                                   -- JOHN LOSEE
 Job cpu time:       0 days  7 hours 30 minutes 32.7 seconds.
 Elapsed time:       0 days  1 hours 52 minutes 40.2 seconds.
 File lengths (MBytes):  RWF=    668 Int=      0 D2E=      0 Chk=     22 Scr=      1
 Normal termination of Gaussian 16 at Mon May 22 10:16:20 2023.
### All Done ###
