### Starting Gaussian ###
 Entering Gaussian System, Link 0=g16
 Initial command:
 /cluster/software/gaussian/gaussian-16-A.03/avx2/g16/l1.exe "/local/scratch/linjian/Gau-26822.inp" -scrdir="/local/scratch/linjian/"
 Entering Link 1 = /cluster/software/gaussian/gaussian-16-A.03/avx2/g16/l1.exe PID=     26823.
  
 Copyright (c) 1988,1990,1992,1993,1995,1998,2003,2009,2016,
            Gaussian, Inc.  All Rights Reserved.
  
 This is part of the Gaussian(R) 16 program.  It is based on
 the Gaussian(R) 09 system (copyright 2009, Gaussian, Inc.),
 the Gaussian(R) 03 system (copyright 2003, Gaussian, Inc.),
 the Gaussian(R) 98 system (copyright 1998, Gaussian, Inc.),
 the Gaussian(R) 94 system (copyright 1995, Gaussian, Inc.),
 the Gaussian 92(TM) system (copyright 1992, Gaussian, Inc.),
 the Gaussian 90(TM) system (copyright 1990, Gaussian, Inc.),
 the Gaussian 88(TM) system (copyright 1988, Gaussian, Inc.),
 the Gaussian 86(TM) system (copyright 1986, Carnegie Mellon
 University), and the Gaussian 82(TM) system (copyright 1983,
 Carnegie Mellon University). Gaussian is a federally registered
 trademark of Gaussian, Inc.
  
 This software contains proprietary and confidential information,
 including trade secrets, belonging to Gaussian, Inc.
  
 This software is provided under written license and may be
 used, copied, transmitted, or stored only in accord with that
 written license.
  
 The following legend is applicable only to US Government
 contracts under FAR:
  
                    RESTRICTED RIGHTS LEGEND
  
 Use, reproduction and disclosure by the US Government is
 subject to restrictions as set forth in subparagraphs (a)
 and (c) of the Commercial Computer Software - Restricted
 Rights clause in FAR 52.227-19.
  
 Gaussian, Inc.
 340 Quinnipiac St., Bldg. 40, Wallingford CT 06492
  
  
 ---------------------------------------------------------------
 Warning -- This program may not be used in any manner that
 competes with the business of Gaussian, Inc. or will provide
 assistance to any competitor of Gaussian, Inc.  The licensee
 of this program is prohibited from giving any competitor of
 Gaussian, Inc. access to this program.  By using this program,
 the user acknowledges that Gaussian, Inc. is engaged in the
 business of creating and licensing software in the field of
 computational chemistry and represents and warrants to the
 licensee that it is not a competitor of Gaussian, Inc. and that
 it will not use this program in any manner prohibited above.
 ---------------------------------------------------------------
  

 Cite this work as:
 Gaussian 16, Revision A.03,
 M. J. Frisch, G. W. Trucks, H. B. Schlegel, G. E. Scuseria, 
 M. A. Robb, J. R. Cheeseman, G. Scalmani, V. Barone, 
 G. A. Petersson, H. Nakatsuji, X. Li, M. Caricato, A. V. Marenich, 
 J. Bloino, B. G. Janesko, R. Gomperts, B. Mennucci, H. P. Hratchian, 
 J. V. Ortiz, A. F. Izmaylov, J. L. Sonnenberg, D. Williams-Young, 
 F. Ding, F. Lipparini, F. Egidi, J. Goings, B. Peng, A. Petrone, 
 T. Henderson, D. Ranasinghe, V. G. Zakrzewski, J. Gao, N. Rega, 
 G. Zheng, W. Liang, M. Hada, M. Ehara, K. Toyota, R. Fukuda, 
 J. Hasegawa, M. Ishida, T. Nakajima, Y. Honda, O. Kitao, H. Nakai, 
 T. Vreven, K. Throssell, J. A. Montgomery, Jr., J. E. Peralta, 
 F. Ogliaro, M. J. Bearpark, J. J. Heyd, E. N. Brothers, K. N. Kudin, 
 V. N. Staroverov, T. A. Keith, R. Kobayashi, J. Normand, 
 K. Raghavachari, A. P. Rendell, J. C. Burant, S. S. Iyengar, 
 J. Tomasi, M. Cossi, J. M. Millam, M. Klene, C. Adamo, R. Cammi, 
 J. W. Ochterski, R. L. Martin, K. Morokuma, O. Farkas, 
 J. B. Foresman, and D. J. Fox, Gaussian, Inc., Wallingford CT, 2016.
 
 ******************************************
 Gaussian 16:  ES64L-G16RevA.03 25-Dec-2016
                22-May-2023 
 ******************************************
 %chk=CCqCrCCCCCCCCCCqCrCO.chk
 %NProcShared=20
 Will use up to   20 processors via shared memory.
 -----------------------------
 # opt freq b3lyp/6-31g(2df,p)
 -----------------------------
 1/18=20,19=15,26=3,38=1/1,3;
 2/9=110,12=2,17=6,18=5,40=1/2;
 3/5=1,6=6,7=104,11=2,25=1,30=1,71=1,74=-5/1,2,3;
 4//1;
 5/5=2,38=5/2;
 6/7=2,8=2,9=2,10=2,28=1/1;
 7//1,2,3,16;
 1/18=20,19=15,26=3/3(2);
 2/9=110/2;
 99//99;
 2/9=110/2;
 3/5=1,6=6,7=104,11=2,25=1,30=1,71=1,74=-5/1,2,3;
 4/5=5,16=3,69=1/1;
 5/5=2,38=5/2;
 7//1,2,3,16;
 1/18=20,19=15,26=3/3(-5);
 2/9=110/2;
 6/7=2,8=2,9=2,10=2,19=2,28=1/1;
 99/9=1/99;
 -------------------
 Title Card Required
 -------------------
 Symbolic Z-matrix:
 Charge =  0 Multiplicity = 1
 C                     0.99352   0.11005   0.03067 
 C                     2.51983   0.1006    0.06834 
 C                     3.00353   0.00101   1.51674 
 C                     3.04824  -1.05406  -0.79262 
 C                     4.5698   -1.07813  -0.83697 
 C                     5.07013  -2.23494  -1.67946 
 C                     6.58879  -2.24006  -1.66972 
 C                     7.09936  -3.39925  -2.50047 
 C                     8.61408  -3.40223  -2.50759 
 C                     9.11884  -4.5578   -3.35437 
 C                     10.63498  -4.5575   -3.34525 
 C                     11.18756  -5.72152  -4.15662 
 C                     12.72214  -5.7527   -4.14385 
 C                     13.27639  -5.88912  -2.7208 
 C                     13.21553  -6.90265  -5.02796 
 O                     14.63678  -6.92302  -5.08309 
 H                     0.59804   0.94512   0.61699 
 H                     0.58441  -0.81951   0.44121 
 H                     0.62922   0.21622  -0.99649 
 H                     2.88122   1.04685  -0.35441 
 H                     2.69943  -0.95025   1.96656 
 H                     2.5942    0.81576   2.12064 
 H                     4.0929    0.07504   1.58759 
 H                     2.6624   -0.95588  -1.816 
 H                     2.67611  -2.01181  -0.40687 
 H                     4.9836   -1.19405   0.16968 
 H                     4.94653  -0.12946  -1.23827 
 H                     4.69807  -2.1473   -2.7068 
 H                     4.69443  -3.18236  -1.27335 
 H                     6.9593   -2.32687  -0.64007 
 H                     6.97021  -1.2924   -2.06997 
 H                     6.72201  -3.31702  -3.52661 
 H                     6.72652  -4.34533  -2.08925 
 H                     8.9918   -3.49328  -1.48091 
 H                     8.99109  -2.45194  -2.90578 
 H                     8.74344  -4.46823  -4.38026 
 H                     8.74335  -5.50526  -2.94813 
 H                     10.96113  -4.62402  -2.3027 
 H                     11.01385  -3.60986  -3.74686 
 H                     10.82964  -5.6369   -5.19124 
 H                     10.79018  -6.66563  -3.76261 
 H                     13.10044  -4.8081   -4.55655 
 H                     12.90062  -6.79985  -2.24261 
 H                     12.99724  -5.0375   -2.09331 
 H                     14.36918  -5.92409  -2.72158 
 H                     12.83965  -6.79995  -6.05144 
 H                     12.8753  -7.86719  -4.63876 
 H                     14.92933  -6.05208  -5.38719 
 

 GradGradGradGradGradGradGradGradGradGradGradGradGradGradGradGradGradGrad
 Berny optimization.
 Initialization pass.
                           ----------------------------
                           !    Initial Parameters    !
                           ! (Angstroms and Degrees)  !
 --------------------------                            --------------------------
 ! Name  Definition              Value          Derivative Info.                !
 --------------------------------------------------------------------------------
 ! R1    R(1,2)                  1.5268         estimate D2E/DX2                !
 ! R2    R(1,17)                 1.0943         estimate D2E/DX2                !
 ! R3    R(1,18)                 1.0954         estimate D2E/DX2                !
 ! R4    R(1,19)                 1.095          estimate D2E/DX2                !
 ! R5    R(2,3)                  1.5303         estimate D2E/DX2                !
 ! R6    R(2,4)                  1.5342         estimate D2E/DX2                !
 ! R7    R(2,20)                 1.0976         estimate D2E/DX2                !
 ! R8    R(3,21)                 1.0953         estimate D2E/DX2                !
 ! R9    R(3,22)                 1.0936         estimate D2E/DX2                !
 ! R10   R(3,23)                 1.0942         estimate D2E/DX2                !
 ! R11   R(4,5)                  1.5224         estimate D2E/DX2                !
 ! R12   R(4,24)                 1.0981         estimate D2E/DX2                !
 ! R13   R(4,25)                 1.0975         estimate D2E/DX2                !
 ! R14   R(5,6)                  1.516          estimate D2E/DX2                !
 ! R15   R(5,26)                 1.0945         estimate D2E/DX2                !
 ! R16   R(5,27)                 1.0968         estimate D2E/DX2                !
 ! R17   R(6,7)                  1.5187         estimate D2E/DX2                !
 ! R18   R(6,28)                 1.0961         estimate D2E/DX2                !
 ! R19   R(6,29)                 1.0971         estimate D2E/DX2                !
 ! R20   R(7,8)                  1.5148         estimate D2E/DX2                !
 ! R21   R(7,30)                 1.0977         estimate D2E/DX2                !
 ! R22   R(7,31)                 1.0972         estimate D2E/DX2                !
 ! R23   R(8,9)                  1.5147         estimate D2E/DX2                !
 ! R24   R(8,32)                 1.0964         estimate D2E/DX2                !
 ! R25   R(8,33)                 1.0969         estimate D2E/DX2                !
 ! R26   R(9,10)                 1.5189         estimate D2E/DX2                !
 ! R27   R(9,34)                 1.0977         estimate D2E/DX2                !
 ! R28   R(9,35)                 1.0972         estimate D2E/DX2                !
 ! R29   R(10,11)                1.5162         estimate D2E/DX2                !
 ! R30   R(10,36)                1.0961         estimate D2E/DX2                !
 ! R31   R(10,37)                1.0971         estimate D2E/DX2                !
 ! R32   R(11,12)                1.5227         estimate D2E/DX2                !
 ! R33   R(11,38)                1.0944         estimate D2E/DX2                !
 ! R34   R(11,39)                1.0967         estimate D2E/DX2                !
 ! R35   R(12,13)                1.5349         estimate D2E/DX2                !
 ! R36   R(12,40)                1.098          estimate D2E/DX2                !
 ! R37   R(12,41)                1.0975         estimate D2E/DX2                !
 ! R38   R(13,14)                1.5333         estimate D2E/DX2                !
 ! R39   R(13,15)                1.5321         estimate D2E/DX2                !
 ! R40   R(13,42)                1.098          estimate D2E/DX2                !
 ! R41   R(14,43)                1.0951         estimate D2E/DX2                !
 ! R42   R(14,44)                1.094          estimate D2E/DX2                !
 ! R43   R(14,45)                1.0933         estimate D2E/DX2                !
 ! R44   R(15,16)                1.4225         estimate D2E/DX2                !
 ! R45   R(15,46)                1.0951         estimate D2E/DX2                !
 ! R46   R(15,47)                1.0943         estimate D2E/DX2                !
 ! R47   R(16,48)                0.9678         estimate D2E/DX2                !
 ! A1    A(2,1,17)             110.6576         estimate D2E/DX2                !
 ! A2    A(2,1,18)             111.0293         estimate D2E/DX2                !
 ! A3    A(2,1,19)             110.8748         estimate D2E/DX2                !
 ! A4    A(17,1,18)            108.1664         estimate D2E/DX2                !
 ! A5    A(17,1,19)            107.9609         estimate D2E/DX2                !
 ! A6    A(18,1,19)            108.0337         estimate D2E/DX2                !
 ! A7    A(1,2,3)              109.861          estimate D2E/DX2                !
 ! A8    A(1,2,4)              109.5802         estimate D2E/DX2                !
 ! A9    A(1,2,20)             108.3193         estimate D2E/DX2                !
 ! A10   A(3,2,4)              111.92           estimate D2E/DX2                !
 ! A11   A(3,2,20)             108.4566         estimate D2E/DX2                !
 ! A12   A(4,2,20)             108.6204         estimate D2E/DX2                !
 ! A13   A(2,3,21)             110.9447         estimate D2E/DX2                !
 ! A14   A(2,3,22)             110.8459         estimate D2E/DX2                !
 ! A15   A(2,3,23)             111.8132         estimate D2E/DX2                !
 ! A16   A(21,3,22)            108.4405         estimate D2E/DX2                !
 ! A17   A(21,3,23)            107.974          estimate D2E/DX2                !
 ! A18   A(22,3,23)            106.6471         estimate D2E/DX2                !
 ! A19   A(2,4,5)              111.8689         estimate D2E/DX2                !
 ! A20   A(2,4,24)             109.5536         estimate D2E/DX2                !
 ! A21   A(2,4,25)             110.0444         estimate D2E/DX2                !
 ! A22   A(5,4,24)             108.9924         estimate D2E/DX2                !
 ! A23   A(5,4,25)             109.5918         estimate D2E/DX2                !
 ! A24   A(24,4,25)            106.6451         estimate D2E/DX2                !
 ! A25   A(4,5,6)              110.9836         estimate D2E/DX2                !
 ! A26   A(4,5,26)             110.6546         estimate D2E/DX2                !
 ! A27   A(4,5,27)             109.8939         estimate D2E/DX2                !
 ! A28   A(6,5,26)             107.7893         estimate D2E/DX2                !
 ! A29   A(6,5,27)             110.079          estimate D2E/DX2                !
 ! A30   A(26,5,27)            107.3528         estimate D2E/DX2                !
 ! A31   A(5,6,7)              109.2098         estimate D2E/DX2                !
 ! A32   A(5,6,28)             110.3535         estimate D2E/DX2                !
 ! A33   A(5,6,29)             109.8899         estimate D2E/DX2                !
 ! A34   A(7,6,28)             110.2243         estimate D2E/DX2                !
 ! A35   A(7,6,29)             109.7031         estimate D2E/DX2                !
 ! A36   A(28,6,29)            107.4416         estimate D2E/DX2                !
 ! A37   A(6,7,8)              109.6403         estimate D2E/DX2                !
 ! A38   A(6,7,30)             110.1085         estimate D2E/DX2                !
 ! A39   A(6,7,31)             110.0223         estimate D2E/DX2                !
 ! A40   A(8,7,30)             109.8852         estimate D2E/DX2                !
 ! A41   A(8,7,31)             110.1047         estimate D2E/DX2                !
 ! A42   A(30,7,31)            107.0468         estimate D2E/DX2                !
 ! A43   A(7,8,9)              109.9463         estimate D2E/DX2                !
 ! A44   A(7,8,32)             109.8697         estimate D2E/DX2                !
 ! A45   A(7,8,33)             109.8687         estimate D2E/DX2                !
 ! A46   A(9,8,32)             109.8715         estimate D2E/DX2                !
 ! A47   A(9,8,33)             109.8748         estimate D2E/DX2                !
 ! A48   A(32,8,33)            107.3717         estimate D2E/DX2                !
 ! A49   A(8,9,10)             109.6592         estimate D2E/DX2                !
 ! A50   A(8,9,34)             109.8678         estimate D2E/DX2                !
 ! A51   A(8,9,35)             110.0978         estimate D2E/DX2                !
 ! A52   A(10,9,34)            110.1177         estimate D2E/DX2                !
 ! A53   A(10,9,35)            110.0245         estimate D2E/DX2                !
 ! A54   A(34,9,35)            107.04           estimate D2E/DX2                !
 ! A55   A(9,10,11)            109.1961         estimate D2E/DX2                !
 ! A56   A(9,10,36)            110.2305         estimate D2E/DX2                !
 ! A57   A(9,10,37)            109.6842         estimate D2E/DX2                !
 ! A58   A(11,10,36)           110.3711         estimate D2E/DX2                !
 ! A59   A(11,10,37)           109.8881         estimate D2E/DX2                !
 ! A60   A(36,10,37)           107.4525         estimate D2E/DX2                !
 ! A61   A(10,11,12)           111.0715         estimate D2E/DX2                !
 ! A62   A(10,11,38)           107.6818         estimate D2E/DX2                !
 ! A63   A(10,11,39)           110.0848         estimate D2E/DX2                !
 ! A64   A(12,11,38)           110.6704         estimate D2E/DX2                !
 ! A65   A(12,11,39)           109.8789         estimate D2E/DX2                !
 ! A66   A(38,11,39)           107.3617         estimate D2E/DX2                !
 ! A67   A(11,12,13)           111.9566         estimate D2E/DX2                !
 ! A68   A(11,12,40)           108.9577         estimate D2E/DX2                !
 ! A69   A(11,12,41)           109.5672         estimate D2E/DX2                !
 ! A70   A(13,12,40)           109.59           estimate D2E/DX2                !
 ! A71   A(13,12,41)           109.9701         estimate D2E/DX2                !
 ! A72   A(40,12,41)           106.651          estimate D2E/DX2                !
 ! A73   A(12,13,14)           111.7728         estimate D2E/DX2                !
 ! A74   A(12,13,15)           109.4141         estimate D2E/DX2                !
 ! A75   A(12,13,42)           108.8951         estimate D2E/DX2                !
 ! A76   A(14,13,15)           110.6328         estimate D2E/DX2                !
 ! A77   A(14,13,42)           107.5078         estimate D2E/DX2                !
 ! A78   A(15,13,42)           108.5323         estimate D2E/DX2                !
 ! A79   A(13,14,43)           110.8072         estimate D2E/DX2                !
 ! A80   A(13,14,44)           111.767          estimate D2E/DX2                !
 ! A81   A(13,14,45)           111.3143         estimate D2E/DX2                !
 ! A82   A(43,14,44)           108.0203         estimate D2E/DX2                !
 ! A83   A(43,14,45)           108.4615         estimate D2E/DX2                !
 ! A84   A(44,14,45)           106.2799         estimate D2E/DX2                !
 ! A85   A(13,15,16)           110.785          estimate D2E/DX2                !
 ! A86   A(13,15,46)           111.0            estimate D2E/DX2                !
 ! A87   A(13,15,47)           110.8662         estimate D2E/DX2                !
 ! A88   A(16,15,46)           107.9419         estimate D2E/DX2                !
 ! A89   A(16,15,47)           108.1676         estimate D2E/DX2                !
 ! A90   A(46,15,47)           107.9582         estimate D2E/DX2                !
 ! A91   A(15,16,48)           107.5371         estimate D2E/DX2                !
 ! D1    D(17,1,2,3)            58.251          estimate D2E/DX2                !
 ! D2    D(17,1,2,4)          -178.398          estimate D2E/DX2                !
 ! D3    D(17,1,2,20)          -60.0547         estimate D2E/DX2                !
 ! D4    D(18,1,2,3)           -61.8764         estimate D2E/DX2                !
 ! D5    D(18,1,2,4)            61.4747         estimate D2E/DX2                !
 ! D6    D(18,1,2,20)          179.8179         estimate D2E/DX2                !
 ! D7    D(19,1,2,3)           178.019          estimate D2E/DX2                !
 ! D8    D(19,1,2,4)           -58.6299         estimate D2E/DX2                !
 ! D9    D(19,1,2,20)           59.7133         estimate D2E/DX2                !
 ! D10   D(1,2,3,21)            64.1138         estimate D2E/DX2                !
 ! D11   D(1,2,3,22)           -56.4283         estimate D2E/DX2                !
 ! D12   D(1,2,3,23)          -175.2827         estimate D2E/DX2                !
 ! D13   D(4,2,3,21)           -57.8542         estimate D2E/DX2                !
 ! D14   D(4,2,3,22)          -178.3962         estimate D2E/DX2                !
 ! D15   D(4,2,3,23)            62.7493         estimate D2E/DX2                !
 ! D16   D(20,2,3,21)         -177.6654         estimate D2E/DX2                !
 ! D17   D(20,2,3,22)           61.7925         estimate D2E/DX2                !
 ! D18   D(20,2,3,23)          -57.0619         estimate D2E/DX2                !
 ! D19   D(1,2,4,5)            177.7136         estimate D2E/DX2                !
 ! D20   D(1,2,4,24)            56.7367         estimate D2E/DX2                !
 ! D21   D(1,2,4,25)           -60.2097         estimate D2E/DX2                !
 ! D22   D(3,2,4,5)            -60.1576         estimate D2E/DX2                !
 ! D23   D(3,2,4,24)           178.8654         estimate D2E/DX2                !
 ! D24   D(3,2,4,25)            61.9191         estimate D2E/DX2                !
 ! D25   D(20,2,4,5)            59.5576         estimate D2E/DX2                !
 ! D26   D(20,2,4,24)          -61.4194         estimate D2E/DX2                !
 ! D27   D(20,2,4,25)         -178.3657         estimate D2E/DX2                !
 ! D28   D(2,4,5,6)            179.3627         estimate D2E/DX2                !
 ! D29   D(2,4,5,26)            59.7409         estimate D2E/DX2                !
 ! D30   D(2,4,5,27)           -58.6435         estimate D2E/DX2                !
 ! D31   D(24,4,5,6)           -59.3355         estimate D2E/DX2                !
 ! D32   D(24,4,5,26)         -178.9573         estimate D2E/DX2                !
 ! D33   D(24,4,5,27)           62.6583         estimate D2E/DX2                !
 ! D34   D(25,4,5,6)            57.0271         estimate D2E/DX2                !
 ! D35   D(25,4,5,26)          -62.5947         estimate D2E/DX2                !
 ! D36   D(25,4,5,27)          179.0209         estimate D2E/DX2                !
 ! D37   D(4,5,6,7)           -178.6911         estimate D2E/DX2                !
 ! D38   D(4,5,6,28)            59.9957         estimate D2E/DX2                !
 ! D39   D(4,5,6,29)           -58.311          estimate D2E/DX2                !
 ! D40   D(26,5,6,7)           -57.3711         estimate D2E/DX2                !
 ! D41   D(26,5,6,28)         -178.6843         estimate D2E/DX2                !
 ! D42   D(26,5,6,29)           63.009          estimate D2E/DX2                !
 ! D43   D(27,5,6,7)            59.4231         estimate D2E/DX2                !
 ! D44   D(27,5,6,28)          -61.8901         estimate D2E/DX2                !
 ! D45   D(27,5,6,29)          179.8032         estimate D2E/DX2                !
 ! D46   D(5,6,7,8)            179.5661         estimate D2E/DX2                !
 ! D47   D(5,6,7,30)            58.5519         estimate D2E/DX2                !
 ! D48   D(5,6,7,31)           -59.2025         estimate D2E/DX2                !
 ! D49   D(28,6,7,8)           -59.0423         estimate D2E/DX2                !
 ! D50   D(28,6,7,30)          179.9435         estimate D2E/DX2                !
 ! D51   D(28,6,7,31)           62.1891         estimate D2E/DX2                !
 ! D52   D(29,6,7,8)            59.0715         estimate D2E/DX2                !
 ! D53   D(29,6,7,30)          -61.9427         estimate D2E/DX2                !
 ! D54   D(29,6,7,31)         -179.697          estimate D2E/DX2                !
 ! D55   D(6,7,8,9)            179.4004         estimate D2E/DX2                !
 ! D56   D(6,7,8,32)            58.3597         estimate D2E/DX2                !
 ! D57   D(6,7,8,33)           -59.5555         estimate D2E/DX2                !
 ! D58   D(30,7,8,9)           -59.4506         estimate D2E/DX2                !
 ! D59   D(30,7,8,32)          179.5087         estimate D2E/DX2                !
 ! D60   D(30,7,8,33)           61.5935         estimate D2E/DX2                !
 ! D61   D(31,7,8,9)            58.2186         estimate D2E/DX2                !
 ! D62   D(31,7,8,32)          -62.8221         estimate D2E/DX2                !
 ! D63   D(31,7,8,33)          179.2627         estimate D2E/DX2                !
 ! D64   D(7,8,9,10)          -179.3927         estimate D2E/DX2                !
 ! D65   D(7,8,9,34)            59.4459         estimate D2E/DX2                !
 ! D66   D(7,8,9,35)           -58.2003         estimate D2E/DX2                !
 ! D67   D(32,8,9,10)          -58.3531         estimate D2E/DX2                !
 ! D68   D(32,8,9,34)         -179.5145         estimate D2E/DX2                !
 ! D69   D(32,8,9,35)           62.8393         estimate D2E/DX2                !
 ! D70   D(33,8,9,10)           59.5668         estimate D2E/DX2                !
 ! D71   D(33,8,9,34)          -61.5945         estimate D2E/DX2                !
 ! D72   D(33,8,9,35)         -179.2408         estimate D2E/DX2                !
 ! D73   D(8,9,10,11)         -179.5528         estimate D2E/DX2                !
 ! D74   D(8,9,10,36)           59.0387         estimate D2E/DX2                !
 ! D75   D(8,9,10,37)          -59.0807         estimate D2E/DX2                !
 ! D76   D(34,9,10,11)         -58.5423         estimate D2E/DX2                !
 ! D77   D(34,9,10,36)        -179.9508         estimate D2E/DX2                !
 ! D78   D(34,9,10,37)          61.9298         estimate D2E/DX2                !
 ! D79   D(35,9,10,11)          59.2106         estimate D2E/DX2                !
 ! D80   D(35,9,10,36)         -62.1979         estimate D2E/DX2                !
 ! D81   D(35,9,10,37)         179.6827         estimate D2E/DX2                !
 ! D82   D(9,10,11,12)         178.6568         estimate D2E/DX2                !
 ! D83   D(9,10,11,38)          57.3331         estimate D2E/DX2                !
 ! D84   D(9,10,11,39)         -59.4135         estimate D2E/DX2                !
 ! D85   D(36,10,11,12)        -60.02           estimate D2E/DX2                !
 ! D86   D(36,10,11,38)        178.6563         estimate D2E/DX2                !
 ! D87   D(36,10,11,39)         61.9097         estimate D2E/DX2                !
 ! D88   D(37,10,11,12)         58.3097         estimate D2E/DX2                !
 ! D89   D(37,10,11,38)        -63.014          estimate D2E/DX2                !
 ! D90   D(37,10,11,39)       -179.7606         estimate D2E/DX2                !
 ! D91   D(10,11,12,13)       -179.1568         estimate D2E/DX2                !
 ! D92   D(10,11,12,40)         59.4626         estimate D2E/DX2                !
 ! D93   D(10,11,12,41)        -56.8737         estimate D2E/DX2                !
 ! D94   D(38,11,12,13)        -59.6021         estimate D2E/DX2                !
 ! D95   D(38,11,12,40)        179.0172         estimate D2E/DX2                !
 ! D96   D(38,11,12,41)         62.681          estimate D2E/DX2                !
 ! D97   D(39,11,12,13)         58.7937         estimate D2E/DX2                !
 ! D98   D(39,11,12,40)        -62.587          estimate D2E/DX2                !
 ! D99   D(39,11,12,41)       -178.9233         estimate D2E/DX2                !
 ! D100  D(11,12,13,14)         59.7391         estimate D2E/DX2                !
 ! D101  D(11,12,13,15)       -177.3666         estimate D2E/DX2                !
 ! D102  D(11,12,13,42)        -58.8883         estimate D2E/DX2                !
 ! D103  D(40,12,13,14)       -179.2453         estimate D2E/DX2                !
 ! D104  D(40,12,13,15)        -56.351          estimate D2E/DX2                !
 ! D105  D(40,12,13,42)         62.1273         estimate D2E/DX2                !
 ! D106  D(41,12,13,14)        -62.3137         estimate D2E/DX2                !
 ! D107  D(41,12,13,15)         60.5806         estimate D2E/DX2                !
 ! D108  D(41,12,13,42)        179.0589         estimate D2E/DX2                !
 ! D109  D(12,13,14,43)         58.4454         estimate D2E/DX2                !
 ! D110  D(12,13,14,44)        -62.0909         estimate D2E/DX2                !
 ! D111  D(12,13,14,45)        179.236          estimate D2E/DX2                !
 ! D112  D(15,13,14,43)        -63.753          estimate D2E/DX2                !
 ! D113  D(15,13,14,44)        175.7107         estimate D2E/DX2                !
 ! D114  D(15,13,14,45)         57.0376         estimate D2E/DX2                !
 ! D115  D(42,13,14,43)        177.8944         estimate D2E/DX2                !
 ! D116  D(42,13,14,44)         57.3582         estimate D2E/DX2                !
 ! D117  D(42,13,14,45)        -61.315          estimate D2E/DX2                !
 ! D118  D(12,13,15,16)        177.4989         estimate D2E/DX2                !
 ! D119  D(12,13,15,46)         57.5888         estimate D2E/DX2                !
 ! D120  D(12,13,15,47)        -62.3955         estimate D2E/DX2                !
 ! D121  D(14,13,15,16)        -58.9318         estimate D2E/DX2                !
 ! D122  D(14,13,15,46)       -178.8419         estimate D2E/DX2                !
 ! D123  D(14,13,15,47)         61.1739         estimate D2E/DX2                !
 ! D124  D(42,13,15,16)         58.795          estimate D2E/DX2                !
 ! D125  D(42,13,15,46)        -61.1151         estimate D2E/DX2                !
 ! D126  D(42,13,15,47)        178.9007         estimate D2E/DX2                !
 ! D127  D(13,15,16,48)        -55.5953         estimate D2E/DX2                !
 ! D128  D(46,15,16,48)         66.1276         estimate D2E/DX2                !
 ! D129  D(47,15,16,48)       -177.2991         estimate D2E/DX2                !
 --------------------------------------------------------------------------------
 Trust Radius=3.00D-01 FncErr=1.00D-07 GrdErr=1.00D-06 EigMax=2.50D+02 EigMin=1.00D-04
 Number of steps in this run=    277 maximum allowed number of steps=    288.
 GradGradGradGradGradGradGradGradGradGradGradGradGradGradGradGradGradGrad

                          Input orientation:                          
 ---------------------------------------------------------------------
 Center     Atomic      Atomic             Coordinates (Angstroms)
 Number     Number       Type             X           Y           Z
 ---------------------------------------------------------------------
      1          6           0        0.993520    0.110050    0.030670
      2          6           0        2.519830    0.100600    0.068340
      3          6           0        3.003530    0.001010    1.516740
      4          6           0        3.048240   -1.054060   -0.792620
      5          6           0        4.569800   -1.078130   -0.836970
      6          6           0        5.070130   -2.234940   -1.679460
      7          6           0        6.588790   -2.240060   -1.669720
      8          6           0        7.099360   -3.399250   -2.500470
      9          6           0        8.614080   -3.402230   -2.507590
     10          6           0        9.118840   -4.557800   -3.354370
     11          6           0       10.634980   -4.557500   -3.345250
     12          6           0       11.187560   -5.721520   -4.156620
     13          6           0       12.722140   -5.752700   -4.143850
     14          6           0       13.276390   -5.889120   -2.720800
     15          6           0       13.215530   -6.902650   -5.027960
     16          8           0       14.636780   -6.923020   -5.083090
     17          1           0        0.598040    0.945120    0.616990
     18          1           0        0.584410   -0.819510    0.441210
     19          1           0        0.629220    0.216220   -0.996490
     20          1           0        2.881220    1.046850   -0.354410
     21          1           0        2.699430   -0.950250    1.966560
     22          1           0        2.594200    0.815760    2.120640
     23          1           0        4.092900    0.075040    1.587590
     24          1           0        2.662400   -0.955880   -1.816000
     25          1           0        2.676110   -2.011810   -0.406870
     26          1           0        4.983600   -1.194050    0.169680
     27          1           0        4.946530   -0.129460   -1.238270
     28          1           0        4.698070   -2.147300   -2.706800
     29          1           0        4.694430   -3.182360   -1.273350
     30          1           0        6.959300   -2.326870   -0.640070
     31          1           0        6.970210   -1.292400   -2.069970
     32          1           0        6.722010   -3.317020   -3.526610
     33          1           0        6.726520   -4.345330   -2.089250
     34          1           0        8.991800   -3.493280   -1.480910
     35          1           0        8.991090   -2.451940   -2.905780
     36          1           0        8.743440   -4.468230   -4.380260
     37          1           0        8.743350   -5.505260   -2.948130
     38          1           0       10.961130   -4.624020   -2.302700
     39          1           0       11.013850   -3.609860   -3.746860
     40          1           0       10.829640   -5.636900   -5.191240
     41          1           0       10.790180   -6.665630   -3.762610
     42          1           0       13.100440   -4.808100   -4.556550
     43          1           0       12.900620   -6.799850   -2.242610
     44          1           0       12.997240   -5.037500   -2.093310
     45          1           0       14.369180   -5.924090   -2.721580
     46          1           0       12.839650   -6.799950   -6.051440
     47          1           0       12.875300   -7.867190   -4.638760
     48          1           0       14.929330   -6.052080   -5.387190
 ---------------------------------------------------------------------
                    Distance matrix (angstroms):
                    1          2          3          4          5
     1  C    0.000000
     2  C    1.526804   0.000000
     3  C    2.502086   1.530277   0.000000
     4  C    2.500966   1.534180   2.539353   0.000000
     5  C    3.867085   2.532068   3.026168   1.522397   0.000000
     6  C    5.004225   3.874736   4.414295   2.503798   1.516024
     7  C    6.302491   5.005595   5.294338   3.835544   2.473838
     8  C    7.483524   6.310296   6.669000   4.982794   3.814906
     9  C    8.766516   7.486329   7.697762   6.279618   4.954656
    10  C    9.963340   8.772831   9.050275   7.462636   6.256131
    11  C   11.231234   9.960229  10.132028   8.737771   7.428586
    12  C   12.468322  11.263965  11.485326   9.967457   8.739330
    13  C   13.760777  12.493630  12.633243  11.264648   9.962314
    14  C   13.943799  12.623772  12.577044  11.476530  10.124186
    15  C   14.971480  13.762841  13.956309  12.470681  11.235572
    16  O   16.178787  14.922766  15.060958  13.680171  12.390979
    17  H    1.094311   2.169679   2.736289   3.462254   4.688541
    18  H    1.095443   2.175198   2.771671   2.765467   4.193323
    19  H    1.095009   2.172933   3.464100   2.739860   4.150778
    20  H    2.142263   1.097593   2.147078   2.152614   2.756757
    21  H    2.789630   2.177104   1.095313   2.783077   3.372598
    22  H    2.725468   2.174608   1.093647   3.491341   4.029550
    23  H    3.468628   2.187081   1.094179   2.834004   2.726853
    24  H    2.707685   2.164997   3.484130   1.098098   2.147468
    25  H    2.743144   2.170835   2.803377   1.097529   2.154717
    26  H    4.200088   2.785059   2.676456   2.165926   1.094537
    27  H    4.158589   2.765688   3.373774   2.158007   1.096787
    28  H    5.129626   4.183203   5.032394   2.753398   2.157740
    29  H    5.122223   4.160149   4.558244   2.733259   2.152613
    30  H    6.479120   5.109144   5.071387   4.115788   2.703300
    31  H    6.488480   5.130176   5.501995   4.131619   2.707059
    32  H    7.564036   6.500931   7.090261   5.108060   4.108382
    33  H    7.563846   6.489817   6.764207   5.103278   4.110261
    34  H    8.901761   7.563236   7.553499   6.461381   5.079537
    35  H    8.896497   7.565584   7.837507   6.460416   5.071009
    36  H   10.023882   8.910531   9.364576   7.547385   6.439484
    37  H   10.023214   8.902638   9.121382   7.542790   6.440108
    38  H   11.278709   9.959890   9.965060   8.811287   7.454582
    39  H   11.336423  10.023554  10.242514   8.871899   7.510186
    40  H   12.531761  11.385738  11.748660  10.044922   8.884123
    41  H   12.500934  11.351508  11.530288  10.012402   8.858479
    42  H   13.849487  12.547281  12.726350  11.371311  10.025955
    43  H   13.953263  12.677441  12.583195  11.497216  10.203748
    44  H   13.232455  11.867979  11.759816  10.795471   9.395571
    45  H   14.929635  13.582623  13.499932  12.474044  11.093373
    46  H   15.002365  13.840809  14.152020  12.511681  11.327857
    47  H   15.053791  13.888061  14.044593  12.561156  11.380961
    48  H   16.171946  14.886704  15.050876  13.683953  12.359795
                    6          7          8          9         10
     6  C    0.000000
     7  C    1.518700   0.000000
     8  C    2.479405   1.514777   0.000000
     9  C    3.822034   2.480819   1.514740   0.000000
    10  C    4.959139   3.822449   2.479855   1.518934   0.000000
    11  C    6.255933   4.954754   3.815207   2.473936   1.516167
    12  C    7.464282   6.281236   4.984892   3.836822   2.505484
    13  C    8.775028   7.488521   6.313088   5.007815   3.877478
    14  C    9.043236   7.690540   6.663610   5.288404   4.411241
    15  C    9.967322   8.771044   7.487961   6.307024   5.008203
    16  O   11.184077   9.917225   8.712037   7.436537   6.247431
    17  H    5.948618   7.159853   8.417795   9.639468  10.893019
    18  H    5.159687   6.521240   7.599547   8.935405  10.060703
    19  H    5.118234   6.480974   7.562823   8.895763  10.021203
    20  H    4.161398   5.126392   6.493542   7.569424   8.906164
    21  H    4.534767   5.478436   6.731370   7.811102   9.084907
    22  H    5.466055   6.297747   7.708270   8.686248  10.070840
    23  H    4.118811   4.711605   6.149937   7.021608   8.434824
    24  H    2.729799   4.133649   5.111279   6.471895   7.551558
    25  H    2.720405   4.117761   5.086580   6.450254   7.528519
    26  H    2.123737   2.655968   4.058208   5.022372   6.390145
    27  H    2.154756   2.708837   4.113314   5.076723   6.441758
    28  H    1.096146   2.158463   2.715906   4.116997   5.076718
    29  H    1.097124   2.152589   2.708607   4.115258   5.079162
    30  H    2.158181   1.097722   2.151907   2.717044   4.124086
    31  H    2.156660   1.097151   2.154258   2.710203   4.114503
    32  H    2.703991   2.150728   1.096411   2.150719   2.704440
    33  H    2.713909   2.151078   1.096895   2.151123   2.714566
    34  H    4.123389   2.716738   2.151668   1.097741   2.158517
    35  H    4.113986   2.709941   2.154139   1.097152   2.156896
    36  H    5.076919   4.117558   2.716492   2.158699   1.096083
    37  H    5.079081   4.115579   2.708945   2.152562   1.097135
    38  H    6.387489   5.020088   4.056161   2.653939   2.122364
    39  H    6.441456   5.076615   4.113524   2.708837   2.154925
    40  H    7.554991   6.474908   5.114911   4.135751   2.732286
    41  H    7.529243   6.451166   5.087670   4.118284   2.720843
    42  H    8.909808   7.571671   6.498099   5.128561   4.166656
    43  H    9.081416   7.807630   6.729427   5.476172   4.534827
    44  H    8.418117   7.005236   6.134707   4.696576   4.106382
    45  H   10.058239   8.672540   7.698960   6.287030   5.461981
    46  H   10.015936   8.891868   7.558113   6.477562   5.113301
    47  H   10.069775   8.944272   7.608959   6.529606   5.168434
    48  H   11.203644   9.895236   8.756660   7.429413   6.334589
                   11         12         13         14         15
    11  C    0.000000
    12  C    1.522698   0.000000
    13  C    2.534266   1.534950   0.000000
    14  C    3.023276   2.540252   1.533256   0.000000
    15  C    3.871754   2.503390   1.532145   2.520701   0.000000
    16  O    4.962880   3.768165   2.432626   2.915480   1.422465
    17  H   12.112735  13.392885  14.646508  14.784730  15.895094
    18  H   11.372063  12.553746  13.881053  14.028029  15.048641
    19  H   11.332268  12.518855  13.848198  14.149181  15.011538
    20  H   10.023705  11.369385  12.547408  12.718767  13.850436
    21  H   10.207866  11.502465  12.682876  12.579184  13.962189
    22  H   11.108646  12.489430  13.600135  13.509409  14.949548
    23  H    9.412340  10.813429  11.885947  11.767324  13.254284
    24  H    8.881008  10.043315  11.385374  11.739349  12.531932
    25  H    8.857665  10.013359  11.352621  11.521881  12.504166
    26  H    7.456918   8.814986   9.963575   9.958359  11.285754
    27  H    7.510351   8.873464  10.026133  10.235143  11.340821
    28  H    6.439222   7.549206   8.913457   9.358899  10.027376
    29  H    6.440024   7.544622   8.904524   9.114368  10.027303
    30  H    5.079797   6.462813   7.564596   7.544845   8.906838
    31  H    5.071268   6.461985   7.568352   7.830793   8.901047
    32  H    4.108895   5.110741   6.505004   7.086955   7.568130
    33  H    4.110792   5.105761   6.492267   6.758916   7.568563
    34  H    2.703399   4.116532   5.109957   5.063111   6.484232
    35  H    2.707192   4.132703   5.133086   5.496564   6.492947
    36  H    2.158040   2.755807   4.187578   5.031935   5.132787
    37  H    2.152723   2.735211   4.161940   4.554940   5.126284
    38  H    1.094399   2.166286   2.786558   2.671276   4.207317
    39  H    1.096747   2.158052   2.769047   3.371485   4.163061
    40  H    2.147248   1.098046   2.166101   3.486155   2.705782
    41  H    2.154643   1.097496   2.170542   2.805276   2.745835
    42  H    2.758358   2.157172   1.098044   2.137648   2.150026
    43  H    3.372992   2.785822   2.177864   1.095125   2.804980
    44  H    2.716252   2.828440   2.189042   1.094041   3.484050
    45  H    4.025020   3.496152   2.182880   1.093350   2.758238
    46  H    4.148809   2.735463   2.179321   3.480448   1.095146
    47  H    4.200744   2.772152   2.177031   2.784278   1.094336
    48  H    4.984449   3.952773   2.550923   3.141401   1.946696
                   16         17         18         19         20
    16  O    0.000000
    17  H   17.072925   0.000000
    18  H   16.286185   1.773416   0.000000
    19  H   16.244408   1.770758   1.772491   0.000000
    20  H   14.969049   2.483320   3.064579   2.484697   0.000000
    21  H   15.095426   3.135220   2.610957   3.798169   3.067305
    22  H   16.025173   2.502469   3.087693   3.733242   2.502330
    23  H   14.305391   3.730034   3.797882   4.323711   2.486754
    24  H   13.771943   3.714138   3.071097   2.485807   2.488987
    25  H   13.749351   3.756341   2.552651   3.082455   3.065978
    26  H   12.393408   4.899926   4.423447   4.723287   3.117099
    27  H   12.443313   4.848307   4.724925   4.337870   2.535827
    28  H   11.279726   6.117261   5.347447   5.006688   4.363173
    29  H   11.285255   6.114727   5.041333   5.305933   4.692377
    30  H    9.990431   7.263040   6.639316   6.831124   5.300408
    31  H    9.977929   7.268480   6.878088   6.605789   5.013489
    32  H    8.835692   8.534534   7.723424   7.483808   6.622528
    33  H    8.841933   8.536443   7.520648   7.692784   6.846284
    34  H    7.523604   9.723980   9.029274   9.161212   7.695516
    35  H    7.523633   9.715617   9.194533   8.982502   7.488760
    36  H    6.422727  10.982914  10.155270   9.961653   8.999400
    37  H    6.426555  10.984697  10.000609  10.118465   9.166357
    38  H    5.150376  12.121615  11.387698  11.484009  10.061786
    39  H    5.088041  12.177033  11.580121  11.403682   9.966611
    40  H    4.019965  13.481252  12.645018  12.486133  11.456213
    41  H    4.075077  13.453034  12.490275  12.579999  11.560702
    42  H    2.666547  14.702893  14.054802  13.908600  12.504834
    43  H    3.331328  14.816050  13.951931  14.190325  12.865628
    44  H    3.896416  14.031309  13.352662  13.482303  11.932181
    45  H    2.578023  15.747266  15.035952  15.148130  13.644439
    46  H    2.045122  15.947134  15.103346  14.962412  13.899595
    47  H    2.047364  16.000338  15.051308  15.118668  14.060491
    48  H    0.967780  17.041035  16.344013  16.219216  14.862054
                   21         22         23         24         25
    21  H    0.000000
    22  H    1.775839   0.000000
    23  H    1.771044   1.754682   0.000000
    24  H    3.782745   4.317464   3.833217   0.000000
    25  H    2.600120   3.793438   3.215604   1.760916   0.000000
    26  H    2.916445   3.681686   2.101048   3.063922   2.515085
    27  H    3.999261   4.208227   2.959052   2.496796   3.064192
    28  H    5.221856   6.042365   4.873070   2.521301   3.065348
    29  H    4.411276   5.649345   4.376925   3.062814   2.488893
    30  H    5.180357   6.045804   4.352917   4.661092   4.301088
    31  H    5.886442   6.415217   4.850418   4.328392   4.660767
    32  H    7.208167   8.124661   6.676326   4.998160   5.273107
    33  H    6.647828   7.838118   6.324142   5.299067   4.968052
    34  H    7.612225   8.512830   6.793219   6.827297   6.575428
    35  H    8.098133   8.767153   7.111137   6.593795   6.805677
    36  H    9.443959  10.392084   8.825195   7.476034   7.657305
    37  H    9.023927  10.171518   8.563830   7.678316   7.448060
    38  H    9.998943  10.916165   9.186300   9.086311   8.891534
    39  H   10.432942  11.176054   9.483375   8.973213   9.122895
    40  H   11.802504  12.764125  11.133843  10.000400  10.124798
    41  H   11.443303  12.560172  10.904808  10.121825   9.937664
    42  H   12.869148  13.659932  11.947020  11.458747  11.563120
    43  H   12.489964  13.537273  11.811455  11.796403  11.438351
    44  H   11.799705  12.658644  10.907537  11.115100  10.886901
    45  H   13.524082  14.405653  12.655451  12.749584  12.545585
    46  H   14.189129  15.157545  13.495403  12.476719  12.573186
    47  H   13.965051  15.059353  13.378229  12.650593  12.498714
    48  H   15.155090  15.990315  14.269456  13.755080  13.829995
                   26         27         28         29         30
    26  H    0.000000
    27  H    1.765517   0.000000
    28  H    3.043739   2.507985   0.000000
    29  H    2.473728   3.063492   1.768090   0.000000
    30  H    2.417099   3.039358   3.068677   2.502507   0.000000
    31  H    2.995384   2.477788   2.509786   3.063613   1.764897
    32  H    4.603437   4.306898   2.477230   3.034204   3.060852
    33  H    4.251012   4.654685   3.054065   2.479432   2.495694
    34  H    4.906788   5.266723   4.663752   4.313600   2.489695
    35  H    5.205835   4.953077   4.308413   4.653991   3.045859
    36  H    6.749712   6.566091   4.955018   5.263158   4.664504
    37  H    6.514829   6.799904   5.262929   4.959285   4.314179
    38  H    7.321764   7.583501   6.747100   6.512256   4.904679
    39  H    7.585469   7.430921   6.565812   6.799712   5.266648
    40  H    9.091455   8.976015   7.479699   7.682150   6.830006
    41  H    8.894800   9.123708   7.657927   7.449010   6.576529
    42  H   10.063881   9.969298   9.005623   9.169702   7.694733
    43  H    9.996166  10.429302   9.441585   9.020380   7.607560
    44  H    9.171241   9.467517   8.809418   8.546960   6.776145
    45  H   10.900540  11.160837  10.382424  10.159490   8.495822
    46  H   11.482420  11.400148   9.955857  10.112453   9.158050
    47  H   11.398720  11.588839  10.164482  10.010008   9.037905
    48  H   12.385346  12.326689  11.274328  11.397901   9.996685
                   31         32         33         34         35
    31  H    0.000000
    32  H    2.506489   0.000000
    33  H    3.062701   1.767327   0.000000
    34  H    3.045930   3.060703   2.495508   0.000000
    35  H    2.475291   2.506495   3.062666   1.764835   0.000000
    36  H    4.309023   2.477939   3.054799   3.068948   2.510149
    37  H    4.654394   3.034609   2.480064   2.502504   3.063647
    38  H    5.203969   4.601776   4.249135   2.414989   2.993776
    39  H    4.953141   4.307454   4.655082   3.039211   2.477852
    40  H    6.596378   5.002545   5.303404   4.662543   4.329846
    41  H    6.806526   5.274362   4.969634   4.301643   4.661123
    42  H    7.491525   6.630872   6.850444   5.298041   5.016302
    43  H    8.095157   7.207911   6.645878   5.176144   5.884602
    44  H    7.095873   6.662801   6.308807   4.336266   4.836783
    45  H    8.753394   8.119366   7.829596   6.030283   6.404187
    46  H    8.979729   7.478709   7.687293   6.828599   6.603922
    47  H    9.203077   7.733298   7.530670   6.647156   6.885872
    48  H    9.849167   8.848865   9.004193   7.553856   7.374354
                   36         37         38         39         40
    36  H    0.000000
    37  H    1.768171   0.000000
    38  H    3.042807   2.472188   0.000000
    39  H    2.508537   3.063606   1.765474   0.000000
    40  H    2.525017   3.066183   3.063801   2.495808   0.000000
    41  H    3.065812   2.489849   2.515697   3.063985   1.760916
    42  H    4.373790   4.696518   3.112936   2.538747   2.499255
    43  H    5.223806   4.410965   2.915385   3.999838   3.786269
    44  H    4.863026   4.364069   2.088194   2.950630   3.828177
    45  H    6.043153   5.645946   3.671573   4.202987   4.325511
    46  H    5.000870   5.299663   4.724041   4.338353   2.476443
    47  H    5.356493   5.050738   4.431633   4.731315   3.076386
    48  H    6.464342   6.671909   5.224945   4.897561   4.125316
                   41         42         43         44         45
    41  H    0.000000
    42  H    3.068886   0.000000
    43  H    2.604299   3.059627   0.000000
    44  H    3.210683   2.476050   1.771300   0.000000
    45  H    3.800377   2.494444   1.775679   1.750138   0.000000
    46  H    3.075242   2.504032   3.809318   4.335650   3.767567
    47  H    2.561076   3.068465   2.623240   3.808061   3.111735
    48  H    4.488682   2.362687   3.816177   3.951201   2.726834
                   46         47         48
    46  H    0.000000
    47  H    1.770858   0.000000
    48  H    2.316743   2.841445   0.000000
 Stoichiometry    C15H32O
 Framework group  C1[X(C15H32O)]
 Deg. of freedom   138
 Full point group                 C1      NOp   1
 Largest Abelian subgroup         C1      NOp   1
 Largest concise Abelian subgroup C1      NOp   1
                         Standard orientation:                         
 ---------------------------------------------------------------------
 Center     Atomic      Atomic             Coordinates (Angstroms)
 Number     Number       Type             X           Y           Z
 ---------------------------------------------------------------------
      1          6           0       -8.020877   -0.600277    0.110556
      2          6           0       -6.778585    0.180517   -0.311584
      3          6           0       -6.828405    1.593256    0.274448
      4          6           0       -5.520076   -0.578251    0.129025
      5          6           0       -4.247058    0.128340   -0.315775
      6          6           0       -3.016843   -0.629520    0.143079
      7          6           0       -1.773327    0.125494   -0.292893
      8          6           0       -0.537611   -0.618217    0.170192
      9          6           0        0.707416    0.121445   -0.273927
     10          6           0        1.942147   -0.637461    0.180674
     11          6           0        3.181306    0.117232   -0.259425
     12          6           0        4.447091   -0.590991    0.204058
     13          6           0        5.714651    0.167488   -0.213162
     14          6           0        5.748256    1.584233    0.372140
     15          6           0        6.950155   -0.626481    0.223429
     16          8           0        8.142929    0.022725   -0.199923
     17          1           0       -8.929623   -0.088216   -0.220339
     18          1           0       -8.066561   -0.707366    1.199795
     19          1           0       -8.019385   -1.603229   -0.328907
     20          1           0       -6.775559    0.258385   -1.406406
     21          1           0       -6.791370    1.564733    1.368763
     22          1           0       -7.745095    2.107692   -0.027378
     23          1           0       -5.993969    2.208340   -0.075715
     24          1           0       -5.533832   -1.590796   -0.295688
     25          1           0       -5.514022   -0.695126    1.220296
     26          1           0       -4.196517    1.136101    0.108342
     27          1           0       -4.239868    0.232189   -1.407611
     28          1           0       -3.013096   -1.641347   -0.278502
     29          1           0       -3.025400   -0.728544    1.235691
     30          1           0       -1.779512    1.138692    0.129464
     31          1           0       -1.762184    0.232258   -1.384781
     32          1           0       -0.536110   -1.633086   -0.244726
     33          1           0       -0.546180   -0.711241    1.263102
     34          1           0        0.710106    1.134611    0.148591
     35          1           0        0.713032    0.228439   -1.365835
     36          1           0        1.941773   -1.649220   -0.240919
     37          1           0        1.933736   -0.736283    1.273317
     38          1           0        3.125022    1.124632    0.164470
     39          1           0        3.190831    0.221606   -1.351153
     40          1           0        4.466292   -1.602684   -0.222338
     41          1           0        4.423352   -0.709852    1.294841
     42          1           0        5.728880    0.261583   -1.307075
     43          1           0        5.698214    1.554634    1.465720
     44          1           0        4.913208    2.192121    0.011457
     45          1           0        6.660146    2.112792    0.081457
     46          1           0        6.942509   -1.633007   -0.208071
     47          1           0        6.984311   -0.726574    1.312642
     48          1           0        8.083989    0.145118   -1.158122
 ---------------------------------------------------------------------
 Rotational constants (GHZ):           2.7362257           0.0791820           0.0779000
 Standard basis: 6-31G(2df,p) (6D, 7F)
 There are   656 symmetry adapted cartesian basis functions of A   symmetry.
 There are   608 symmetry adapted basis functions of A   symmetry.
   608 basis functions,   928 primitive gaussians,   656 cartesian basis functions
    65 alpha electrons       65 beta electrons
       nuclear repulsion energy      1060.9886598093 Hartrees.
 NAtoms=   48 NActive=   48 NUniq=   48 SFac= 1.00D+00 NAtFMM=   60 NAOKFM=F Big=F
 Integral buffers will be    131072 words long.
 Raffenetti 2 integral format.
 Two-electron integral symmetry is turned on.
 One-electron integrals computed using PRISM.
 PrsmSu:  requested number of processors reduced to:  12 ShMem   1 Linda.
 NBasis=   608 RedAO= T EigKep=  4.22D-04  NBF=   608
 NBsUse=   608 1.00D-06 EigRej= -1.00D+00 NBFU=   608
 ExpMin= 1.61D-01 ExpMax= 5.48D+03 ExpMxC= 8.25D+02 IAcc=3 IRadAn=         5 AccDes= 0.00D+00
 Harris functional with IExCor=  402 and IRadAn=       5 diagonalized for initial guess.
 HarFok:  IExCor=  402 AccDes= 0.00D+00 IRadAn=         5 IDoV= 1 UseB2=F ITyADJ=14
 ICtDFT=  3500011 ScaDFX=  1.000000  1.000000  1.000000  1.000000
 FoFCou: FMM=F IPFlag=           0 FMFlag=      100000 FMFlg1=           0
         NFxFlg=           0 DoJE=T BraDBF=F KetDBF=T FulRan=T
         wScrn=  0.000000 ICntrl=       500 IOpCl=  0 I1Cent=   200000004 NGrid=           0
         NMat0=    1 NMatS0=      1 NMatT0=    0 NMatD0=    1 NMtDS0=    0 NMtDT0=    0
 Petite list used in FoFCou.
 Requested convergence on RMS density matrix=1.00D-08 within 128 cycles.
 Requested convergence on MAX density matrix=1.00D-06.
 Requested convergence on             energy=1.00D-06.
 No special actions if energy rises.
 Integral accuracy reduced to 1.0D-05 until final iterations.
 Initial convergence to 1.0D-05 achieved.  Increase integral accuracy.
 SCF Done:  E(RB3LYP) =  -666.160508883     A.U. after   12 cycles
            NFock= 12  Conv=0.22D-08     -V/T= 2.0082

 **********************************************************************

            Population analysis using the SCF density.

 **********************************************************************

 Orbital symmetries:
       Occupied  (A) (A) (A) (A) (A) (A) (A) (A) (A) (A) (A) (A)
                 (A) (A) (A) (A) (A) (A) (A) (A) (A) (A) (A) (A)
                 (A) (A) (A) (A) (A) (A) (A) (A) (A) (A) (A) (A)
                 (A) (A) (A) (A) (A) (A) (A) (A) (A) (A) (A) (A)
                 (A) (A) (A) (A) (A) (A) (A) (A) (A) (A) (A) (A)
                 (A) (A) (A) (A) (A)
       Virtual   (A) (A) (A) (A) (A) (A) (A) (A) (A) (A) (A) (A)
                 (A) (A) (A) (A) (A) (A) (A) (A) (A) (A) (A) (A)
                 (A) (A) (A) (A) (A) (A) (A) (A) (A) (A) (A) (A)
                 (A) (A) (A) (A) (A) (A) (A) (A) (A) (A) (A) (A)
                 (A) (A) (A) (A) (A) (A) (A) (A) (A) (A) (A) (A)
                 (A) (A) (A) (A) (A) (A) (A) (A) (A) (A) (A) (A)
                 (A) (A) (A) (A) (A) (A) (A) (A) (A) (A) (A) (A)
                 (A) (A) (A) (A) (A) (A) (A) (A) (A) (A) (A) (A)
                 (A) (A) (A) (A) (A) (A) (A) (A) (A) (A) (A) (A)
                 (A) (A) (A) (A) (A) (A) (A) (A) (A) (A) (A) (A)
                 (A) (A) (A) (A) (A) (A) (A) (A) (A) (A) (A) (A)
                 (A) (A) (A) (A) (A) (A) (A) (A) (A) (A) (A) (A)
                 (A) (A) (A) (A) (A) (A) (A) (A) (A) (A) (A) (A)
                 (A) (A) (A) (A) (A) (A) (A) (A) (A) (A) (A) (A)
                 (A) (A) (A) (A) (A) (A) (A) (A) (A) (A) (A) (A)
                 (A) (A) (A) (A) (A) (A) (A) (A) (A) (A) (A) (A)
                 (A) (A) (A) (A) (A) (A) (A) (A) (A) (A) (A) (A)
                 (A) (A) (A) (A) (A) (A) (A) (A) (A) (A) (A) (A)
                 (A) (A) (A) (A) (A) (A) (A) (A) (A) (A) (A) (A)
                 (A) (A) (A) (A) (A) (A) (A) (A) (A) (A) (A) (A)
                 (A) (A) (A) (A) (A) (A) (A) (A) (A) (A) (A) (A)
                 (A) (A) (A) (A) (A) (A) (A) (A) (A) (A) (A) (A)
                 (A) (A) (A) (A) (A) (A) (A) (A) (A) (A) (A) (A)
                 (A) (A) (A) (A) (A) (A) (A) (A) (A) (A) (A) (A)
                 (A) (A) (A) (A) (A) (A) (A) (A) (A) (A) (A) (A)
                 (A) (A) (A) (A) (A) (A) (A) (A) (A) (A) (A) (A)
                 (A) (A) (A) (A) (A) (A) (A) (A) (A) (A) (A) (A)
                 (A) (A) (A) (A) (A) (A) (A) (A) (A) (A) (A) (A)
                 (A) (A) (A) (A) (A) (A) (A) (A) (A) (A) (A) (A)
                 (A) (A) (A) (A) (A) (A) (A) (A) (A) (A) (A) (A)
                 (A) (A) (A) (A) (A) (A) (A) (A) (A) (A) (A) (A)
                 (A) (A) (A) (A) (A) (A) (A) (A) (A) (A) (A) (A)
                 (A) (A) (A) (A) (A) (A) (A) (A) (A) (A) (A) (A)
                 (A) (A) (A) (A) (A) (A) (A) (A) (A) (A) (A) (A)
                 (A) (A) (A) (A) (A) (A) (A) (A) (A) (A) (A) (A)
                 (A) (A) (A) (A) (A) (A) (A) (A) (A) (A) (A) (A)
                 (A) (A) (A) (A) (A) (A) (A) (A) (A) (A) (A) (A)
                 (A) (A) (A) (A) (A) (A) (A) (A) (A) (A) (A) (A)
                 (A) (A) (A) (A) (A) (A) (A) (A) (A) (A) (A) (A)
                 (A) (A) (A) (A) (A) (A) (A) (A) (A) (A) (A) (A)
                 (A) (A) (A) (A) (A) (A) (A) (A) (A) (A) (A) (A)
                 (A) (A) (A) (A) (A) (A) (A) (A) (A) (A) (A) (A)
                 (A) (A) (A) (A) (A) (A) (A) (A) (A) (A) (A) (A)
                 (A) (A) (A) (A) (A) (A) (A) (A) (A) (A) (A) (A)
                 (A) (A) (A) (A) (A) (A) (A) (A) (A) (A) (A) (A)
                 (A) (A) (A)
 The electronic state is 1-A.
 Alpha  occ. eigenvalues --  -19.12574 -10.21701 -10.18105 -10.17760 -10.17334
 Alpha  occ. eigenvalues --  -10.16973 -10.16860 -10.16777 -10.16743 -10.16690
 Alpha  occ. eigenvalues --  -10.16664 -10.16646 -10.16603 -10.16544 -10.16481
 Alpha  occ. eigenvalues --  -10.16419  -1.00667  -0.82058  -0.81330  -0.79855
 Alpha  occ. eigenvalues --   -0.77472  -0.74179  -0.70230  -0.67619  -0.67405
 Alpha  occ. eigenvalues --   -0.65883  -0.61768  -0.58424  -0.57695  -0.56927
 Alpha  occ. eigenvalues --   -0.56182  -0.54970  -0.48830  -0.48335  -0.47571
 Alpha  occ. eigenvalues --   -0.46370  -0.45301  -0.44381  -0.43519  -0.43306
 Alpha  occ. eigenvalues --   -0.41743  -0.40895  -0.40565  -0.39867  -0.38646
 Alpha  occ. eigenvalues --   -0.37971  -0.37585  -0.36876  -0.36154  -0.35713
 Alpha  occ. eigenvalues --   -0.35129  -0.34598  -0.33817  -0.33230  -0.32973
 Alpha  occ. eigenvalues --   -0.32635  -0.32296  -0.32149  -0.32052  -0.31701
 Alpha  occ. eigenvalues --   -0.31639  -0.31091  -0.29873  -0.27179  -0.25381
 Alpha virt. eigenvalues --    0.07494   0.08423   0.08961   0.09853   0.10362
 Alpha virt. eigenvalues --    0.10895   0.11347   0.11600   0.12401   0.12773
 Alpha virt. eigenvalues --    0.13514   0.14666   0.15183   0.15421   0.15643
 Alpha virt. eigenvalues --    0.15715   0.16651   0.16937   0.17694   0.18268
 Alpha virt. eigenvalues --    0.18441   0.18974   0.19539   0.20108   0.20333
 Alpha virt. eigenvalues --    0.20541   0.20905   0.21126   0.21325   0.21523
 Alpha virt. eigenvalues --    0.22256   0.22739   0.22833   0.23181   0.23769
 Alpha virt. eigenvalues --    0.24174   0.24704   0.24891   0.25332   0.25769
 Alpha virt. eigenvalues --    0.26763   0.27140   0.29202   0.29867   0.30317
 Alpha virt. eigenvalues --    0.36118   0.36150   0.40116   0.44044   0.46626
 Alpha virt. eigenvalues --    0.47211   0.47667   0.48136   0.48436   0.48792
 Alpha virt. eigenvalues --    0.48977   0.50781   0.51518   0.52624   0.53242
 Alpha virt. eigenvalues --    0.53709   0.53965   0.55024   0.56328   0.56659
 Alpha virt. eigenvalues --    0.57840   0.58508   0.59599   0.59862   0.60671
 Alpha virt. eigenvalues --    0.61162   0.61556   0.62283   0.62668   0.63392
 Alpha virt. eigenvalues --    0.64270   0.64723   0.65285   0.65869   0.66655
 Alpha virt. eigenvalues --    0.67144   0.67951   0.68386   0.69619   0.70206
 Alpha virt. eigenvalues --    0.70978   0.71380   0.71574   0.72405   0.72706
 Alpha virt. eigenvalues --    0.73025   0.74041   0.74141   0.74536   0.74759
 Alpha virt. eigenvalues --    0.75308   0.75418   0.75682   0.76135   0.77092
 Alpha virt. eigenvalues --    0.77455   0.78198   0.78806   0.79369   0.79743
 Alpha virt. eigenvalues --    0.80200   0.80615   0.80920   0.81488   0.82013
 Alpha virt. eigenvalues --    0.82419   0.83086   0.83855   0.84575   0.85695
 Alpha virt. eigenvalues --    0.86177   0.86285   0.86829   0.87315   0.87689
 Alpha virt. eigenvalues --    0.88047   0.88715   0.89119   0.89539   0.90560
 Alpha virt. eigenvalues --    0.91273   0.92509   0.93320   0.94124   0.98854
 Alpha virt. eigenvalues --    1.01649   1.02999   1.05886   1.07366   1.08033
 Alpha virt. eigenvalues --    1.09022   1.09460   1.09945   1.11173   1.11511
 Alpha virt. eigenvalues --    1.12824   1.15787   1.16974   1.17744   1.19385
 Alpha virt. eigenvalues --    1.19422   1.20716   1.22342   1.22616   1.24031
 Alpha virt. eigenvalues --    1.24290   1.25197   1.25545   1.26975   1.27217
 Alpha virt. eigenvalues --    1.29935   1.32982   1.33869   1.34232   1.36453
 Alpha virt. eigenvalues --    1.37053   1.37847   1.38311   1.38757   1.39853
 Alpha virt. eigenvalues --    1.40324   1.41112   1.41742   1.42677   1.44699
 Alpha virt. eigenvalues --    1.45427   1.45674   1.47124   1.48060   1.48748
 Alpha virt. eigenvalues --    1.50580   1.52005   1.52344   1.55874   1.56038
 Alpha virt. eigenvalues --    1.56816   1.58534   1.59337   1.60752   1.62304
 Alpha virt. eigenvalues --    1.62865   1.63866   1.65445   1.65972   1.66511
 Alpha virt. eigenvalues --    1.68114   1.68663   1.70731   1.71787   1.72574
 Alpha virt. eigenvalues --    1.73767   1.74712   1.78440   1.79805   1.80691
 Alpha virt. eigenvalues --    1.81540   1.83984   1.84765   1.85148   1.86230
 Alpha virt. eigenvalues --    1.87401   1.87499   1.88170   1.88834   1.89795
 Alpha virt. eigenvalues --    1.91171   1.91959   1.92935   1.93707   1.94167
 Alpha virt. eigenvalues --    1.94607   1.95402   1.95808   1.96385   1.97147
 Alpha virt. eigenvalues --    1.97996   1.99354   1.99769   2.02623   2.03119
 Alpha virt. eigenvalues --    2.13752   2.14796   2.16223   2.16450   2.18557
 Alpha virt. eigenvalues --    2.20205   2.20624   2.21372   2.22154   2.23165
 Alpha virt. eigenvalues --    2.23723   2.25868   2.27128   2.27637   2.28158
 Alpha virt. eigenvalues --    2.29388   2.30202   2.30410   2.31078   2.32755
 Alpha virt. eigenvalues --    2.36071   2.37751   2.38797   2.39813   2.41073
 Alpha virt. eigenvalues --    2.42200   2.43407   2.43818   2.45799   2.47090
 Alpha virt. eigenvalues --    2.50486   2.51033   2.54885   2.55521   2.57520
 Alpha virt. eigenvalues --    2.57890   2.59146   2.61751   2.64668   2.66883
 Alpha virt. eigenvalues --    2.67684   2.72459   2.73100   2.73705   2.74424
 Alpha virt. eigenvalues --    2.74609   2.75389   2.76070   2.76212   2.76902
 Alpha virt. eigenvalues --    2.77311   2.78503   2.78557   2.79026   2.80479
 Alpha virt. eigenvalues --    2.80602   2.81199   2.81701   2.82692   2.82970
 Alpha virt. eigenvalues --    2.83101   2.83307   2.83782   2.84921   2.85623
 Alpha virt. eigenvalues --    2.85862   2.86310   2.86926   2.87742   2.88472
 Alpha virt. eigenvalues --    2.89235   2.90836   2.91149   2.91425   2.91837
 Alpha virt. eigenvalues --    2.93050   2.93675   2.93936   2.94818   2.95089
 Alpha virt. eigenvalues --    2.95745   2.96565   2.97278   2.97453   2.98214
 Alpha virt. eigenvalues --    2.98506   2.99235   2.99414   3.00504   3.01256
 Alpha virt. eigenvalues --    3.01607   3.03869   3.05483   3.05995   3.06773
 Alpha virt. eigenvalues --    3.07952   3.10912   3.12794   3.13503   3.14526
 Alpha virt. eigenvalues --    3.16239   3.16573   3.17821   3.20026   3.21858
 Alpha virt. eigenvalues --    3.23044   3.23385   3.24291   3.25047   3.25714
 Alpha virt. eigenvalues --    3.28274   3.28828   3.29357   3.32534   3.34044
 Alpha virt. eigenvalues --    3.36674   3.38064   3.39722   3.40595   3.41910
 Alpha virt. eigenvalues --    3.42980   3.44407   3.46013   3.47107   3.48179
 Alpha virt. eigenvalues --    3.49532   3.50120   3.51352   3.52579   3.53318
 Alpha virt. eigenvalues --    3.54606   3.55291   3.55800   3.56900   3.57832
 Alpha virt. eigenvalues --    3.58756   3.59777   3.60588   3.62426   3.63183
 Alpha virt. eigenvalues --    3.63779   3.65092   3.65607   3.66374   3.67688
 Alpha virt. eigenvalues --    3.68008   3.68849   3.69956   3.71170   3.73191
 Alpha virt. eigenvalues --    3.74583   3.75510   3.76617   3.77196   3.77913
 Alpha virt. eigenvalues --    3.79072   3.80103   3.80786   3.81094   3.81741
 Alpha virt. eigenvalues --    3.82578   3.82893   3.83460   3.85202   3.85897
 Alpha virt. eigenvalues --    3.89437   3.91681   3.93337   3.97377   3.98422
 Alpha virt. eigenvalues --    3.99021   4.04032   4.04959   4.07106   4.10648
 Alpha virt. eigenvalues --    4.13926   4.15511   4.19878   4.23937   4.24529
 Alpha virt. eigenvalues --    4.27003   4.29374   4.31388   4.32703   4.37270
 Alpha virt. eigenvalues --    4.37446   4.40736   4.41967   4.42261   4.43037
 Alpha virt. eigenvalues --    4.44435   4.45477   4.45614   4.46868   4.47454
 Alpha virt. eigenvalues --    4.48926   4.49811   4.50276   4.51835   4.52882
 Alpha virt. eigenvalues --    4.53617   4.54594   4.55358   4.55645   4.55900
 Alpha virt. eigenvalues --    4.56651   4.57125   4.59133   4.59799   4.60432
 Alpha virt. eigenvalues --    4.61113   4.61613   4.62012   4.62275   4.63064
 Alpha virt. eigenvalues --    4.63463   4.64226   4.65205   4.65789   4.66403
 Alpha virt. eigenvalues --    4.66585   4.66998   4.67368   4.67594   4.68861
 Alpha virt. eigenvalues --    4.69184   4.71071   4.71417   4.72254   4.72849
 Alpha virt. eigenvalues --    4.73490   4.74403   4.75551   4.76033   4.76878
 Alpha virt. eigenvalues --    4.77832   4.78427   4.78772   4.79828   4.79847
 Alpha virt. eigenvalues --    4.80444   4.81268   4.81393   4.82413   4.83846
 Alpha virt. eigenvalues --    4.85172   4.85323   4.85924   4.86274   4.86861
 Alpha virt. eigenvalues --    4.88148   4.89221   4.90170   4.90789   4.92770
 Alpha virt. eigenvalues --    4.93724   4.94046   4.94554   4.95563   4.96459
 Alpha virt. eigenvalues --    4.97185   4.97405   4.99157   5.01316   5.03156
 Alpha virt. eigenvalues --    5.04839   5.06359   5.14309   5.19076   5.20796
 Alpha virt. eigenvalues --    5.22951   5.24681   5.27029   5.28349   5.31460
 Alpha virt. eigenvalues --    5.34958   5.36088   5.37657   5.38956   5.39667
 Alpha virt. eigenvalues --    5.44906   5.45447   5.47522   5.49416   5.49729
 Alpha virt. eigenvalues --    5.52011   5.52792   5.53904   5.54214   5.58511
 Alpha virt. eigenvalues --    5.60717   5.65101   5.69724   5.70762   5.73446
 Alpha virt. eigenvalues --    5.85757   5.97232   6.06129   6.10909   6.21195
 Alpha virt. eigenvalues --    6.55479   7.04370  11.12786  11.21584  11.34850
 Alpha virt. eigenvalues --   11.52119  11.74033  11.83580  11.84265  11.97345
 Alpha virt. eigenvalues --   12.16015  12.27086  12.33254  12.41940  12.52783
 Alpha virt. eigenvalues --   12.63663  12.73038  13.20193
          Condensed to atoms (all electrons):
               1          2          3          4          5          6
     1  C    5.010972   0.401431  -0.045649  -0.034106   0.002278  -0.000165
     2  C    0.401431   4.578330   0.415433   0.429247  -0.030440   0.002091
     3  C   -0.045649   0.415433   4.987654  -0.033742  -0.004383   0.000594
     4  C   -0.034106   0.429247  -0.033742   4.825308   0.427280  -0.036197
     5  C    0.002278  -0.030440  -0.004383   0.427280   4.806851   0.425861
     6  C   -0.000165   0.002091   0.000594  -0.036197   0.425861   4.811912
     7  C    0.000001  -0.000149   0.000008   0.002185  -0.038182   0.426098
     8  C   -0.000000   0.000001   0.000000  -0.000173   0.002114  -0.038448
     9  C    0.000000  -0.000000   0.000000   0.000001  -0.000178   0.002202
    10  C   -0.000000   0.000000  -0.000000  -0.000000   0.000001  -0.000182
    11  C    0.000000  -0.000000   0.000000   0.000000  -0.000000   0.000001
    12  C   -0.000000   0.000000   0.000000  -0.000000   0.000000  -0.000000
    13  C    0.000000  -0.000000   0.000000   0.000000  -0.000000   0.000000
    14  C    0.000000   0.000000   0.000000   0.000000   0.000000  -0.000000
    15  C    0.000000   0.000000   0.000000  -0.000000   0.000000  -0.000000
    16  O    0.000000   0.000000   0.000000   0.000000   0.000000   0.000000
    17  H    0.366654  -0.021185  -0.003394   0.003775  -0.000174   0.000001
    18  H    0.372915  -0.024818  -0.006138  -0.006867   0.000195   0.000002
    19  H    0.367567  -0.022332   0.005169  -0.003490   0.000181   0.000005
    20  H   -0.043153   0.365033  -0.048420  -0.043325  -0.003985   0.000128
    21  H   -0.005098  -0.026549   0.372474  -0.006873  -0.000318  -0.000058
    22  H   -0.004555  -0.024826   0.370745   0.004085   0.000147  -0.000009
    23  H    0.005110  -0.023037   0.370933  -0.003304  -0.000789  -0.000067
    24  H   -0.003960  -0.028638   0.005361   0.356173  -0.032114  -0.002396
    25  H   -0.004379  -0.028423  -0.009135   0.356705  -0.033539  -0.003318
    26  H    0.000127  -0.005936   0.000905  -0.031207   0.363992  -0.031714
    27  H    0.000146  -0.002096  -0.001093  -0.032910   0.362186  -0.032731
    28  H    0.000001   0.000048  -0.000002  -0.002715  -0.032457   0.362455
    29  H    0.000007   0.000199  -0.000014  -0.003202  -0.031296   0.362078
    30  H    0.000000   0.000013  -0.000012   0.000189  -0.003850  -0.031513
    31  H    0.000000   0.000007   0.000000   0.000183  -0.002583  -0.032709
    32  H    0.000000   0.000000  -0.000000   0.000009   0.000192  -0.003192
    33  H    0.000000   0.000000   0.000000   0.000009   0.000213  -0.003195
    34  H    0.000000   0.000000   0.000000   0.000000   0.000011   0.000180
    35  H    0.000000   0.000000  -0.000000   0.000000   0.000010   0.000186
    36  H    0.000000   0.000000   0.000000   0.000000   0.000000   0.000010
    37  H    0.000000   0.000000  -0.000000   0.000000   0.000000   0.000010
    38  H    0.000000   0.000000   0.000000   0.000000   0.000000   0.000000
    39  H    0.000000   0.000000   0.000000   0.000000   0.000000   0.000000
    40  H    0.000000   0.000000  -0.000000   0.000000   0.000000   0.000000
    41  H    0.000000   0.000000  -0.000000   0.000000   0.000000   0.000000
    42  H    0.000000   0.000000   0.000000   0.000000   0.000000   0.000000
    43  H    0.000000   0.000000   0.000000  -0.000000   0.000000  -0.000000
    44  H    0.000000   0.000000   0.000000  -0.000000   0.000000  -0.000000
    45  H    0.000000   0.000000   0.000000   0.000000  -0.000000   0.000000
    46  H    0.000000   0.000000   0.000000   0.000000   0.000000   0.000000
    47  H    0.000000   0.000000   0.000000  -0.000000   0.000000   0.000000
    48  H    0.000000   0.000000   0.000000   0.000000   0.000000  -0.000000
               7          8          9         10         11         12
     1  C    0.000001  -0.000000   0.000000  -0.000000   0.000000  -0.000000
     2  C   -0.000149   0.000001  -0.000000   0.000000  -0.000000   0.000000
     3  C    0.000008   0.000000   0.000000  -0.000000   0.000000   0.000000
     4  C    0.002185  -0.000173   0.000001  -0.000000   0.000000  -0.000000
     5  C   -0.038182   0.002114  -0.000178   0.000001  -0.000000   0.000000
     6  C    0.426098  -0.038448   0.002202  -0.000182   0.000001  -0.000000
     7  C    4.807098   0.425809  -0.038190   0.002213  -0.000176   0.000001
     8  C    0.425809   4.806809   0.426175  -0.038642   0.002111  -0.000174
     9  C   -0.038190   0.426175   4.805746   0.426750  -0.037664   0.002106
    10  C    0.002213  -0.038642   0.426750   4.816201   0.421753  -0.036077
    11  C   -0.000176   0.002111  -0.037664   0.421753   4.814271   0.415887
    12  C    0.000001  -0.000174   0.002106  -0.036077   0.415887   4.901767
    13  C   -0.000000   0.000001  -0.000130   0.001259  -0.021187   0.364646
    14  C    0.000000   0.000000   0.000008   0.000648  -0.005400  -0.028783
    15  C    0.000000  -0.000000   0.000000  -0.000097   0.001266  -0.031676
    16  O   -0.000000   0.000000  -0.000000   0.000000  -0.000064   0.003181
    17  H   -0.000000   0.000000  -0.000000   0.000000  -0.000000   0.000000
    18  H    0.000000   0.000000  -0.000000   0.000000   0.000000   0.000000
    19  H    0.000000   0.000000   0.000000   0.000000   0.000000   0.000000
    20  H    0.000007   0.000000   0.000000   0.000000   0.000000   0.000000
    21  H    0.000001  -0.000000   0.000000  -0.000000   0.000000  -0.000000
    22  H   -0.000000  -0.000000  -0.000000   0.000000  -0.000000  -0.000000
    23  H    0.000005  -0.000000   0.000000  -0.000000   0.000000  -0.000000
    24  H    0.000184   0.000013   0.000000   0.000000   0.000000   0.000000
    25  H    0.000198   0.000010   0.000000   0.000000   0.000000   0.000000
    26  H   -0.003197   0.000259   0.000013   0.000000   0.000000   0.000000
    27  H   -0.002996   0.000195   0.000010   0.000000   0.000000   0.000000
    28  H   -0.031265  -0.002915   0.000201   0.000010   0.000000   0.000000
    29  H   -0.031654  -0.003057   0.000199   0.000010   0.000000   0.000000
    30  H    0.362142  -0.031552  -0.002892   0.000181   0.000011   0.000000
    31  H    0.363354  -0.032364  -0.003193   0.000187   0.000010   0.000000
    32  H   -0.032322   0.363416  -0.032453  -0.003239   0.000193   0.000010
    33  H   -0.031464   0.362216  -0.031570  -0.003248   0.000216   0.000009
    34  H   -0.002853  -0.031359   0.362204  -0.031559  -0.003912   0.000186
    35  H   -0.003155  -0.032206   0.363324  -0.032844  -0.002638   0.000185
    36  H    0.000197  -0.002854  -0.031126   0.362354  -0.032450  -0.002691
    37  H    0.000195  -0.003015  -0.031395   0.362151  -0.031136  -0.003291
    38  H    0.000012   0.000258  -0.003159  -0.031819   0.365574  -0.031774
    39  H    0.000010   0.000193  -0.002885  -0.032775   0.362907  -0.033932
    40  H    0.000000   0.000013   0.000160  -0.002092  -0.032767   0.356167
    41  H    0.000000   0.000010   0.000174  -0.003071  -0.033547   0.359135
    42  H    0.000000   0.000000   0.000005   0.000154  -0.004976  -0.034910
    43  H    0.000000  -0.000000   0.000001  -0.000054  -0.000494  -0.004911
    44  H    0.000000  -0.000000   0.000005  -0.000026  -0.000591  -0.004639
    45  H   -0.000000  -0.000000  -0.000000  -0.000006   0.000139   0.004975
    46  H    0.000000   0.000000   0.000000   0.000014  -0.000019   0.001656
    47  H   -0.000000   0.000000  -0.000000   0.000007  -0.000075  -0.005275
    48  H    0.000000   0.000000  -0.000000   0.000000  -0.000002  -0.000128
              13         14         15         16         17         18
     1  C    0.000000   0.000000   0.000000   0.000000   0.366654   0.372915
     2  C   -0.000000   0.000000   0.000000   0.000000  -0.021185  -0.024818
     3  C    0.000000   0.000000   0.000000   0.000000  -0.003394  -0.006138
     4  C    0.000000   0.000000  -0.000000   0.000000   0.003775  -0.006867
     5  C   -0.000000   0.000000   0.000000   0.000000  -0.000174   0.000195
     6  C    0.000000  -0.000000  -0.000000   0.000000   0.000001   0.000002
     7  C   -0.000000   0.000000   0.000000  -0.000000  -0.000000   0.000000
     8  C    0.000001   0.000000  -0.000000   0.000000   0.000000   0.000000
     9  C   -0.000130   0.000008   0.000000  -0.000000  -0.000000  -0.000000
    10  C    0.001259   0.000648  -0.000097   0.000000   0.000000   0.000000
    11  C   -0.021187  -0.005400   0.001266  -0.000064  -0.000000   0.000000
    12  C    0.364646  -0.028783  -0.031676   0.003181   0.000000   0.000000
    13  C    4.758289   0.392241   0.409278  -0.051457   0.000000   0.000000
    14  C    0.392241   5.008987  -0.035403  -0.005012   0.000000   0.000000
    15  C    0.409278  -0.035403   4.774656   0.358169   0.000000   0.000000
    16  O   -0.051457  -0.005012   0.358169   7.846360   0.000000   0.000000
    17  H    0.000000   0.000000   0.000000   0.000000   0.614829  -0.033083
    18  H    0.000000   0.000000   0.000000   0.000000  -0.033083   0.606355
    19  H    0.000000   0.000000   0.000000   0.000000  -0.031668  -0.032880
    20  H    0.000000   0.000000   0.000000   0.000000  -0.003044   0.006297
    21  H    0.000000  -0.000000   0.000000   0.000000  -0.000168   0.004851
    22  H    0.000000   0.000000   0.000000   0.000000   0.004439  -0.000133
    23  H    0.000000   0.000000   0.000000   0.000000  -0.000068  -0.000050
    24  H    0.000000  -0.000000   0.000000   0.000000  -0.000063  -0.000244
    25  H    0.000000  -0.000000   0.000000   0.000000  -0.000072   0.005109
    26  H    0.000000   0.000000   0.000000   0.000000   0.000002   0.000006
    27  H    0.000000   0.000000   0.000000   0.000000   0.000003   0.000011
    28  H    0.000000   0.000000   0.000000   0.000000   0.000000   0.000001
    29  H    0.000000  -0.000000   0.000000   0.000000   0.000000  -0.000002
    30  H    0.000000   0.000000   0.000000   0.000000   0.000000   0.000000
    31  H    0.000000  -0.000000   0.000000   0.000000   0.000000  -0.000000
    32  H    0.000000  -0.000000   0.000000  -0.000000   0.000000  -0.000000
    33  H    0.000000   0.000000   0.000000  -0.000000   0.000000  -0.000000
    34  H    0.000014  -0.000013   0.000000   0.000000  -0.000000  -0.000000
    35  H    0.000008   0.000000   0.000000   0.000000  -0.000000   0.000000
    36  H    0.000061  -0.000004  -0.000000   0.000000   0.000000  -0.000000
    37  H    0.000215  -0.000013   0.000008   0.000000   0.000000   0.000000
    38  H   -0.005578   0.000699   0.000078  -0.000001   0.000000   0.000000
[...]
 1,0.00000247,-0.00000387,-0.00000687,-0.00000403,0.00000898,0.00000949
 ,0.00000496,-0.00001068,-0.00001595,-0.00000320,-0.00000024,0.00003246
 ,0.00000623,-0.00004541,-0.00001694,0.00021554,0.00010950,0.00017699,-
 0.00029130,-0.00015184,0.00000599,0.00057738,0.00531550,-0.00125811,-0
 .00066538,0.03239824,-0.05193192,-0.00425614,-0.00080654,0.00014271,-0
 .00026653,-0.00011829,-0.00075469,-0.00047780,0.00000110,-0.00000071,-
 0.00000043,0.,0.00000021,0.00000009,-0.00000023,0.00000027,0.,-0.00000
 012,-0.00000027,-0.00000017,-0.00000005,0.00000019,0.00000006,0.000000
 74,-0.00000067,-0.00000082,0.00000012,0.00000062,0.00000074,0.00000002
 ,0.00000016,-0.00000025,0.00000040,0.00000014,0.00000002,-0.00000033,-
 0.00000013,-0.00000077,-0.00000010,-0.00000065,0.00000009,0.00000040,0
 .00000025,-0.00000003,0.00000087,0.00000048,-0.00000007,-0.00000036,-0
 .00000131,-0.00000191,-0.00000031,-0.00000119,0.00000007,0.00000194,0.
 00000141,-0.00000078,0.00000399,0.00000212,-0.00000075,-0.00000752,-0.
 00000442,0.00000097,-0.00000268,0.00000019,-0.00000059,0.00010145,-0.0
 0000143,-0.00001701,0.00003845,0.00001991,-0.00000730,-0.00009806,-0.0
 0007598,0.00033833,-0.00004288,0.00001360,0.00000164,0.00018374,0.0003
 9424,-0.00018184,0.00043209,0.00028817,-0.00003538,0.00007794,0.000006
 61,-0.00041627,-0.02761304,0.00368250,0.00393127,0.02540310,-0.0028855
 1,-0.00315429,-0.03548470,0.05209504,0.00000014,0.00000061,0.00000047,
 -0.00000036,-0.00000105,-0.00000040,-0.00000005,0.00000042,-0.00000018
 ,0.00000074,0.00000165,0.00000106,-0.00000254,-0.00000152,-0.00000105,
 0.00000167,0.00000486,0.00000311,-0.00001083,-0.00000478,-0.00000520,0
 .00000708,0.00001793,0.00001700,-0.00004504,-0.00002248,-0.00000140,-0
 .00003636,0.00013156,0.00022305,0.00031542,-0.00036968,-0.00067795,-0.
 00102127,0.00059728,-0.00611384,-0.03053797,0.00293288,0.00493020,0.04
 162661,-0.00435484,-0.05116318,-0.00196089,-0.00042555,0.00144988,0.00
 134403,0.00030721,-0.00022044,-0.00000047,0.00000021,0.00000010,-0.000
 00005,-0.00000011,-0.00000004,0.00000006,-0.00000011,-0.00000006,0.,0.
 ,0.00000005,-0.00000003,-0.00000024,0.00000001,-0.00000025,0.00000033,
 0.00000037,-0.00000008,-0.00000017,-0.00000029,-0.00000004,-0.00000008
 ,-0.00000014,-0.00000024,-0.00000014,0.00000006,0.00000003,0.00000018,
 0.00000018,0.00000004,0.00000009,0.00000009,0.00000009,-0.00000022,-0.
 00000001,-0.00000055,-0.00000052,0.00000008,-0.00000007,0.00000068,0.0
 0000168,0.00000019,0.00000008,0.00000019,0.00000335,-0.00000181,-0.000
 00032,-0.00000148,-0.00000163,-0.00000046,-0.00001074,0.00001538,0.000
 02493,0.00000005,0.00000452,0.00000141,0.00012159,-0.00001894,0.000048
 85,0.00000637,-0.00000845,-0.00001336,-0.00001121,0.00009251,0.0004568
 8,-0.00000326,0.00004126,0.00006521,-0.00206473,0.00007478,-0.00015754
 ,0.00009014,-0.00016615,-0.00001865,0.00077031,0.00016166,0.00097105,0
 .01281905,-0.00252065,-0.00266931,0.01936806,-0.00101863,-0.00340262,-
 0.04152954,0.00423064,0.05677191,0.00000003,0.00000014,-0.00000017,-0.
 00000006,-0.00000074,-0.00000076,-0.00000006,0.00000015,-0.00000036,0.
 00000006,0.00000036,-0.00000036,0.00000049,-0.00000045,-0.00000065,-0.
 00000030,-0.00000063,-0.00000134,0.00000357,0.00000060,-0.00000023,-0.
 00000064,-0.00000590,-0.00000900,0.00002414,0.00000618,0.00000440,-0.0
 0000206,-0.00004523,-0.00003484,0.00025558,-0.00010234,0.00010005,0.00
 082016,0.00003198,0.00103090,0.00392728,-0.00074679,0.00450688,-0.0003
 6736,0.00130359,0.00125971,-0.09249111,0.01262276,-0.09108799,-0.03946
 565,0.00617871,-0.02538009,-0.00000031,0.00000059,0.00000035,-0.000000
 05,-0.00000030,-0.00000003,0.00000035,-0.00000015,0.00000032,0.0000000
 5,0.00000014,0.00000008,-0.00000004,-0.00000025,0.00000016,-0.00000036
 ,0.00000052,0.00000051,0.00000013,-0.00000020,-0.00000021,0.00000034,-
 0.00000001,0.00000070,-0.00000016,-0.00000015,-0.00000005,0.00000021,0
 .00000013,0.00000089,-0.00000017,0.00000016,-0.00000022,0.00000071,-0.
 00000014,0.00000090,-0.00000002,-0.00000001,-0.00000015,-0.00000001,0.
 00000023,0.00000156,-0.00000042,-0.00000021,-0.00000038,0.00000131,-0.
 00000046,0.00000235,-0.00000008,-0.00000023,-0.00000010,0.00000020,-0.
 00000068,0.00000169,-0.00000178,-0.00000057,-0.00000115,0.00000220,-0.
 00000003,0.00000462,0.00000145,0.00000199,-0.00000025,-0.00002630,0.00
 005445,0.00007659,-0.00000612,-0.00001592,-0.00001947,0.00001722,0.000
 27695,0.00020758,-0.00001603,-0.00003152,0.00004349,0.00004491,0.00008
 806,-0.00025146,-0.00000067,0.00004938,-0.00017597,0.00029860,0.000115
 10,0.00053693,0.00003171,0.00020249,0.00040904,0.12004727,-0.00000008,
 -0.00000007,-0.00000001,0.00000015,0.00000058,0.00000001,-0.00000010,-
 0.00000008,0.00000006,-0.00000008,-0.00000010,-0.00000008,0.,0.0000005
 7,-0.00000016,0.00000005,0.00000036,0.00000034,-0.00000100,0.00000074,
 -0.00000148,0.00000040,0.00000336,0.00000194,-0.00001425,0.00000176,-0
 .00000625,0.00002109,0.00000765,0.00004857,-0.00013422,-0.00005945,0.0
 0014468,-0.00134187,0.00044330,-0.00026954,-0.00860193,0.00306637,-0.0
 2331730,0.00200979,-0.00321289,-0.00196868,0.01547051,-0.06001051,0.03
 472977,0.00200695,0.00397921,-0.00024421,0.00000019,-0.00000024,-0.000
 00021,-0.00000007,-0.00000002,0.00000009,0.00000004,0.00000014,0.00000
 009,-0.00000011,-0.00000029,0.00000001,-0.00000008,-0.00000009,0.00000
 009,0.00000015,-0.00000015,-0.00000018,0.00000007,0.00000015,0.0000000
 4,0.00000009,0.00000017,-0.00000006,-0.00000009,-0.00000015,0.00000018
 ,-0.00000005,-0.00000008,0.00000004,-0.00000009,-0.00000047,0.,0.00000
 028,0.00000032,-0.00000003,-0.00000023,-0.00000040,0.00000041,-0.00000
 012,-0.00000036,0.00000040,-0.00000014,-0.00000103,-0.00000012,0.00000
 085,0.00000109,-0.00000045,-0.00000051,-0.00000090,0.00000128,-0.00000
 238,-0.00000165,0.00000169,-0.00000021,-0.00000373,-0.00000130,0.00002
 107,0.00000259,-0.00000073,-0.00000243,-0.00000319,0.00000524,-0.00004
 826,0.00003413,0.00007188,-0.00001449,-0.00003182,-0.00001944,0.000436
 68,0.00013554,0.00033850,0.00015227,0.00001595,0.00007862,-0.00061887,
 0.00112044,0.00090483,0.00006649,0.00021042,-0.00041812,-0.00051935,0.
 00040374,-0.00134574,-0.00014767,-0.00002482,0.00021784,-0.02085514,0.
 05739502,-0.00000016,-0.00000003,-0.00000057,-0.00000013,-0.00000062,-
 0.00000141,-0.00000075,0.00000046,-0.00000056,-0.00000081,0.00000034,-
 0.00000148,0.00000100,-0.00000029,-0.00000196,-0.00000250,-0.00000041,
 -0.00000357,0.00000491,0.00000056,-0.00000324,-0.00000537,-0.00000638,
 -0.00001688,0.00003003,0.00000603,0.00000739,0.00000993,-0.00006539,-0
 .00006886,0.00048017,-0.00019227,0.00049946,-0.00174607,0.00065379,-0.
 00044958,-0.00953074,0.00547799,-0.02043395,0.00211688,-0.00494111,-0.
 00151212,-0.09245705,0.03429686,-0.23482012,0.00199369,-0.00238105,0.0
 1224376,-0.00000018,0.00000067,0.00000034,-0.00000005,-0.00000033,-0.0
 0000019,0.00000076,-0.00000025,0.00000117,0.00000004,0.00000005,0.0000
 0025,-0.00000042,-0.00000046,0.00000030,-0.00000037,0.00000047,0.00000
 073,0.00000118,0.00000002,-0.00000004,0.00000128,-0.00000022,0.0000021
 5,-0.00000020,-0.00000023,-0.00000029,0.00000037,0.00000049,0.00000310
 ,-0.00000037,0.00000012,-0.00000047,0.00000317,-0.00000103,0.00000359,
 -0.00000002,-0.00000008,-0.00000080,-0.00000010,0.00000144,0.00000729,
 -0.00000099,-0.00000008,-0.00000092,0.00000848,-0.00000349,0.00000933,
 -0.00000035,-0.00000056,-0.00000168,-0.00000549,0.00000826,0.00002065,
 -0.00000329,0.00000041,-0.00000287,0.00007179,-0.00002860,0.00003704,0
 .00000550,0.00000182,-0.00000503,-0.00015779,0.00023495,0.00029732,-0.
 00002536,0.00001723,-0.00003868,0.00139074,-0.00036586,0.00073545,0.00
 004483,-0.00004482,0.00006452,-0.00022880,-0.00042395,0.00128089,0.000
 20536,0.00005515,0.00035984,-0.00096655,0.00016334,-0.00148190,0.00003
 488,0.00005444,0.00036491,0.10424281,-0.03352207,0.25113674,0.00000012
 ,0.00000013,0.00000009,-0.00000010,-0.00000035,0.00000002,0.00000005,0
 .00000003,-0.00000009,0.00000029,0.00000030,0.00000030,-0.00000025,-0.
 00000030,0.00000007,0.00000075,0.00000029,0.00000012,0.00000023,-0.000
 00038,0.00000046,0.00000204,-0.00000123,-0.00000122,0.00001295,-0.0000
 0384,0.00000219,0.00000273,-0.00003130,-0.00001912,0.00008054,0.000119
 43,-0.00003131,0.00096473,0.00013765,-0.00052984,0.00291197,0.00705963
 ,-0.00274823,-0.00010345,-0.00056266,-0.00013074,-0.05753980,-0.043694
 92,0.01396066,-0.02274806,-0.03553371,0.01714443,-0.00000018,0.0000000
 9,0.00000010,0.,0.,0.00000003,-0.00000005,-0.00000003,-0.00000016,0.00
 000003,0.00000005,-0.00000005,0.00000008,0.00000002,-0.00000002,-0.000
 00013,0.00000014,0.00000013,-0.00000009,-0.00000014,-0.00000008,-0.000
 00015,0.00000001,-0.00000023,-0.00000007,-0.00000002,0.00000011,-0.000
 00004,-0.00000005,-0.00000025,0.00000007,-0.00000005,-0.00000003,-0.00
 000024,0.00000019,-0.00000035,-0.00000025,-0.00000014,0.00000035,-0.00
 000009,-0.00000005,-0.00000053,0.00000003,-0.00000062,-0.00000009,-0.0
 0000028,0.00000062,-0.00000057,-0.00000137,-0.00000040,0.00000132,-0.0
 0000071,0.00000025,-0.00000038,0.00000194,-0.00000475,-0.00000214,-0.0
 0000104,0.00000248,-0.00000020,-0.00002069,-0.00000798,0.00001031,0.00
 000259,-0.00002050,-0.00001602,-0.00010070,-0.00008762,0.00005452,0.00
 002511,0.00004207,-0.00006375,-0.00003435,-0.00009419,0.00033868,-0.00
 013209,0.00124761,0.00169652,0.00015121,-0.00016146,-0.00005997,-0.000
 08554,0.00008262,-0.00013146,0.00001682,-0.00006315,0.00021325,0.00538
 684,0.01255700,-0.00461342,0.07871550,-0.00000035,-0.00000114,-0.00000
 042,0.00000029,0.00000058,0.00000100,-0.00000056,-0.00000104,0.0000000
 7,-0.00000182,-0.00000265,-0.00000062,0.00000280,0.00000041,0.00000191
 ,-0.00000372,-0.00000589,-0.00000175,0.00000810,0.00000198,0.00000486,
 -0.00000695,-0.00002071,-0.00000675,0.00002738,0.00001396,0.00001664,0
 .00000853,-0.00003843,-0.00009287,0.00040238,0.00026312,-0.00029496,-0
 .00131305,0.00000844,0.00067826,-0.00460996,-0.02367430,0.00791392,0.0
 0012848,0.00118208,0.00150369,-0.05449785,-0.25950708,0.08096358,-0.00
 328684,0.00342525,0.00014838,0.00000060,-0.00000021,0.00000004,0.00000
 039,0.00000066,-0.00000034,-0.00000016,-0.00000012,0.00000001,0.000000
 32,0.00000102,-0.00000048,0.00000046,0.00000083,-0.00000026,0.00000019
 ,-0.00000022,-0.00000024,0.00000045,0.00000002,0.00000070,0.,-0.000000
 23,0.00000009,0.00000114,0.00000113,-0.00000084,-0.00000034,-0.0000002
 0,-0.00000027,0.00000017,0.00000176,-0.00000041,0.00000011,-0.00000047
 ,0.00000003,0.00000230,0.00000234,-0.00000150,-0.00000057,-0.00000061,
 -0.00000108,0.00000011,0.00000378,-0.00000063,-0.00000015,-0.00000116,
 0.00000038,0.00000493,0.00000504,-0.00000389,-0.00000094,-0.00000127,-
 0.00000275,-0.00000293,0.00000973,0.00000054,-0.00000189,-0.00000503,0
 .00000668,0.00005497,0.00000920,-0.00002250,0.00000434,-0.00000867,-0.
 00001415,-0.00010009,0.00032418,0.00010676,0.00009016,-0.00002067,-0.0
 0008355,0.00098042,0.00053172,-0.00049826,0.00154851,-0.00241811,-0.00
 359495,-0.00010092,0.00043956,-0.00110811,0.00021459,0.00043638,-0.000
 02420,-0.00013240,-0.00002017,-0.00008705,-0.00054103,-0.00375308,0.00
 136471,0.05993949,0.28078652,0.00000018,0.00000029,0.,0.00000011,0.000
 00013,0.00000002,0.00000016,0.00000024,-0.00000006,0.00000042,0.000000
 49,-0.00000012,-0.00000013,0.00000036,0.00000015,0.00000072,0.00000124
 ,-0.00000046,-0.00000131,-0.00000052,0.00000061,0.00000154,0.00000495,
 -0.00000009,-0.00001917,-0.00000260,0.00000680,0.00001492,0.00010115,-
 0.00003278,-0.00008604,-0.00016206,-0.00000468,-0.00109115,0.00022205,
 0.00055811,-0.00451367,-0.02101212,0.00673501,-0.00029863,-0.00052889,
 0.00200344,0.01835982,0.07987741,-0.08210468,0.00616461,0.00515736,-0.
 00093698,-0.00000009,-0.00000008,-0.00000011,-0.00000013,-0.00000019,0
 .00000017,-0.00000003,0.00000011,-0.00000006,-0.00000018,-0.00000044,0
 .00000007,-0.00000008,-0.00000027,0.00000008,-0.00000001,0.00000005,-0
 .00000002,-0.00000012,0.,-0.00000009,-0.00000007,0.00000016,-0.0000002
 5,-0.00000028,-0.00000036,0.00000041,-0.00000002,-0.00000008,-0.000000
 30,-0.00000013,-0.00000071,0.00000006,-0.00000007,0.00000037,-0.000000
 18,-0.00000047,-0.00000072,0.00000084,0.00000004,-0.00000022,-0.000000
 62,-0.00000023,-0.00000141,-0.00000023,-0.00000026,0.00000116,-0.00000
 064,-0.00000100,-0.00000192,0.00000259,0.00000038,-0.00000134,-0.00000
 285,-0.00000252,-0.00000252,-0.00000221,0.00000186,0.00000275,-0.00000
 002,0.00002605,-0.00000154,0.00000932,-0.00000497,-0.00000260,-0.00000
 924,0.00004988,0.00012041,-0.00006430,0.00020255,0.00007738,-0.0000159
 2,0.00017182,0.00025835,0.00011097,0.00099100,-0.00383338,-0.00212554,
 0.00026927,0.00041879,-0.00010417,0.00012980,0.00025873,0.00019076,-0.
 00013021,0.00001142,-0.00011891,0.00517657,0.02591732,-0.00945327,-0.0
 2622925,-0.08592058,0.08431025,-0.00000077,-0.00000386,-0.00000284,0.0
 0000187,0.00000843,0.00000487,-0.00000040,-0.00000280,0.00000016,-0.00
 000603,-0.00000854,-0.00000550,0.00001095,0.00000928,0.00000700,-0.000
 01042,-0.00001510,-0.00001048,0.00002222,0.00001980,0.00001439,-0.0000
 2004,-0.00003732,-0.00002286,0.00005404,0.00004179,0.00003434,-0.00003
 651,-0.00010627,-0.00007433,0.00019744,0.00024335,-0.00001656,-0.00008
 363,0.00005166,-0.00053038,0.00143977,-0.00081426,0.00047843,0.0003322
 6,-0.00006943,0.00011914,-0.02116317,-0.04282601,0.02043746,-0.0712329
 5,-0.07809621,0.04244859,0.00000405,-0.00000323,-0.00000186,0.00000014
 ,0.00000131,0.00000027,-0.00000090,0.00000099,0.00000035,-0.00000013,-
 0.00000079,-0.00000060,-0.00000060,0.00000115,0.00000018,0.00000277,-0
 .00000321,-0.00000295,0.00000167,0.00000240,0.00000304,0.00000021,0.00
 000018,-0.00000047,0.00000137,0.00000059,-0.00000004,-0.00000095,-0.00
 000010,-0.00000183,0.00000008,-0.00000203,0.00000016,0.00000115,-0.000
 00003,0.00000017,0.00000158,0.00000089,-0.00000026,-0.00000015,-0.0000
 0124,-0.00000472,0.,-0.00000345,0.00000044,0.00000153,0.00000032,0.000
 00068,0.00000336,0.00000249,-0.00000124,0.00000005,-0.00000219,-0.0000
 1039,0.00000005,-0.00000714,0.00000147,-0.00000243,-0.00000033,0.00000
 210,0.00000898,0.00000335,-0.00000659,0.00000852,-0.00001843,-0.000047
 07,-0.00003098,0.00003637,0.00003821,-0.00014729,-0.00004787,-0.000045
 46,0.00036355,0.00012501,-0.00017629,-0.00001849,0.00157904,0.00035288
 ,-0.00011180,0.00008043,-0.00022571,0.00002575,-0.00002186,-0.00012417
 ,0.00002535,0.00016561,0.00014076,0.00151497,-0.00044030,-0.00090044,-
 0.00750690,0.00118090,0.00081851,0.09635085,0.00000022,0.00000095,0.00
 000064,0.00000009,-0.00000106,-0.00000098,0.00000066,0.00000046,-0.000
 00008,0.00000163,0.00000143,0.00000098,-0.00000094,-0.00000034,-0.0000
 0090,0.00000284,0.00000104,0.00000128,0.00000041,0.00000075,-0.0000014
 3,0.00000424,-0.00000361,-0.00000037,0.00001764,0.00000873,-0.00000181
 ,0.00000434,-0.00005743,-0.00001239,0.00014433,0.00009499,-0.00001148,
 0.00040371,-0.00059625,-0.00033555,0.00206926,0.00377340,-0.00073500,-
 0.00006844,-0.00038639,-0.00006356,0.00525902,-0.00131650,-0.00126756,
 -0.12664868,-0.40285503,0.18049400,-0.00000073,0.00000058,0.00000025,-
 0.00000025,-0.00000059,0.00000020,0.00000017,0.,-0.00000029,-0.0000001
 7,-0.00000043,0.00000031,0.,-0.00000056,0.00000010,-0.00000038,0.00000
 068,0.00000043,-0.00000101,-0.00000026,-0.00000081,-0.00000027,0.00000
 024,-0.00000041,-0.00000067,-0.00000056,0.00000038,0.00000015,0.,-0.00
 000051,-0.00000016,-0.00000072,0.00000036,-0.00000081,0.00000055,-0.00
 000081,-0.00000107,-0.00000095,0.00000064,0.00000002,0.00000005,-0.000
 00095,0.00000002,-0.00000177,0.00000082,-0.00000146,0.00000106,-0.0000
 0166,-0.00000231,-0.00000166,0.00000125,-0.00000025,-0.00000026,-0.000
 00216,0.00000055,-0.00000568,0.00000232,-0.00000603,0.00000553,-0.0000
 0382,-0.00001521,-0.00000073,0.00000257,0.00000381,-0.00001862,-0.0000
 1815,0.00000080,-0.00006024,0.00000841,-0.00013043,0.00003668,-0.00003
 942,-0.00008445,-0.00015451,-0.00003321,-0.00039485,-0.00058137,0.0009
 3656,0.00002948,-0.00008920,0.00009822,-0.00001047,-0.00001075,-0.0000
 8343,-0.00004515,0.00012712,0.00017023,0.00141441,0.00028195,-0.000360
 00,-0.00092027,0.00203176,-0.00095809,0.11897665,0.39977754,0.00000116
 ,0.00000374,0.00000321,-0.00000170,-0.00000740,-0.00000285,0.00000128,
 0.00000214,-0.00000013,0.00000665,0.00000799,0.00000713,-0.00001071,-0
 .00000844,-0.00000457,0.00001246,0.00001416,0.00001386,-0.00002196,-0.
 00001840,-0.00001017,0.00002512,0.00003515,0.00003131,-0.00005464,-0.0
 0004152,-0.00002965,0.00005557,0.00007273,0.00007903,-0.00017375,-0.00
 015181,-0.00005014,0.00030112,-0.00025524,0.00047505,-0.00034951,0.001
 84370,-0.00023304,0.00029035,-0.00041195,-0.00055574,0.00013387,0.0068
 9207,-0.00354227,0.06266298,0.17272493,-0.08268836,-0.00000362,0.00000
 245,0.00000157,-0.00000016,-0.00000106,0.00000006,-0.00000006,-0.00000
 071,-0.00000192,0.00000016,0.00000076,0.00000038,0.00000083,-0.0000007
 7,-0.00000035,-0.00000209,0.00000257,0.00000221,-0.00000284,-0.0000021
 2,-0.00000272,-0.00000174,-0.00000010,-0.00000222,-0.00000125,-0.00000
 053,0.00000039,0.00000037,-0.00000005,-0.00000177,0.00000041,0.0000016
 6,0.00000067,-0.00000430,0.00000074,-0.00000420,-0.00000169,-0.0000009
 9,0.00000073,-0.00000007,0.00000087,-0.00000272,0.00000085,0.00000301,
 0.00000142,-0.00000931,0.00000131,-0.00000889,-0.00000370,-0.00000232,
 0.00000137,0.00000147,0.00000126,-0.00000690,0.00000237,0.00000768,0.0
 0000445,-0.00003169,0.00000539,-0.00002398,-0.00001119,-0.00000347,0.0
 0000191,0.00002870,-0.00001933,-0.00004436,0.00003012,-0.00002037,0.00
 000583,-0.00020681,0.00003526,-0.00014620,-0.00032875,-0.00005617,0.00
 002170,0.00035661,-0.00087303,0.00002758,-0.00033226,-0.00009882,0.000
 28229,-0.00006507,-0.00001108,0.00006008,-0.00011500,0.00040787,-0.000
 76741,-0.00064386,-0.00134777,0.00122423,0.00115583,-0.00094883,0.0010
 4910,-0.06269057,-0.17778514,0.08483500\\-0.00000169,0.00000193,-0.000
 00402,0.00000403,-0.00000452,0.00000837,0.00000233,0.00000670,-0.00000
 157,0.00000009,0.00000026,-0.00000318,0.00000118,0.00000264,0.00000319
 ,-0.00000487,-0.00000604,-0.00000428,0.00000883,0.00000351,0.00000383,
 -0.00000330,-0.00000513,-0.00000323,0.00000103,0.00000803,0.00000703,-
 0.00000588,-0.00000617,-0.00000509,0.00000450,-0.00000063,0.00000077,0
 .00000033,0.00000357,-0.00000447,0.00000184,-0.00000428,0.00001096,0.0
 0000444,0.00001223,-0.00000285,-0.00001294,-0.00000638,0.00000410,0.00
 000556,0.00000761,-0.00000581,0.00000022,-0.00000108,-0.00000028,0.000
 00044,-0.00000142,0.00000102,-0.00000017,-0.00000015,0.00000006,0.0000
 0066,0.00000274,-0.00000205,-0.00000026,0.00000013,0.00000164,-0.00000
 140,-0.00000224,-0.00000119,-0.00000049,-0.00000159,-0.00000169,-0.000
 00113,-0.00000073,0.00000127,0.00000027,-0.00000170,0.00000088,-0.0000
 0013,0.00000139,-0.00000052,0.00000008,-0.00000088,-0.00000031,0.00000
 101,0.00000056,0.00000134,0.00000003,0.00000223,-0.00000011,-0.0000014
 1,-0.00000025,-0.00000188,-0.00000174,-0.00000072,-0.00000032,0.000000
 35,-0.00000027,0.00000075,0.00000006,0.00000103,-0.00000060,-0.0000004
 7,-0.00000076,-0.00000221,-0.00000026,-0.00000163,-0.00000125,0.000001
 01,0.00000044,0.00000122,0.00000145,0.00000139,-0.00000027,0.00000038,
 0.00000081,-0.00000101,-0.00000098,0.00000098,0.00000121,-0.00000017,-
 0.00000149,0.00000148,-0.00000160,-0.00000297,0.00000152,0.00000097,0.
 00000526,-0.00000421,0.00000171,-0.00000400,0.00000193,-0.00000346,-0.
 00000248,-0.00000388,-0.00000235,-0.00000607,-0.00000105,0.00000243,0.
 00000063,0.00000279,-0.00000816,-0.00000328,0.00000417,0.00000765,0.00
 000277,-0.00000218\\\@


 I DON'T EXACTLY UNDERSTAND WHAT YOU ARE SAYING,
 BUT YOU ARE ABSOLUTELY RIGHT.
     M.S.GORDON, IN A NDSU FACULTY MEETING
 Job cpu time:       0 days 14 hours  7 minutes 59.6 seconds.
 Elapsed time:       0 days  3 hours 32 minutes 12.3 seconds.
 File lengths (MBytes):  RWF=   1231 Int=      0 D2E=      0 Chk=     32 Scr=      1
 Normal termination of Gaussian 16 at Mon May 22 16:58:29 2023.
### All Done ###
