### Starting Gaussian ###
 Entering Gaussian System, Link 0=g16
 Initial command:
 /cluster/software/gaussian/gaussian-16-A.03/avx2/g16/l1.exe "/local/scratch/linjian/Gau-29640.inp" -scrdir="/local/scratch/linjian/"
 Entering Link 1 = /cluster/software/gaussian/gaussian-16-A.03/avx2/g16/l1.exe PID=     29641.
  
 Copyright (c) 1988,1990,1992,1993,1995,1998,2003,2009,2016,
            Gaussian, Inc.  All Rights Reserved.
  
 This is part of the Gaussian(R) 16 program.  It is based on
 the Gaussian(R) 09 system (copyright 2009, Gaussian, Inc.),
 the Gaussian(R) 03 system (copyright 2003, Gaussian, Inc.),
 the Gaussian(R) 98 system (copyright 1998, Gaussian, Inc.),
 the Gaussian(R) 94 system (copyright 1995, Gaussian, Inc.),
 the Gaussian 92(TM) system (copyright 1992, Gaussian, Inc.),
 the Gaussian 90(TM) system (copyright 1990, Gaussian, Inc.),
 the Gaussian 88(TM) system (copyright 1988, Gaussian, Inc.),
 the Gaussian 86(TM) system (copyright 1986, Carnegie Mellon
 University), and the Gaussian 82(TM) system (copyright 1983,
 Carnegie Mellon University). Gaussian is a federally registered
 trademark of Gaussian, Inc.
  
 This software contains proprietary and confidential information,
 including trade secrets, belonging to Gaussian, Inc.
  
 This software is provided under written license and may be
 used, copied, transmitted, or stored only in accord with that
 written license.
  
 The following legend is applicable only to US Government
 contracts under FAR:
  
                    RESTRICTED RIGHTS LEGEND
  
 Use, reproduction and disclosure by the US Government is
 subject to restrictions as set forth in subparagraphs (a)
 and (c) of the Commercial Computer Software - Restricted
 Rights clause in FAR 52.227-19.
  
 Gaussian, Inc.
 340 Quinnipiac St., Bldg. 40, Wallingford CT 06492
  
  
 ---------------------------------------------------------------
 Warning -- This program may not be used in any manner that
 competes with the business of Gaussian, Inc. or will provide
 assistance to any competitor of Gaussian, Inc.  The licensee
 of this program is prohibited from giving any competitor of
 Gaussian, Inc. access to this program.  By using this program,
 the user acknowledges that Gaussian, Inc. is engaged in the
 business of creating and licensing software in the field of
 computational chemistry and represents and warrants to the
 licensee that it is not a competitor of Gaussian, Inc. and that
 it will not use this program in any manner prohibited above.
 ---------------------------------------------------------------
  

 Cite this work as:
 Gaussian 16, Revision A.03,
 M. J. Frisch, G. W. Trucks, H. B. Schlegel, G. E. Scuseria, 
 M. A. Robb, J. R. Cheeseman, G. Scalmani, V. Barone, 
 G. A. Petersson, H. Nakatsuji, X. Li, M. Caricato, A. V. Marenich, 
 J. Bloino, B. G. Janesko, R. Gomperts, B. Mennucci, H. P. Hratchian, 
 J. V. Ortiz, A. F. Izmaylov, J. L. Sonnenberg, D. Williams-Young, 
 F. Ding, F. Lipparini, F. Egidi, J. Goings, B. Peng, A. Petrone, 
 T. Henderson, D. Ranasinghe, V. G. Zakrzewski, J. Gao, N. Rega, 
 G. Zheng, W. Liang, M. Hada, M. Ehara, K. Toyota, R. Fukuda, 
 J. Hasegawa, M. Ishida, T. Nakajima, Y. Honda, O. Kitao, H. Nakai, 
 T. Vreven, K. Throssell, J. A. Montgomery, Jr., J. E. Peralta, 
 F. Ogliaro, M. J. Bearpark, J. J. Heyd, E. N. Brothers, K. N. Kudin, 
 V. N. Staroverov, T. A. Keith, R. Kobayashi, J. Normand, 
 K. Raghavachari, A. P. Rendell, J. C. Burant, S. S. Iyengar, 
 J. Tomasi, M. Cossi, J. M. Millam, M. Klene, C. Adamo, R. Cammi, 
 J. W. Ochterski, R. L. Martin, K. Morokuma, O. Farkas, 
 J. B. Foresman, and D. J. Fox, Gaussian, Inc., Wallingford CT, 2016.
 
 ******************************************
 Gaussian 16:  ES64L-G16RevA.03 25-Dec-2016
                27-May-2023 
 ******************************************
 %chk=CCqCrC.chk
 %NProcShared=20
 Will use up to   20 processors via shared memory.
 -----------------------------
 # opt freq b3lyp/6-31g(2df,p)
 -----------------------------
 1/18=20,19=15,26=3,38=1/1,3;
 2/9=110,12=2,17=6,18=5,40=1/2;
 3/5=1,6=6,7=104,11=2,25=1,30=1,71=1,74=-5/1,2,3;
 4//1;
 5/5=2,38=5/2;
 6/7=2,8=2,9=2,10=2,28=1/1;
 7//1,2,3,16;
 1/18=20,19=15,26=3/3(2);
 2/9=110/2;
 99//99;
 2/9=110/2;
 3/5=1,6=6,7=104,11=2,25=1,30=1,71=1,74=-5/1,2,3;
 4/5=5,16=3,69=1/1;
 5/5=2,38=5/2;
 7//1,2,3,16;
 1/18=20,19=15,26=3/3(-5);
 2/9=110/2;
 6/7=2,8=2,9=2,10=2,19=2,28=1/1;
 99/9=1/99;
 -------------------
 Title Card Required
 -------------------
 Symbolic Z-matrix:
 Charge =  0 Multiplicity = 1
 C                     0.92343   0.07922  -0.00827 
 C                     2.45024   0.07379   0.01812 
 C                     2.97188   1.16217   0.95366 
 C                     2.97188  -1.29531   0.44863 
 H                     0.54345   1.05104  -0.34075 
 H                     0.50877  -0.12483   0.98467 
 H                     0.54345  -0.68272  -0.69705 
 H                     2.81582   0.28194  -0.99471 
 H                     2.63224   0.99777   1.98182 
 H                     2.62169   2.14973   0.63517 
 H                     4.06687   1.17999   0.95751 
 H                     2.63223  -1.5497    1.4583 
 H                     4.06687  -1.31321   0.44514 
 H                     2.62168  -2.07723  -0.23351 
 

 GradGradGradGradGradGradGradGradGradGradGradGradGradGradGradGradGradGrad
 Berny optimization.
 Initialization pass.
                           ----------------------------
                           !    Initial Parameters    !
                           ! (Angstroms and Degrees)  !
 --------------------------                            --------------------------
 ! Name  Definition              Value          Derivative Info.                !
 --------------------------------------------------------------------------------
 ! R1    R(1,2)                  1.527          estimate D2E/DX2                !
 ! R2    R(1,5)                  1.0952         estimate D2E/DX2                !
 ! R3    R(1,6)                  1.0952         estimate D2E/DX2                !
 ! R4    R(1,7)                  1.0952         estimate D2E/DX2                !
 ! R5    R(2,3)                  1.5271         estimate D2E/DX2                !
 ! R6    R(2,4)                  1.5271         estimate D2E/DX2                !
 ! R7    R(2,8)                  1.0967         estimate D2E/DX2                !
 ! R8    R(3,9)                  1.0952         estimate D2E/DX2                !
 ! R9    R(3,10)                 1.0951         estimate D2E/DX2                !
 ! R10   R(3,11)                 1.0951         estimate D2E/DX2                !
 ! R11   R(4,12)                 1.0952         estimate D2E/DX2                !
 ! R12   R(4,13)                 1.0951         estimate D2E/DX2                !
 ! R13   R(4,14)                 1.0952         estimate D2E/DX2                !
 ! A1    A(2,1,5)              110.8126         estimate D2E/DX2                !
 ! A2    A(2,1,6)              111.2366         estimate D2E/DX2                !
 ! A3    A(2,1,7)              110.8123         estimate D2E/DX2                !
 ! A4    A(5,1,6)              108.0113         estimate D2E/DX2                !
 ! A5    A(5,1,7)              107.8221         estimate D2E/DX2                !
 ! A6    A(6,1,7)              108.0118         estimate D2E/DX2                !
 ! A7    A(1,2,3)              110.4627         estimate D2E/DX2                !
 ! A8    A(1,2,4)              110.4633         estimate D2E/DX2                !
 ! A9    A(1,2,8)              108.4606         estimate D2E/DX2                !
 ! A10   A(3,2,4)              110.4629         estimate D2E/DX2                !
 ! A11   A(3,2,8)              108.4598         estimate D2E/DX2                !
 ! A12   A(4,2,8)              108.4605         estimate D2E/DX2                !
 ! A13   A(2,3,9)              111.2361         estimate D2E/DX2                !
 ! A14   A(2,3,10)             110.8126         estimate D2E/DX2                !
 ! A15   A(2,3,11)             110.8119         estimate D2E/DX2                !
 ! A16   A(9,3,10)             108.0118         estimate D2E/DX2                !
 ! A17   A(9,3,11)             108.0117         estimate D2E/DX2                !
 ! A18   A(10,3,11)            107.8226         estimate D2E/DX2                !
 ! A19   A(2,4,12)             111.2361         estimate D2E/DX2                !
 ! A20   A(2,4,13)             110.8123         estimate D2E/DX2                !
 ! A21   A(2,4,14)             110.8116         estimate D2E/DX2                !
 ! A22   A(12,4,13)            108.0121         estimate D2E/DX2                !
 ! A23   A(12,4,14)            108.0117         estimate D2E/DX2                !
 ! A24   A(13,4,14)            107.8228         estimate D2E/DX2                !
 ! D1    D(5,1,2,3)             58.9151         estimate D2E/DX2                !
 ! D2    D(5,1,2,4)           -178.57           estimate D2E/DX2                !
 ! D3    D(5,1,2,8)            -59.8269         estimate D2E/DX2                !
 ! D4    D(6,1,2,3)            -61.2574         estimate D2E/DX2                !
 ! D5    D(6,1,2,4)             61.2575         estimate D2E/DX2                !
 ! D6    D(6,1,2,8)           -179.9993         estimate D2E/DX2                !
 ! D7    D(7,1,2,3)            178.5697         estimate D2E/DX2                !
 ! D8    D(7,1,2,4)            -58.9154         estimate D2E/DX2                !
 ! D9    D(7,1,2,8)             59.8277         estimate D2E/DX2                !
 ! D10   D(1,2,3,9)             61.2577         estimate D2E/DX2                !
 ! D11   D(1,2,3,10)           -58.9151         estimate D2E/DX2                !
 ! D12   D(1,2,3,11)          -178.57           estimate D2E/DX2                !
 ! D13   D(4,2,3,9)            -61.2574         estimate D2E/DX2                !
 ! D14   D(4,2,3,10)           178.5698         estimate D2E/DX2                !
 ! D15   D(4,2,3,11)            58.9149         estimate D2E/DX2                !
 ! D16   D(8,2,3,9)           -179.9999         estimate D2E/DX2                !
 ! D17   D(8,2,3,10)            59.8274         estimate D2E/DX2                !
 ! D18   D(8,2,3,11)           -59.8276         estimate D2E/DX2                !
 ! D19   D(1,2,4,12)           -61.2568         estimate D2E/DX2                !
 ! D20   D(1,2,4,13)           178.5701         estimate D2E/DX2                !
 ! D21   D(1,2,4,14)            58.9153         estimate D2E/DX2                !
 ! D22   D(3,2,4,12)            61.258          estimate D2E/DX2                !
 ! D23   D(3,2,4,13)           -58.9151         estimate D2E/DX2                !
 ! D24   D(3,2,4,14)          -178.57           estimate D2E/DX2                !
 ! D25   D(8,2,4,12)           180.0            estimate D2E/DX2                !
 ! D26   D(8,2,4,13)            59.8269         estimate D2E/DX2                !
 ! D27   D(8,2,4,14)           -59.8279         estimate D2E/DX2                !
 --------------------------------------------------------------------------------
 Trust Radius=3.00D-01 FncErr=1.00D-07 GrdErr=1.00D-06 EigMax=2.50D+02 EigMin=1.00D-04
 Number of steps in this run=     74 maximum allowed number of steps=    100.
 GradGradGradGradGradGradGradGradGradGradGradGradGradGradGradGradGradGrad

                          Input orientation:                          
 ---------------------------------------------------------------------
 Center     Atomic      Atomic             Coordinates (Angstroms)
 Number     Number       Type             X           Y           Z
 ---------------------------------------------------------------------
      1          6           0        0.923430    0.079220   -0.008270
      2          6           0        2.450240    0.073790    0.018120
      3          6           0        2.971880    1.162170    0.953660
      4          6           0        2.971880   -1.295310    0.448630
      5          1           0        0.543450    1.051040   -0.340750
      6          1           0        0.508770   -0.124830    0.984670
      7          1           0        0.543450   -0.682720   -0.697050
      8          1           0        2.815820    0.281940   -0.994710
      9          1           0        2.632240    0.997770    1.981820
     10          1           0        2.621690    2.149730    0.635170
     11          1           0        4.066870    1.179990    0.957510
     12          1           0        2.632230   -1.549700    1.458300
     13          1           0        4.066870   -1.313210    0.445140
     14          1           0        2.621680   -2.077230   -0.233510
 ---------------------------------------------------------------------
                    Distance matrix (angstroms):
                    1          2          3          4          5
     1  C    0.000000
     2  C    1.527048   0.000000
     3  C    2.508832   1.527061   0.000000
     4  C    2.508832   1.527050   2.508837   0.000000
     5  H    1.095154   2.172476   2.754110   3.467817   0.000000
     6  H    1.095221   2.177837   2.779252   2.779258   1.772177
     7  H    1.095151   2.172469   3.467814   2.754110   1.769992
     8  H    2.143665   1.096722   2.143666   2.143666   2.486533
     9  H    2.779249   2.177839   1.095215   2.779252   3.124134
    10  H    2.754109   2.172481   1.095146   3.467814   2.545314
    11  H    3.467801   2.172470   1.095142   2.754101   3.757206
    12  H    2.779245   2.177833   2.779256   1.095221   3.789912
    13  H    3.467803   2.172466   2.754106   1.095142   4.315297
    14  H    2.754099   2.172463   3.467813   1.095150   3.757208
                    6          7          8          9         10
     6  H    0.000000
     7  H    1.772181   0.000000
     8  H    3.066902   2.486531   0.000000
     9  H    2.600704   3.789912   3.066895   0.000000
    10  H    3.124133   3.757215   2.486531   1.772171   0.000000
    11  H    3.789903   4.315292   2.486520   1.772168   1.769984
    12  H    2.600704   3.124130   3.066899   2.600707   3.789912
    13  H    3.789910   3.757207   2.486523   3.124128   3.757208
    14  H    3.124135   2.545303   2.486523   3.789911   4.315298
                   11         12         13         14
    11  H    0.000000
    12  H    3.124130   0.000000
    13  H    2.545303   1.772177   0.000000
    14  H    3.757204   1.772180   1.769991   0.000000
 This structure is nearly, but not quite of a higher symmetry.
 Consider Symm=Loose if the higher symmetry is desired.
 Stoichiometry    C4H10
 Framework group  C1[X(C4H10)]
 Deg. of freedom    36
 Full point group                 C1      NOp   1
 Largest Abelian subgroup         C1      NOp   1
 Largest concise Abelian subgroup C1      NOp   1
                         Standard orientation:                         
 ---------------------------------------------------------------------
 Center     Atomic      Atomic             Coordinates (Angstroms)
 Number     Number       Type             X           Y           Z
 ---------------------------------------------------------------------
      1          6           0       -0.078954    1.335126    0.564985
      2          6           0       -0.090699    0.115999   -0.354507
      3          6           0        1.290468   -0.533993   -0.396947
      4          6           0       -1.140869   -0.891489    0.108086
      5          1           0        0.654863    2.072925    0.223622
      6          1           0        0.175753    1.054560    1.592563
      7          1           0       -1.060453    1.820710    0.579925
      8          1           0       -0.349806    0.447404   -1.367342
      9          1           0        1.595314   -0.883010    0.595400
     10          1           0        2.044192    0.176620   -0.752296
     11          1           0        1.295001   -1.394257   -1.074636
     12          1           0       -0.925055   -1.253591    1.118936
     13          1           0       -1.171676   -1.756949   -0.562261
     14          1           0       -2.137805   -0.438274    0.116382
 ---------------------------------------------------------------------
 Rotational constants (GHZ):           7.8396869           7.8396590           4.5611125
 Standard basis: 6-31G(2df,p) (6D, 7F)
 There are   174 symmetry adapted cartesian basis functions of A   symmetry.
 There are   162 symmetry adapted basis functions of A   symmetry.
   162 basis functions,   246 primitive gaussians,   174 cartesian basis functions
    17 alpha electrons       17 beta electrons
       nuclear repulsion energy       134.8285115334 Hartrees.
 NAtoms=   14 NActive=   14 NUniq=   14 SFac= 1.00D+00 NAtFMM=   60 NAOKFM=F Big=F
 Integral buffers will be    131072 words long.
 Raffenetti 2 integral format.
 Two-electron integral symmetry is turned on.
 One-electron integrals computed using PRISM.
 PrsmSu:  requested number of processors reduced to:  13 ShMem   1 Linda.
 NBasis=   162 RedAO= T EigKep=  9.21D-04  NBF=   162
 NBsUse=   162 1.00D-06 EigRej= -1.00D+00 NBFU=   162
 ExpMin= 1.61D-01 ExpMax= 3.05D+03 ExpMxC= 4.57D+02 IAcc=3 IRadAn=         5 AccDes= 0.00D+00
 Harris functional with IExCor=  402 and IRadAn=       5 diagonalized for initial guess.
 HarFok:  IExCor=  402 AccDes= 0.00D+00 IRadAn=         5 IDoV= 1 UseB2=F ITyADJ=14
 ICtDFT=  3500011 ScaDFX=  1.000000  1.000000  1.000000  1.000000
 FoFCou: FMM=F IPFlag=           0 FMFlag=      100000 FMFlg1=           0
         NFxFlg=           0 DoJE=T BraDBF=F KetDBF=T FulRan=T
         wScrn=  0.000000 ICntrl=       500 IOpCl=  0 I1Cent=   200000004 NGrid=           0
         NMat0=    1 NMatS0=      1 NMatT0=    0 NMatD0=    1 NMtDS0=    0 NMtDT0=    0
 Petite list used in FoFCou.
 Requested convergence on RMS density matrix=1.00D-08 within 128 cycles.
 Requested convergence on MAX density matrix=1.00D-06.
 Requested convergence on             energy=1.00D-06.
 No special actions if energy rises.
 Integral accuracy reduced to 1.0D-05 until final iterations.
 Initial convergence to 1.0D-05 achieved.  Increase integral accuracy.
 SCF Done:  E(RB3LYP) =  -158.473159279     A.U. after   11 cycles
            NFock= 11  Conv=0.55D-08     -V/T= 2.0093

 **********************************************************************

            Population analysis using the SCF density.

 **********************************************************************

 Orbital symmetries:
       Occupied  (A) (A) (A) (A) (A) (A) (A) (A) (A) (A) (A) (A)
                 (A) (A) (A) (A) (A)
       Virtual   (A) (A) (A) (A) (A) (A) (A) (A) (A) (A) (A) (A)
                 (A) (A) (A) (A) (A) (A) (A) (A) (A) (A) (A) (A)
                 (A) (A) (A) (A) (A) (A) (A) (A) (A) (A) (A) (A)
                 (A) (A) (A) (A) (A) (A) (A) (A) (A) (A) (A) (A)
                 (A) (A) (A) (A) (A) (A) (A) (A) (A) (A) (A) (A)
                 (A) (A) (A) (A) (A) (A) (A) (A) (A) (A) (A) (A)
                 (A) (A) (A) (A) (A) (A) (A) (A) (A) (A) (A) (A)
                 (A) (A) (A) (A) (A) (A) (A) (A) (A) (A) (A) (A)
                 (A) (A) (A) (A) (A) (A) (A) (A) (A) (A) (A) (A)
                 (A) (A) (A) (A) (A) (A) (A) (A) (A) (A) (A) (A)
                 (A) (A) (A) (A) (A) (A) (A) (A) (A) (A) (A) (A)
                 (A) (A) (A) (A) (A) (A) (A) (A) (A) (A) (A) (A)
                 (A)
 The electronic state is 1-A.
 Alpha  occ. eigenvalues --  -10.18097 -10.16622 -10.16622 -10.16622  -0.79859
 Alpha  occ. eigenvalues --   -0.67643  -0.67643  -0.55433  -0.45820  -0.42521
 Alpha  occ. eigenvalues --   -0.42520  -0.37855  -0.37855  -0.35634  -0.32020
 Alpha  occ. eigenvalues --   -0.32020  -0.32004
 Alpha virt. eigenvalues --    0.08421   0.13489   0.15305   0.15305   0.15890
 Alpha virt. eigenvalues --    0.15890   0.17625   0.19736   0.19736   0.22136
 Alpha virt. eigenvalues --    0.22747   0.25284   0.25284   0.46445   0.46445
 Alpha virt. eigenvalues --    0.48490   0.49909   0.49909   0.57418   0.61923
 Alpha virt. eigenvalues --    0.62567   0.62567   0.64798   0.64798   0.71275
 Alpha virt. eigenvalues --    0.73182   0.73182   0.74228   0.75324   0.75324
 Alpha virt. eigenvalues --    0.77244   0.78980   0.85233   0.85233   0.86467
 Alpha virt. eigenvalues --    0.90591   0.90591   0.93416   1.10892   1.10892
 Alpha virt. eigenvalues --    1.13040   1.32465   1.32465   1.37643   1.39215
 Alpha virt. eigenvalues --    1.39216   1.44934   1.49653   1.52285   1.52286
 Alpha virt. eigenvalues --    1.59869   1.61899   1.61899   1.82955   1.83063
 Alpha virt. eigenvalues --    1.83064   1.86386   1.86386   1.92661   1.96780
 Alpha virt. eigenvalues --    1.97203   1.97203   2.22696   2.22696   2.24536
 Alpha virt. eigenvalues --    2.29797   2.29797   2.32299   2.38555   2.43137
 Alpha virt. eigenvalues --    2.43138   2.54724   2.54724   2.69084   2.71809
 Alpha virt. eigenvalues --    2.75283   2.80356   2.80356   2.86110   2.86111
 Alpha virt. eigenvalues --    2.89117   2.89118   2.90551   2.95292   2.96464
 Alpha virt. eigenvalues --    2.96464   3.01775   3.03919   3.03920   3.08880
 Alpha virt. eigenvalues --    3.15675   3.15676   3.32978   3.40117   3.40118
 Alpha virt. eigenvalues --    3.47065   3.48672   3.48672   3.54662   3.58300
 Alpha virt. eigenvalues --    3.58300   3.61519   3.69221   3.69222   3.69421
 Alpha virt. eigenvalues --    3.78057   3.83341   3.83342   3.95302   4.02021
 Alpha virt. eigenvalues --    4.02021   4.13147   4.25132   4.25132   4.42905
 Alpha virt. eigenvalues --    4.42905   4.43225   4.47628   4.47628   4.61539
 Alpha virt. eigenvalues --    4.61540   4.65054   4.65055   4.65183   4.69308
 Alpha virt. eigenvalues --    4.73946   4.73947   4.81789   4.81789   4.85345
 Alpha virt. eigenvalues --    4.85345   4.86349   4.88698   4.94222   5.08936
 Alpha virt. eigenvalues --    5.31599   5.31601   5.33931   5.49533   5.49534
 Alpha virt. eigenvalues --    5.69642  11.15073  11.79973  11.79974  12.40815
          Condensed to atoms (all electrons):
               1          2          3          4          5          6
     1  C    4.966476   0.425398  -0.043755  -0.043752   0.370775   0.374755
     2  C    0.425398   4.517689   0.425396   0.425399  -0.024386  -0.027202
     3  C   -0.043755   0.425396   4.966477  -0.043753  -0.003530  -0.006204
     4  C   -0.043752   0.425399  -0.043753   4.966470   0.005040  -0.006204
     5  H    0.370775  -0.024386  -0.003530   0.005040   0.609853  -0.032794
     6  H    0.374755  -0.027202  -0.006204  -0.006204  -0.032794   0.605290
     7  H    0.370776  -0.024387   0.005040  -0.003530  -0.031419  -0.032794
     8  H   -0.044457   0.370029  -0.044456  -0.044457  -0.003199   0.006257
     9  H   -0.006204  -0.027201   0.374755  -0.006204  -0.000184   0.004969
    10  H   -0.003530  -0.024385   0.370777   0.005040   0.003992  -0.000184
    11  H    0.005040  -0.024387   0.370777  -0.003530  -0.000068  -0.000047
    12  H   -0.006204  -0.027201  -0.006204   0.374754  -0.000047   0.004969
    13  H    0.005040  -0.024387  -0.003530   0.370778  -0.000225  -0.000047
    14  H   -0.003530  -0.024387   0.005040   0.370776  -0.000068  -0.000184
               7          8          9         10         11         12
     1  C    0.370776  -0.044457  -0.006204  -0.003530   0.005040  -0.006204
     2  C   -0.024387   0.370029  -0.027201  -0.024385  -0.024387  -0.027201
     3  C    0.005040  -0.044456   0.374755   0.370777   0.370777  -0.006204
     4  C   -0.003530  -0.044457  -0.006204   0.005040  -0.003530   0.374754
     5  H   -0.031419  -0.003199  -0.000184   0.003992  -0.000068  -0.000047
     6  H   -0.032794   0.006257   0.004969  -0.000184  -0.000047   0.004969
     7  H    0.609855  -0.003199  -0.000047  -0.000068  -0.000225  -0.000184
     8  H   -0.003199   0.693107   0.006257  -0.003199  -0.003199   0.006257
     9  H   -0.000047   0.006257   0.605287  -0.032794  -0.032794   0.004969
    10  H   -0.000068  -0.003199  -0.032794   0.609852  -0.031420  -0.000047
    11  H   -0.000225  -0.003199  -0.032794  -0.031420   0.609851  -0.000184
    12  H   -0.000184   0.006257   0.004969  -0.000047  -0.000184   0.605290
    13  H   -0.000068  -0.003199  -0.000184  -0.000068   0.003992  -0.032794
    14  H    0.003993  -0.003199  -0.000047  -0.000225  -0.000068  -0.032793
              13         14
     1  C    0.005040  -0.003530
     2  C   -0.024387  -0.024387
     3  C   -0.003530   0.005040
     4  C    0.370778   0.370776
     5  H   -0.000225  -0.000068
     6  H   -0.000047  -0.000184
     7  H   -0.000068   0.003993
     8  H   -0.003199  -0.003199
     9  H   -0.000184  -0.000047
    10  H   -0.000068  -0.000225
    11  H    0.003992  -0.000068
    12  H   -0.032794  -0.032793
    13  H    0.609851  -0.031419
    14  H   -0.031419   0.609853
 Mulliken charges:
               1
     1  C   -0.366827
     2  C    0.064011
     3  C   -0.366831
     4  C   -0.366827
     5  H    0.106259
     6  H    0.109420
     7  H    0.106258
     8  H    0.070659
     9  H    0.109422
    10  H    0.106258
    11  H    0.106260
    12  H    0.109420
    13  H    0.106260
    14  H    0.106259
 Sum of Mulliken charges =  -0.00000
 Mulliken charges with hydrogens summed into heavy atoms:
               1
     1  C   -0.044891
     2  C    0.134670
     3  C   -0.044891
     4  C   -0.044889
 Electronic spatial extent (au):  <R**2>=            351.2880
 Charge=             -0.0000 electrons
 Dipole moment (field-independent basis, Debye):
    X=             -0.0222    Y=              0.0284    Z=             -0.0867  Tot=              0.0939
 Quadrupole moment (field-independent basis, Debye-Ang):
   XX=            -28.4865   YY=            -28.4589   ZZ=            -27.8662
   XY=             -0.0555   XZ=              0.1698   YZ=             -0.2171
 Traceless Quadrupole moment (field-independent basis, Debye-Ang):
   XX=             -0.2160   YY=             -0.1883   ZZ=              0.4043
   XY=             -0.0555   XZ=              0.1698   YZ=             -0.2171
 Octapole moment (field-independent basis, Debye-Ang**2):
  XXX=             -1.1096  YYY=             -0.5352  ZZZ=              0.2729  XYY=              0.4199
  XXY=              1.8564  XXZ=             -0.2061  XZZ=              0.3740  YZZ=             -0.9174
  YYZ=             -1.3013  XYZ=             -0.4957
 Hexadecapole moment (field-independent basis, Debye-Ang**3):
 XXXX=           -202.1413 YYYY=           -197.9202 ZZZZ=            -85.3659 XXXY=             -5.6314
 XXXZ=             15.5924 YYYX=             -4.7593 YYYZ=            -19.7172 ZZZX=             16.6388
 ZZZY=            -20.7733 XXYY=            -66.2828 XXZZ=            -48.6860 YYZZ=            -46.8405
 XXYZ=             -7.2022 YYXZ=              5.0579 ZZXY=             -1.8106
 N-N= 1.348285115334D+02 E-N=-6.352554226913D+02  KE= 1.570157087230D+02
 PrsmSu:  requested number of processors reduced to:  13 ShMem   1 Linda.
 Calling FoFJK, ICntrl=      2127 FMM=F ISym2X=0 I1Cent= 0 IOpClX= 0 NMat=1 NMatS=1 NMatT=0.
 ***** Axes restored to original set *****
 -------------------------------------------------------------------
 Center     Atomic                   Forces (Hartrees/Bohr)
 Number     Number              X              Y              Z
 -------------------------------------------------------------------
      1        6          -0.002283294    0.001025992   -0.004970335
      2        6          -0.002065022   -0.001180399    0.005734181
      3        6           0.003145746    0.003886761   -0.002426373
      4        6           0.003136416   -0.002619469   -0.003758536
      5        1          -0.001369952   -0.000081304    0.000413752
      6        1          -0.000082593   -0.000122256    0.000603165
      7        1          -0.001368739   -0.000090774    0.000413670
      8        1           0.000364368    0.000207662   -0.001009657
      9        1          -0.000261004   -0.000215408    0.000528069
     10        1           0.000253642    0.000779323    0.001175301
     11        1           0.000268809    0.000772673    0.001179242
     12        1          -0.000260275   -0.000007341    0.000564786
     13        1           0.000266739   -0.001174790    0.000777695
     14        1           0.000255158   -0.001180672    0.000775041
 -------------------------------------------------------------------
 Cartesian Forces:  Max     0.005734181 RMS     0.001863951

 GradGradGradGradGradGradGradGradGradGradGradGradGradGradGradGradGradGrad
 Berny optimization.
 FormGI is forming the generalized inverse of G from B-inverse, IUseBI=4.
 Internal  Forces:  Max     0.005167466 RMS     0.001406927
 Search for a local minimum.
 Step number   1 out of a maximum of   74
 All quantities printed in internal units (Hartrees-Bohrs-Radians)
 Mixed Optimization -- RFO/linear search
 Second derivative matrix not updated -- first step.
 ITU=  0
     Eigenvalues ---    0.00408   0.00408   0.00408   0.03743   0.04808
     Eigenvalues ---    0.04808   0.05531   0.05531   0.05531   0.05589
     Eigenvalues ---    0.05589   0.05589   0.16000   0.16000   0.16000
     Eigenvalues ---    0.16000   0.16000   0.16000   0.16000   0.16000
     Eigenvalues ---    0.16000   0.16566   0.16566   0.29697   0.29698
     Eigenvalues ---    0.29698   0.34047   0.34216   0.34216   0.34217
     Eigenvalues ---    0.34224   0.34224   0.34224   0.34225   0.34225
     Eigenvalues ---    0.34225
 RFO step:  Lambda=-8.19644097D-04 EMin= 4.07986239D-03
 Linear search not attempted -- first point.
 Iteration  1 RMS(Cart)=  0.01677443 RMS(Int)=  0.00012923
 Iteration  2 RMS(Cart)=  0.00010167 RMS(Int)=  0.00010710
 Iteration  3 RMS(Cart)=  0.00000001 RMS(Int)=  0.00010710
 Variable       Old X    -DE/DX   Delta X   Delta X   Delta X     New X
                                 (Linear)    (Quad)   (Total)
    R1        2.88570   0.00517   0.00000   0.01735   0.01735   2.90305
    R2        2.06954   0.00028   0.00000   0.00081   0.00081   2.07035
    R3        2.06967   0.00060   0.00000   0.00175   0.00175   2.07142
    R4        2.06954   0.00028   0.00000   0.00081   0.00081   2.07035
    R5        2.88573   0.00517   0.00000   0.01735   0.01735   2.90308
    R6        2.88571   0.00516   0.00000   0.01734   0.01734   2.90305
    R7        2.07250   0.00109   0.00000   0.00320   0.00320   2.07571
    R8        2.06966   0.00061   0.00000   0.00178   0.00178   2.07143
    R9        2.06953   0.00028   0.00000   0.00082   0.00082   2.07034
   R10        2.06952   0.00028   0.00000   0.00083   0.00083   2.07035
   R11        2.06967   0.00060   0.00000   0.00176   0.00176   2.07143
   R12        2.06952   0.00028   0.00000   0.00083   0.00083   2.07035
   R13        2.06953   0.00028   0.00000   0.00081   0.00081   2.07035
    A1        1.93405   0.00179   0.00000   0.01256   0.01249   1.94654
    A2        1.94144  -0.00106   0.00000  -0.00953  -0.00949   1.93195
    A3        1.93404   0.00178   0.00000   0.01253   0.01246   1.94649
    A4        1.88515  -0.00070   0.00000  -0.00713  -0.00709   1.87806
    A5        1.88185  -0.00123   0.00000  -0.00202  -0.00219   1.87966
    A6        1.88516  -0.00070   0.00000  -0.00713  -0.00710   1.87807
    A7        1.92794   0.00055   0.00000   0.01431   0.01393   1.94187
    A8        1.92795   0.00055   0.00000   0.01431   0.01393   1.94188
    A9        1.89299  -0.00057   0.00000  -0.01488  -0.01474   1.87825
   A10        1.92794   0.00055   0.00000   0.01431   0.01394   1.94188
   A11        1.89298  -0.00057   0.00000  -0.01488  -0.01474   1.87824
   A12        1.89299  -0.00057   0.00000  -0.01488  -0.01474   1.87825
   A13        1.94144  -0.00105   0.00000  -0.00947  -0.00943   1.93200
   A14        1.93404   0.00178   0.00000   0.01253   0.01246   1.94650
   A15        1.93403   0.00178   0.00000   0.01255   0.01248   1.94651
   A16        1.88516  -0.00070   0.00000  -0.00714  -0.00711   1.87805
   A17        1.88516  -0.00070   0.00000  -0.00715  -0.00712   1.87804
   A18        1.88186  -0.00123   0.00000  -0.00203  -0.00220   1.87966
   A19        1.94144  -0.00105   0.00000  -0.00948  -0.00944   1.93200
   A20        1.93404   0.00178   0.00000   0.01251   0.01244   1.94648
   A21        1.93403   0.00179   0.00000   0.01256   0.01249   1.94652
   A22        1.88517  -0.00070   0.00000  -0.00715  -0.00711   1.87806
   A23        1.88516  -0.00070   0.00000  -0.00713  -0.00709   1.87807
   A24        1.88186  -0.00123   0.00000  -0.00205  -0.00222   1.87965
    D1        1.02826  -0.00111   0.00000  -0.02558  -0.02569   1.00257
    D2       -3.11663   0.00033   0.00000   0.01201   0.01201  -3.10462
    D3       -1.04418  -0.00039   0.00000  -0.00679  -0.00684  -1.05102
    D4       -1.06914  -0.00072   0.00000  -0.01866  -0.01872  -1.08786
    D5        1.06915   0.00072   0.00000   0.01893   0.01899   1.08814
    D6       -3.14158   0.00000   0.00000   0.00013   0.00013  -3.14145
    D7        3.11663  -0.00032   0.00000  -0.01170  -0.01171   3.10492
    D8       -1.02827   0.00111   0.00000   0.02588   0.02600  -1.00227
    D9        1.04419   0.00039   0.00000   0.00709   0.00714   1.05133
   D10        1.06915   0.00072   0.00000   0.01880   0.01887   1.08801
   D11       -1.02826   0.00111   0.00000   0.02573   0.02584  -1.00242
   D12       -3.11663   0.00033   0.00000   0.01188   0.01189  -3.10475
   D13       -1.06914  -0.00072   0.00000  -0.01878  -0.01884  -1.08798
   D14        3.11663  -0.00033   0.00000  -0.01185  -0.01186   3.10477
   D15        1.02826  -0.00111   0.00000  -0.02570  -0.02582   1.00244
   D16       -3.14159   0.00000   0.00000   0.00001   0.00001  -3.14158
   D17        1.04418   0.00039   0.00000   0.00694   0.00699   1.05118
   D18       -1.04419  -0.00039   0.00000  -0.00691  -0.00697  -1.05115
   D19       -1.06913  -0.00072   0.00000  -0.01879  -0.01885  -1.08799
   D20        3.11664  -0.00033   0.00000  -0.01185  -0.01186   3.10478
   D21        1.02827  -0.00111   0.00000  -0.02568  -0.02580   1.00247
   D22        1.06915   0.00072   0.00000   0.01879   0.01886   1.08801
   D23       -1.02826   0.00111   0.00000   0.02574   0.02585  -1.00241
   D24       -3.11663   0.00033   0.00000   0.01190   0.01191  -3.10472
   D25        3.14159  -0.00000   0.00000   0.00000   0.00000  -3.14159
   D26        1.04418   0.00039   0.00000   0.00695   0.00700   1.05118
   D27       -1.04419  -0.00039   0.00000  -0.00689  -0.00694  -1.05113
         Item               Value     Threshold  Converged?
 Maximum Force            0.005167     0.000450     NO 
 RMS     Force            0.001407     0.000300     NO 
 Maximum Displacement     0.035938     0.001800     NO 
 RMS     Displacement     0.016704     0.001200     NO 
 Predicted change in Energy=-4.201971D-04
 GradGradGradGradGradGradGradGradGradGradGradGradGradGradGradGradGradGrad

                          Input orientation:                          
 ---------------------------------------------------------------------
 Center     Atomic      Atomic             Coordinates (Angstroms)
 Number     Number       Type             X           Y           Z
 ---------------------------------------------------------------------
      1          6           0        0.910087    0.081133   -0.017520
      2          6           0        2.445511    0.071105    0.031210
      3          6           0        2.980773    1.175813    0.954875
      4          6           0        2.980757   -1.308330    0.444325
      5          1           0        0.524661    1.052050   -0.347769
      6          1           0        0.489753   -0.122527    0.974136
      7          1           0        0.524683   -0.681050   -0.703696
      8          1           0        2.811662    0.279589   -0.983182
      9          1           0        2.643685    1.016041    1.985603
     10          1           0        2.631517    2.165891    0.641738
     11          1           0        4.076121    1.196555    0.963935
     12          1           0        2.643647   -1.568014    1.454507
     13          1           0        4.076104   -1.330938    0.444488
     14          1           0        2.631540   -2.094667   -0.233921
 ---------------------------------------------------------------------
                    Distance matrix (angstroms):
                    1          2          3          4          5
     1  C    0.000000
     2  C    1.536230   0.000000
     3  C    2.536063   1.536242   0.000000
     4  C    2.536056   1.536227   2.536065   0.000000
     5  H    1.095581   2.189873   2.782928   3.497316   0.000000
     6  H    1.096148   2.179816   2.809135   2.809259   1.768695
     7  H    1.095580   2.189842   3.497310   2.782756   1.769271
     8  H    2.141933   1.098417   2.141933   2.141927   2.496162
     9  H    2.809256   2.179870   1.096155   2.809245   3.152172
    10  H    2.782833   2.189856   1.095577   3.497307   2.580428
    11  H    3.497312   2.189863   1.095581   2.782852   3.788709
    12  H    2.809231   2.179850   2.809248   1.096151   3.821392
    13  H    3.497293   2.189830   2.782812   1.095580   4.349603
    14  H    2.782864   2.189856   3.497318   1.095580   3.788632
                    6          7          8          9         10
     6  H    0.000000
     7  H    1.768697   0.000000
     8  H    3.063340   2.496240   0.000000
     9  H    2.637959   3.821337   3.063374   0.000000
    10  H    3.151904   3.788669   2.496188   1.768693   0.000000
    11  H    3.821271   4.349609   2.496186   1.768690   1.769267
    12  H    2.638077   3.151913   3.063363   2.638069   3.821360
    13  H    3.821348   3.788571   2.496167   3.152011   3.788608
    14  H    3.152141   2.580281   2.496182   3.821379   4.349613
                   11         12         13         14
    11  H    0.000000
    12  H    3.152060   0.000000
    13  H    2.580318   1.768693   0.000000
    14  H    3.788642   1.768699   1.769261   0.000000
 Stoichiometry    C4H10
 Framework group  C1[X(C4H10)]
 Deg. of freedom    36
 Full point group                 C1      NOp   1
 Largest Abelian subgroup         C1      NOp   1
 Largest concise Abelian subgroup C1      NOp   1
                         Standard orientation:                         
 ---------------------------------------------------------------------
 Center     Atomic      Atomic             Coordinates (Angstroms)
 Number     Number       Type             X           Y           Z
 ---------------------------------------------------------------------
      1          6           0       -0.560098    1.352834    0.095094
      2          6           0       -0.000007    0.000001   -0.369818
      3          6           0        1.451641   -0.191356    0.095091
      4          6           0       -0.891542   -1.161470    0.095097
      5          1           0        0.052001    2.186779   -0.265696
      6          1           0       -0.582469    1.407252    1.189662
      7          1           0       -1.582661    1.509875   -0.265458
      8          1           0       -0.000004   -0.000004   -1.468236
      9          1           0        1.510033   -0.199066    1.189663
     10          1           0        2.098955    0.615604   -0.265590
     11          1           0        1.867739   -1.138490   -0.265601
     12          1           0       -0.927404   -1.208177    1.189665
     13          1           0       -0.516330   -2.125535   -0.265584
     14          1           0       -1.919829   -1.048282   -0.265609
 ---------------------------------------------------------------------
 Rotational constants (GHZ):           7.7271568           7.7271009           4.4674313
 Standard basis: 6-31G(2df,p) (6D, 7F)
 There are   174 symmetry adapted cartesian basis functions of A   symmetry.
 There are   162 symmetry adapted basis functions of A   symmetry.
   162 basis functions,   246 primitive gaussians,   174 cartesian basis functions
    17 alpha electrons       17 beta electrons
       nuclear repulsion energy       134.0372463031 Hartrees.
 NAtoms=   14 NActive=   14 NUniq=   14 SFac= 1.00D+00 NAtFMM=   60 NAOKFM=F Big=F
 Integral buffers will be    131072 words long.
 Raffenetti 2 integral format.
 Two-electron integral symmetry is turned on.
 One-electron integrals computed using PRISM.
 PrsmSu:  requested number of processors reduced to:  13 ShMem   1 Linda.
 NBasis=   162 RedAO= T EigKep=  9.52D-04  NBF=   162
 NBsUse=   162 1.00D-06 EigRej= -1.00D+00 NBFU=   162
 Initial guess from the checkpoint file:  "CCqCrC.chk"
 B after Tr=    -0.000000    0.000000    0.000000
         Rot=    0.970998    0.135647    0.140869   -0.137548 Ang=  27.67 deg.
 ExpMin= 1.61D-01 ExpMax= 3.05D+03 ExpMxC= 4.57D+02 IAcc=2 IRadAn=         4 AccDes= 0.00D+00
 Harris functional with IExCor=  402 and IRadAn=       4 diagonalized for initial guess.
 HarFok:  IExCor=  402 AccDes= 0.00D+00 IRadAn=         4 IDoV= 1 UseB2=F ITyADJ=14
 ICtDFT=  3500011 ScaDFX=  1.000000  1.000000  1.000000  1.000000
 FoFCou: FMM=F IPFlag=           0 FMFlag=      100000 FMFlg1=           0
         NFxFlg=           0 DoJE=T BraDBF=F KetDBF=T FulRan=T
         wScrn=  0.000000 ICntrl=       500 IOpCl=  0 I1Cent=   200000004 NGrid=           0
         NMat0=    1 NMatS0=      1 NMatT0=    0 NMatD0=    1 NMtDS0=    0 NMtDT0=    0
 Petite list used in FoFCou.
 Requested convergence on RMS density matrix=1.00D-08 within 128 cycles.
 Requested convergence on MAX density matrix=1.00D-06.
 Requested convergence on             energy=1.00D-06.
 No special actions if energy rises.
 Integral accuracy reduced to 1.0D-05 until final iterations.
 Initial convergence to 1.0D-05 achieved.  Increase integral accuracy.
 SCF Done:  E(RB3LYP) =  -158.473462915     A.U. after    9 cycles
            NFock=  9  Conv=0.20D-08     -V/T= 2.0097
 PrsmSu:  requested number of processors reduced to:  13 ShMem   1 Linda.
 Calling FoFJK, ICntrl=      2127 FMM=F ISym2X=0 I1Cent= 0 IOpClX= 0 NMat=1 NMatS=1 NMatT=0.
 ***** Axes restored to original set *****
 -------------------------------------------------------------------
 Center     Atomic                   Forces (Hartrees/Bohr)
 Number     Number              X              Y              Z
 -------------------------------------------------------------------
      1        6           0.000868647   -0.000052415    0.000216786
      2        6           0.000310117    0.000184114   -0.000821492
      3        6          -0.000402738   -0.000718241   -0.000372863
      4        6          -0.000392230    0.000804481   -0.000060249
      5        1           0.000420637   -0.000059722    0.000180997
      6        1          -0.000416170   -0.000079074    0.000387645
      7        1           0.000418064   -0.000017468    0.000189901
      8        1           0.000210258    0.000119186   -0.000581288
      9        1          -0.000049017    0.000111518    0.000553444
     10        1          -0.000211939   -0.000391316   -0.000116370
     11        1          -0.000247516   -0.000371733   -0.000124978
     12        1          -0.000047854   -0.000324351    0.000465795
     13        1          -0.000246589    0.000387173    0.000033350
     14        1          -0.000213670    0.000407849    0.000049322
 -------------------------------------------------------------------
 Cartesian Forces:  Max     0.000868647 RMS     0.000374163

 GradGradGradGradGradGradGradGradGradGradGradGradGradGradGradGradGradGrad
 Berny optimization.
 Using GEDIIS/GDIIS optimizer.
 FormGI is forming the generalized inverse of G from B-inverse, IUseBI=4.
 Internal  Forces:  Max     0.001339423 RMS     0.000404251
 Search for a local minimum.
 Step number   2 out of a maximum of   74
 All quantities printed in internal units (Hartrees-Bohrs-Radians)
 Mixed Optimization -- En-DIIS/RFO-DIIS
 Update second derivatives using D2CorX and points    1    2
 DE= -3.04D-04 DEPred=-4.20D-04 R= 7.23D-01
 TightC=F SS=  1.41D+00  RLast= 1.05D-01 DXNew= 5.0454D-01 3.1399D-01
 Trust test= 7.23D-01 RLast= 1.05D-01 DXMaxT set to 3.14D-01
 ITU=  1  0
 Use linear search instead of GDIIS.
     Eigenvalues ---    0.00408   0.00408   0.00408   0.03925   0.04869
     Eigenvalues ---    0.04869   0.05443   0.05456   0.05456   0.05555
     Eigenvalues ---    0.05555   0.05556   0.15922   0.16000   0.16000
     Eigenvalues ---    0.16000   0.16000   0.16000   0.16000   0.16000
     Eigenvalues ---    0.16950   0.16950   0.17099   0.29697   0.29698
     Eigenvalues ---    0.31533   0.34042   0.34178   0.34216   0.34217
     Eigenvalues ---    0.34224   0.34224   0.34224   0.34225   0.34225
     Eigenvalues ---    0.35055
 RFO step:  Lambda=-7.48358403D-06 EMin= 4.07986254D-03
 Quartic linear search produced a step of -0.20178.
 Iteration  1 RMS(Cart)=  0.00356702 RMS(Int)=  0.00001759
 Iteration  2 RMS(Cart)=  0.00000788 RMS(Int)=  0.00001710
 Iteration  3 RMS(Cart)=  0.00000000 RMS(Int)=  0.00001710
 Variable       Old X    -DE/DX   Delta X   Delta X   Delta X     New X
                                 (Linear)    (Quad)   (Total)
    R1        2.90305  -0.00132  -0.00350   0.00008  -0.00342   2.89964
    R2        2.07035  -0.00026  -0.00016  -0.00043  -0.00059   2.06976
    R3        2.07142   0.00053  -0.00035   0.00159   0.00124   2.07266
    R4        2.07035  -0.00025  -0.00016  -0.00042  -0.00059   2.06976
    R5        2.90308  -0.00134  -0.00350   0.00004  -0.00346   2.89962
    R6        2.90305  -0.00133  -0.00350   0.00007  -0.00343   2.89962
    R7        2.07571   0.00063  -0.00065   0.00215   0.00150   2.07721
    R8        2.07143   0.00052  -0.00036   0.00158   0.00122   2.07266
    R9        2.07034  -0.00025  -0.00016  -0.00042  -0.00058   2.06976
   R10        2.07035  -0.00025  -0.00017  -0.00042  -0.00059   2.06976
   R11        2.07143   0.00052  -0.00035   0.00158   0.00123   2.07265
   R12        2.07035  -0.00025  -0.00017  -0.00042  -0.00059   2.06976
   R13        2.07035  -0.00025  -0.00016  -0.00042  -0.00059   2.06976
    A1        1.94654  -0.00048  -0.00252   0.00012  -0.00239   1.94415
    A2        1.93195   0.00049   0.00192   0.00064   0.00255   1.93450
    A3        1.94649  -0.00047  -0.00251   0.00015  -0.00235   1.94415
    A4        1.87806   0.00001   0.00143  -0.00127   0.00016   1.87822
    A5        1.87966   0.00047   0.00044   0.00154   0.00201   1.88167
    A6        1.87807   0.00001   0.00143  -0.00126   0.00016   1.87823
    A7        1.94187  -0.00013  -0.00281  -0.00020  -0.00295   1.93892
    A8        1.94188  -0.00014  -0.00281  -0.00023  -0.00298   1.93890
    A9        1.87825   0.00015   0.00297   0.00023   0.00318   1.88143
   A10        1.94188  -0.00014  -0.00281  -0.00020  -0.00296   1.93892
   A11        1.87824   0.00015   0.00297   0.00024   0.00319   1.88143
   A12        1.87825   0.00015   0.00297   0.00022   0.00317   1.88142
   A13        1.93200   0.00049   0.00190   0.00063   0.00252   1.93453
   A14        1.94650  -0.00048  -0.00251   0.00014  -0.00236   1.94415
   A15        1.94651  -0.00048  -0.00252   0.00010  -0.00240   1.94411
   A16        1.87805   0.00001   0.00143  -0.00124   0.00018   1.87824
   A17        1.87804   0.00002   0.00144  -0.00125   0.00018   1.87822
   A18        1.87966   0.00047   0.00044   0.00155   0.00202   1.88168
   A19        1.93200   0.00049   0.00190   0.00064   0.00254   1.93454
   A20        1.94648  -0.00048  -0.00251   0.00015  -0.00235   1.94413
   A21        1.94652  -0.00048  -0.00252   0.00011  -0.00239   1.94413
   A22        1.87806   0.00001   0.00143  -0.00126   0.00017   1.87823
   A23        1.87807   0.00001   0.00143  -0.00127   0.00016   1.87822
   A24        1.87965   0.00047   0.00045   0.00155   0.00202   1.88167
    D1        1.00257   0.00022   0.00518  -0.00071   0.00450   1.00706
    D2       -3.10462  -0.00016  -0.00242  -0.00129  -0.00371  -3.10834
    D3       -1.05102   0.00003   0.00138  -0.00102   0.00037  -1.05065
    D4       -1.08786   0.00019   0.00378   0.00038   0.00417  -1.08369
    D5        1.08814  -0.00019  -0.00383  -0.00020  -0.00404   1.08409
    D6       -3.14145   0.00000  -0.00003   0.00007   0.00005  -3.14140
    D7        3.10492   0.00016   0.00236   0.00145   0.00381   3.10872
    D8       -1.00227  -0.00022  -0.00525   0.00086  -0.00440  -1.00668
    D9        1.05133  -0.00003  -0.00144   0.00113  -0.00032   1.05101
   D10        1.08801  -0.00019  -0.00381  -0.00032  -0.00414   1.08387
   D11       -1.00242  -0.00022  -0.00521   0.00073  -0.00450  -1.00692
   D12       -3.10475  -0.00016  -0.00240  -0.00141  -0.00381  -3.10856
   D13       -1.08798   0.00019   0.00380   0.00027   0.00409  -1.08390
   D14        3.10477   0.00016   0.00239   0.00133   0.00372   3.10849
   D15        1.00244   0.00022   0.00521  -0.00082   0.00441   1.00685
   D16       -3.14158   0.00000  -0.00000  -0.00002  -0.00002   3.14159
   D17        1.05118  -0.00003  -0.00141   0.00103  -0.00039   1.05079
   D18       -1.05115   0.00003   0.00141  -0.00111   0.00031  -1.05085
   D19       -1.08799   0.00019   0.00380   0.00022   0.00404  -1.08395
   D20        3.10478   0.00016   0.00239   0.00128   0.00368   3.10846
   D21        1.00247   0.00022   0.00520  -0.00087   0.00435   1.00682
   D22        1.08801  -0.00019  -0.00380  -0.00036  -0.00417   1.08384
   D23       -1.00241  -0.00022  -0.00522   0.00070  -0.00453  -1.00694
   D24       -3.10472  -0.00016  -0.00240  -0.00145  -0.00386  -3.10858
   D25       -3.14159   0.00000  -0.00000  -0.00005  -0.00005   3.14154
   D26        1.05118  -0.00003  -0.00141   0.00101  -0.00042   1.05076
   D27       -1.05113   0.00003   0.00140  -0.00115   0.00026  -1.05087
         Item               Value     Threshold  Converged?
 Maximum Force            0.001339     0.000450     NO 
 RMS     Force            0.000404     0.000300     NO 
 Maximum Displacement     0.007906     0.001800     NO 
 RMS     Displacement     0.003574     0.001200     NO 
 Predicted change in Energy=-2.326419D-05
 GradGradGradGradGradGradGradGradGradGradGradGradGradGradGradGradGradGrad

                          Input orientation:                          
 ---------------------------------------------------------------------
 Center     Atomic      Atomic             Coordinates (Angstroms)
 Number     Number       Type             X           Y           Z
 ---------------------------------------------------------------------
      1          6           0        0.913004    0.080835   -0.016149
      2          6           0        2.446772    0.071836    0.027758
      3          6           0        2.979130    1.173130    0.954128
      4          6           0        2.979137   -1.305547    0.444681
      5          1           0        0.528476    1.051995   -0.345699
      6          1           0        0.493050   -0.122957    0.976366
      7          1           0        0.528500   -0.681898   -0.701722
      8          1           0        2.813190    0.280473   -0.987365
      9          1           0        2.641465    1.012673    1.985251
     10          1           0        2.628969    2.162503    0.640853
     11          1           0        4.074188    1.192674    0.963224
     12          1           0        2.641529   -1.564761    1.455524
     13          1           0        4.074192   -1.327144    0.445251
     14          1           0        2.628898   -2.091163   -0.233371
 ---------------------------------------------------------------------
                    Distance matrix (angstroms):
                    1          2          3          4          5
     1  C    0.000000
     2  C    1.534422   0.000000
     3  C    2.530498   1.534410   0.000000
     4  C    2.530479   1.534412   2.530489   0.000000
     5  H    1.095270   2.186330   2.776676   3.491195   0.000000
     6  H    1.096804   2.180557   2.803735   2.803897   1.769074
     7  H    1.095270   2.186326   3.491211   2.776472   1.770067
     8  H    2.143321   1.099212   2.143307   2.143305   2.495376
     9  H    2.803837   2.180563   1.096804   2.803841   3.146362
    10  H    2.776603   2.186314   1.095269   3.491199   2.572660
    11  H    3.491195   2.186289   1.095270   2.776533   3.782214
    12  H    2.803855   2.180572   2.803822   1.096802   3.815338
    13  H    3.491190   2.186308   2.776596   1.095269   4.342581
    14  H    2.776519   2.186303   3.491192   1.095269   3.782041
                    6          7          8          9         10
     6  H    0.000000
     7  H    1.769082   0.000000
     8  H    3.066276   2.495507   0.000000
     9  H    2.631196   3.815234   3.066276   0.000000
    10  H    3.146116   3.782207   2.495409   1.769087   0.000000
    11  H    3.815181   4.342576   2.495400   1.769077   1.770070
    12  H    2.631416   3.146116   3.066278   2.631306   3.815277
    13  H    3.815328   3.782040   2.495386   3.146275   3.782138
    14  H    3.146291   2.572363   2.495422   3.815264   4.342573
                   11         12         13         14
    11  H    0.000000
    12  H    3.146159   0.000000
    13  H    2.572505   1.769078   0.000000
    14  H    3.782101   1.769075   1.770065   0.000000
 Stoichiometry    C4H10
 Framework group  C1[X(C4H10)]
 Deg. of freedom    36
 Full point group                 C1      NOp   1
 Largest Abelian subgroup         C1      NOp   1
 Largest concise Abelian subgroup C1      NOp   1
                         Standard orientation:                         
 ---------------------------------------------------------------------
 Center     Atomic      Atomic             Coordinates (Angstroms)
 Number     Number       Type             X           Y           Z
 ---------------------------------------------------------------------
      1          6           0       -1.076503    0.987728    0.095839
      2          6           0        0.000010    0.000001   -0.373169
      3          6           0        1.393653    0.438409    0.095845
      4          6           0       -0.317156   -1.426132    0.095843
      5          1           0       -0.872653    2.001682   -0.264659
      6          1           0       -1.119246    1.027214    1.191098
      7          1           0       -2.069260    0.697355   -0.264346
      8          1           0        0.000015   -0.000007   -1.472381
      9          1           0        1.449174    0.455890    1.191103
     10          1           0        1.638669    1.443250   -0.264535
     11          1           0        2.169778   -0.245261   -0.264490
     12          1           0       -0.329751   -1.482975    1.191098
     13          1           0        0.430546   -2.140743   -0.264556
     14          1           0       -1.297298   -1.756444   -0.264475
 ---------------------------------------------------------------------
 Rotational constants (GHZ):           7.7488507           7.7487504           4.4862274
 Standard basis: 6-31G(2df,p) (6D, 7F)
 There are   174 symmetry adapted cartesian basis functions of A   symmetry.
 There are   162 symmetry adapted basis functions of A   symmetry.
   162 basis functions,   246 primitive gaussians,   174 cartesian basis functions
    17 alpha electrons       17 beta electrons
       nuclear repulsion energy       134.1842251321 Hartrees.
 NAtoms=   14 NActive=   14 NUniq=   14 SFac= 1.00D+00 NAtFMM=   60 NAOKFM=F Big=F
 Integral buffers will be    131072 words long.
 Raffenetti 2 integral format.
 Two-electron integral symmetry is turned on.
 One-electron integrals computed using PRISM.
 PrsmSu:  requested number of processors reduced to:  13 ShMem   1 Linda.
 NBasis=   162 RedAO= T EigKep=  9.46D-04  NBF=   162
 NBsUse=   162 1.00D-06 EigRej= -1.00D+00 NBFU=   162
 Initial guess from the checkpoint file:  "CCqCrC.chk"
 B after Tr=    -0.000000    0.000000    0.000000
         Rot=    0.976350    0.000002   -0.000001   -0.216198 Ang=  24.97 deg.
 Requested convergence on RMS density matrix=1.00D-08 within 128 cycles.
 Requested convergence on MAX density matrix=1.00D-06.
 Requested convergence on             energy=1.00D-06.
 No special actions if energy rises.
 SCF Done:  E(RB3LYP) =  -158.473487883     A.U. after    7 cycles
            NFock=  7  Conv=0.52D-08     -V/T= 2.0096
 PrsmSu:  requested number of processors reduced to:  13 ShMem   1 Linda.
 Calling FoFJK, ICntrl=      2127 FMM=F ISym2X=0 I1Cent= 0 IOpClX= 0 NMat=1 NMatS=1 NMatT=0.
 ***** Axes restored to original set *****
 -------------------------------------------------------------------
 Center     Atomic                   Forces (Hartrees/Bohr)
 Number     Number              X              Y              Z
 -------------------------------------------------------------------
      1        6           0.000122028    0.000036677   -0.000163343
      2        6          -0.000083343   -0.000014812    0.000214429
      3        6           0.000045980   -0.000016699   -0.000200874
      4        6           0.000039803    0.000081386   -0.000188662
      5        1           0.000012377    0.000001553    0.000051309
      6        1          -0.000024558   -0.000010438    0.000037911
      7        1           0.000011759   -0.000022893    0.000045677
      8        1           0.000006836    0.000003998   -0.000020412
      9        1          -0.000009978   -0.000003458    0.000039521
     10        1          -0.000038358   -0.000024922    0.000028496
     11        1          -0.000019462   -0.000037803    0.000033391
     12        1          -0.000012096   -0.000020850    0.000041969
     13        1          -0.000014744    0.000019659    0.000045498
     14        1          -0.000036246    0.000008601    0.000035090
 -------------------------------------------------------------------
 Cartesian Forces:  Max     0.000214429 RMS     0.000070019

 GradGradGradGradGradGradGradGradGradGradGradGradGradGradGradGradGradGrad
 Berny optimization.
 Using GEDIIS/GDIIS optimizer.
 FormGI is forming the generalized inverse of G from B-inverse, IUseBI=4.
 Internal  Forces:  Max     0.000128210 RMS     0.000031306
 Search for a local minimum.
 Step number   3 out of a maximum of   74
 All quantities printed in internal units (Hartrees-Bohrs-Radians)
 Mixed Optimization -- En-DIIS/RFO-DIIS
 Swapping is turned off.
 Update second derivatives using D2CorX and points    1    2    3
 DE= -2.50D-05 DEPred=-2.33D-05 R= 1.07D+00
 TightC=F SS=  1.41D+00  RLast= 2.17D-02 DXNew= 5.2807D-01 6.5208D-02
 Trust test= 1.07D+00 RLast= 2.17D-02 DXMaxT set to 3.14D-01
 ITU=  1  1  0
     Eigenvalues ---    0.00408   0.00408   0.00408   0.03977   0.04856
     Eigenvalues ---    0.04856   0.05477   0.05477   0.05486   0.05550
     Eigenvalues ---    0.05550   0.05550   0.15920   0.16000   0.16000
     Eigenvalues ---    0.16000   0.16000   0.16000   0.16000   0.16000
     Eigenvalues ---    0.16863   0.16866   0.17115   0.29692   0.29697
     Eigenvalues ---    0.30529   0.33774   0.34102   0.34216   0.34217
     Eigenvalues ---    0.34224   0.34224   0.34224   0.34225   0.34225
     Eigenvalues ---    0.34297
 En-DIIS/RFO-DIIS/Sim-DIIS IScMMF=       -3 using points:     3    2
 RFO step:  Lambda=-4.01439185D-07.
 DidBck=F Rises=F RFO-DIIS coefs:    0.97258    0.02742
 Iteration  1 RMS(Cart)=  0.00022324 RMS(Int)=  0.00000012
 Iteration  2 RMS(Cart)=  0.00000006 RMS(Int)=  0.00000011
 Variable       Old X    -DE/DX   Delta X   Delta X   Delta X     New X
                                 (Linear)    (Quad)   (Total)
    R1        2.89964  -0.00012   0.00009  -0.00052  -0.00042   2.89922
    R2        2.06976  -0.00002   0.00002  -0.00008  -0.00006   2.06970
    R3        2.07266   0.00005  -0.00003   0.00018   0.00015   2.07281
    R4        2.06976  -0.00002   0.00002  -0.00007  -0.00005   2.06971
    R5        2.89962  -0.00013   0.00009  -0.00054  -0.00045   2.89917
    R6        2.89962  -0.00010   0.00009  -0.00046  -0.00037   2.89925
    R7        2.07721   0.00002  -0.00004   0.00012   0.00008   2.07729
    R8        2.07266   0.00004  -0.00003   0.00016   0.00013   2.07279
    R9        2.06976  -0.00002   0.00002  -0.00007  -0.00006   2.06970
   R10        2.06976  -0.00002   0.00002  -0.00008  -0.00006   2.06970
   R11        2.07265   0.00005  -0.00003   0.00019   0.00016   2.07281
   R12        2.06976  -0.00001   0.00002  -0.00006  -0.00005   2.06971
   R13        2.06976  -0.00002   0.00002  -0.00007  -0.00006   2.06970
    A1        1.94415  -0.00000   0.00007  -0.00001   0.00006   1.94421
    A2        1.93450   0.00000  -0.00007  -0.00006  -0.00013   1.93437
    A3        1.94415  -0.00001   0.00006  -0.00003   0.00003   1.94418
    A4        1.87822  -0.00001  -0.00000  -0.00021  -0.00022   1.87800
    A5        1.88167   0.00003  -0.00006   0.00057   0.00051   1.88219
    A6        1.87823  -0.00001  -0.00000  -0.00025  -0.00026   1.87798
    A7        1.93892   0.00001   0.00008   0.00010   0.00018   1.93910
    A8        1.93890   0.00000   0.00008   0.00002   0.00011   1.93900
    A9        1.88143  -0.00001  -0.00009  -0.00006  -0.00014   1.88129
   A10        1.93892   0.00000   0.00008   0.00005   0.00013   1.93905
   A11        1.88143  -0.00001  -0.00009  -0.00005  -0.00014   1.88129
   A12        1.88142  -0.00000  -0.00009  -0.00007  -0.00016   1.88127
   A13        1.93453  -0.00000  -0.00007  -0.00010  -0.00016   1.93436
   A14        1.94415  -0.00001   0.00006  -0.00004   0.00003   1.94417
   A15        1.94411  -0.00000   0.00007  -0.00000   0.00006   1.94417
   A16        1.87824  -0.00001  -0.00001  -0.00022  -0.00023   1.87801
   A17        1.87822  -0.00001  -0.00000  -0.00022  -0.00022   1.87800
   A18        1.88168   0.00003  -0.00006   0.00058   0.00052   1.88220
   A19        1.93454   0.00000  -0.00007  -0.00007  -0.00014   1.93440
   A20        1.94413  -0.00000   0.00006   0.00000   0.00007   1.94420
   A21        1.94413   0.00000   0.00007   0.00002   0.00008   1.94421
   A22        1.87823  -0.00002  -0.00000  -0.00025  -0.00025   1.87797
   A23        1.87822  -0.00002  -0.00000  -0.00026  -0.00026   1.87796
   A24        1.88167   0.00003  -0.00006   0.00056   0.00051   1.88218
    D1        1.00706  -0.00002  -0.00012  -0.00037  -0.00049   1.00657
    D2       -3.10834  -0.00001   0.00010  -0.00022  -0.00012  -3.10846
    D3       -1.05065  -0.00002  -0.00001  -0.00033  -0.00034  -1.05098
    D4       -1.08369  -0.00001  -0.00011  -0.00006  -0.00017  -1.08386
    D5        1.08409   0.00001   0.00011   0.00009   0.00021   1.08430
    D6       -3.14140  -0.00000  -0.00000  -0.00001  -0.00001  -3.14141
    D7        3.10872   0.00001  -0.00010   0.00033   0.00022   3.10895
    D8       -1.00668   0.00003   0.00012   0.00048   0.00060  -1.00608
    D9        1.05101   0.00002   0.00001   0.00037   0.00038   1.05139
   D10        1.08387   0.00000   0.00011   0.00006   0.00018   1.08405
   D11       -1.00692   0.00002   0.00012   0.00043   0.00056  -1.00637
   D12       -3.10856  -0.00001   0.00010  -0.00028  -0.00017  -3.10874
   D13       -1.08390  -0.00001  -0.00011  -0.00008  -0.00019  -1.08409
   D14        3.10849   0.00001  -0.00010   0.00029   0.00019   3.10868
   D15        1.00685  -0.00002  -0.00012  -0.00042  -0.00054   1.00632
   D16        3.14159   0.00000   0.00000   0.00001   0.00002  -3.14158
   D17        1.05079   0.00002   0.00001   0.00038   0.00040   1.05119
   D18       -1.05085  -0.00002  -0.00001  -0.00033  -0.00033  -1.05118
   D19       -1.08395  -0.00001  -0.00011   0.00007  -0.00004  -1.08399
   D20        3.10846   0.00001  -0.00010   0.00043   0.00033   3.10879
   D21        1.00682  -0.00003  -0.00012  -0.00029  -0.00041   1.00641
   D22        1.08384   0.00001   0.00011   0.00025   0.00036   1.08420
   D23       -1.00694   0.00003   0.00012   0.00061   0.00074  -1.00621
   D24       -3.10858  -0.00001   0.00011  -0.00012  -0.00001  -3.10859
   D25        3.14154   0.00000   0.00000   0.00017   0.00017  -3.14147
   D26        1.05076   0.00002   0.00001   0.00053   0.00054   1.05130
   D27       -1.05087  -0.00002  -0.00001  -0.00020  -0.00020  -1.05108
         Item               Value     Threshold  Converged?
 Maximum Force            0.000128     0.000450     YES
 RMS     Force            0.000031     0.000300     YES
 Maximum Displacement     0.000574     0.001800     YES
 RMS     Displacement     0.000223     0.001200     YES
 Predicted change in Energy=-2.007361D-07
 Optimization completed.
    -- Stationary point found.
                           ----------------------------
                           !   Optimized Parameters   !
                           ! (Angstroms and Degrees)  !
 --------------------------                            --------------------------
 ! Name  Definition              Value          Derivative Info.                !
 --------------------------------------------------------------------------------
 ! R1    R(1,2)                  1.5344         -DE/DX =   -0.0001              !
 ! R2    R(1,5)                  1.0953         -DE/DX =    0.0                 !
 ! R3    R(1,6)                  1.0968         -DE/DX =    0.0                 !
 ! R4    R(1,7)                  1.0953         -DE/DX =    0.0                 !
 ! R5    R(2,3)                  1.5344         -DE/DX =   -0.0001              !
 ! R6    R(2,4)                  1.5344         -DE/DX =   -0.0001              !
 ! R7    R(2,8)                  1.0992         -DE/DX =    0.0                 !
 ! R8    R(3,9)                  1.0968         -DE/DX =    0.0                 !
 ! R9    R(3,10)                 1.0953         -DE/DX =    0.0                 !
 ! R10   R(3,11)                 1.0953         -DE/DX =    0.0                 !
 ! R11   R(4,12)                 1.0968         -DE/DX =    0.0                 !
 ! R12   R(4,13)                 1.0953         -DE/DX =    0.0                 !
 ! R13   R(4,14)                 1.0953         -DE/DX =    0.0                 !
 ! A1    A(2,1,5)              111.3916         -DE/DX =    0.0                 !
 ! A2    A(2,1,6)              110.8389         -DE/DX =    0.0                 !
 ! A3    A(2,1,7)              111.3913         -DE/DX =    0.0                 !
 ! A4    A(5,1,6)              107.6139         -DE/DX =    0.0                 !
 ! A5    A(5,1,7)              107.8118         -DE/DX =    0.0                 !
 ! A6    A(6,1,7)              107.6147         -DE/DX =    0.0                 !
 ! A7    A(1,2,3)              111.0919         -DE/DX =    0.0                 !
 ! A8    A(1,2,4)              111.0905         -DE/DX =    0.0                 !
 ! A9    A(1,2,8)              107.7982         -DE/DX =    0.0                 !
 ! A10   A(3,2,4)              111.0918         -DE/DX =    0.0                 !
 ! A11   A(3,2,8)              107.798          -DE/DX =    0.0                 !
 ! A12   A(4,2,8)              107.7976         -DE/DX =    0.0                 !
 ! A13   A(2,3,9)              110.8403         -DE/DX =    0.0                 !
 ! A14   A(2,3,10)             111.3913         -DE/DX =    0.0                 !
 ! A15   A(2,3,11)             111.3892         -DE/DX =    0.0                 !
 ! A16   A(9,3,10)             107.6152         -DE/DX =    0.0                 !
 ! A17   A(9,3,11)             107.6142         -DE/DX =    0.0                 !
 ! A18   A(10,3,11)            107.8122         -DE/DX =    0.0                 !
 ! A19   A(2,4,12)             110.8409         -DE/DX =    0.0                 !
 ! A20   A(2,4,13)             111.3906         -DE/DX =    0.0                 !
 ! A21   A(2,4,14)             111.3903         -DE/DX =    0.0                 !
 ! A22   A(12,4,13)            107.6145         -DE/DX =    0.0                 !
 ! A23   A(12,4,14)            107.6142         -DE/DX =    0.0                 !
 ! A24   A(13,4,14)            107.8117         -DE/DX =    0.0                 !
 ! D1    D(5,1,2,3)             57.7006         -DE/DX =    0.0                 !
 ! D2    D(5,1,2,4)           -178.0945         -DE/DX =    0.0                 !
 ! D3    D(5,1,2,8)            -60.1976         -DE/DX =    0.0                 !
 ! D4    D(6,1,2,3)            -62.0909         -DE/DX =    0.0                 !
 ! D5    D(6,1,2,4)             62.114          -DE/DX =    0.0                 !
 ! D6    D(6,1,2,8)           -179.9891         -DE/DX =    0.0                 !
 ! D7    D(7,1,2,3)            178.1168         -DE/DX =    0.0                 !
 ! D8    D(7,1,2,4)            -57.6782         -DE/DX =    0.0                 !
 ! D9    D(7,1,2,8)             60.2187         -DE/DX =    0.0                 !
 ! D10   D(1,2,3,9)             62.1014         -DE/DX =    0.0                 !
 ! D11   D(1,2,3,10)           -57.6924         -DE/DX =    0.0                 !
 ! D12   D(1,2,3,11)          -178.1074         -DE/DX =    0.0                 !
 ! D13   D(4,2,3,9)            -62.1028         -DE/DX =    0.0                 !
 ! D14   D(4,2,3,10)           178.1034         -DE/DX =    0.0                 !
 ! D15   D(4,2,3,11)            57.6884         -DE/DX =    0.0                 !
 ! D16   D(8,2,3,9)           -180.0004         -DE/DX =    0.0                 !
 ! D17   D(8,2,3,10)            60.2058         -DE/DX =    0.0                 !
 ! D18   D(8,2,3,11)           -60.2092         -DE/DX =    0.0                 !
 ! D19   D(1,2,4,12)           -62.1056         -DE/DX =    0.0                 !
 ! D20   D(1,2,4,13)           178.1014         -DE/DX =    0.0                 !
 ! D21   D(1,2,4,14)            57.6867         -DE/DX =    0.0                 !
 ! D22   D(3,2,4,12)            62.0993         -DE/DX =    0.0                 !
 ! D23   D(3,2,4,13)           -57.6936         -DE/DX =    0.0                 !
 ! D24   D(3,2,4,14)          -178.1083         -DE/DX =    0.0                 !
 ! D25   D(8,2,4,12)          -180.0029         -DE/DX =    0.0                 !
 ! D26   D(8,2,4,13)            60.2042         -DE/DX =    0.0                 !
 ! D27   D(8,2,4,14)           -60.2106         -DE/DX =    0.0                 !
 --------------------------------------------------------------------------------
 GradGradGradGradGradGradGradGradGradGradGradGradGradGradGradGradGradGrad

                          Input orientation:                          
 ---------------------------------------------------------------------
 Center     Atomic      Atomic             Coordinates (Angstroms)
 Number     Number       Type             X           Y           Z
 ---------------------------------------------------------------------
      1          6           0        0.913004    0.080835   -0.016149
      2          6           0        2.446772    0.071836    0.027758
      3          6           0        2.979130    1.173130    0.954128
      4          6           0        2.979137   -1.305547    0.444681
      5          1           0        0.528476    1.051995   -0.345699
      6          1           0        0.493050   -0.122957    0.976366
      7          1           0        0.528500   -0.681898   -0.701722
      8          1           0        2.813190    0.280473   -0.987365
      9          1           0        2.641465    1.012673    1.985251
     10          1           0        2.628969    2.162503    0.640853
     11          1           0        4.074188    1.192674    0.963224
     12          1           0        2.641529   -1.564761    1.455524
     13          1           0        4.074192   -1.327144    0.445251
     14          1           0        2.628898   -2.091163   -0.233371
 ---------------------------------------------------------------------
                    Distance matrix (angstroms):
                    1          2          3          4          5
     1  C    0.000000
     2  C    1.534422   0.000000
     3  C    2.530498   1.534410   0.000000
     4  C    2.530479   1.534412   2.530489   0.000000
     5  H    1.095270   2.186330   2.776676   3.491195   0.000000
     6  H    1.096804   2.180557   2.803735   2.803897   1.769074
     7  H    1.095270   2.186326   3.491211   2.776472   1.770067
     8  H    2.143321   1.099212   2.143307   2.143305   2.495376
     9  H    2.803837   2.180563   1.096804   2.803841   3.146362
    10  H    2.776603   2.186314   1.095269   3.491199   2.572660
    11  H    3.491195   2.186289   1.095270   2.776533   3.782214
    12  H    2.803855   2.180572   2.803822   1.096802   3.815338
    13  H    3.491190   2.186308   2.776596   1.095269   4.342581
    14  H    2.776519   2.186303   3.491192   1.095269   3.782041
                    6          7          8          9         10
     6  H    0.000000
     7  H    1.769082   0.000000
     8  H    3.066276   2.495507   0.000000
     9  H    2.631196   3.815234   3.066276   0.000000
    10  H    3.146116   3.782207   2.495409   1.769087   0.000000
    11  H    3.815181   4.342576   2.495400   1.769077   1.770070
    12  H    2.631416   3.146116   3.066278   2.631306   3.815277
    13  H    3.815328   3.782040   2.495386   3.146275   3.782138
    14  H    3.146291   2.572363   2.495422   3.815264   4.342573
                   11         12         13         14
    11  H    0.000000
    12  H    3.146159   0.000000
    13  H    2.572505   1.769078   0.000000
    14  H    3.782101   1.769075   1.770065   0.000000
 Stoichiometry    C4H10
 Framework group  C1[X(C4H10)]
 Deg. of freedom    36
 Full point group                 C1      NOp   1
 Largest Abelian subgroup         C1      NOp   1
 Largest concise Abelian subgroup C1      NOp   1
                         Standard orientation:                         
 ---------------------------------------------------------------------
 Center     Atomic      Atomic             Coordinates (Angstroms)
 Number     Number       Type             X           Y           Z
 ---------------------------------------------------------------------
      1          6           0       -1.076503    0.987728    0.095839
      2          6           0        0.000010    0.000001   -0.373169
      3          6           0        1.393653    0.438409    0.095845
      4          6           0       -0.317156   -1.426132    0.095843
      5          1           0       -0.872653    2.001682   -0.264659
      6          1           0       -1.119246    1.027214    1.191098
      7          1           0       -2.069260    0.697355   -0.264346
      8          1           0        0.000015   -0.000007   -1.472381
      9          1           0        1.449174    0.455890    1.191103
     10          1           0        1.638669    1.443250   -0.264535
     11          1           0        2.169778   -0.245261   -0.264490
     12          1           0       -0.329751   -1.482975    1.191098
     13          1           0        0.430546   -2.140743   -0.264556
     14          1           0       -1.297298   -1.756444   -0.264475
 ---------------------------------------------------------------------
 Rotational constants (GHZ):           7.7488507           7.7487504           4.4862274

 **********************************************************************

            Population analysis using the SCF density.

 **********************************************************************

 Orbital symmetries:
       Occupied  (A) (A) (A) (A) (A) (A) (A) (A) (A) (A) (A) (A)
                 (A) (A) (A) (A) (A)
       Virtual   (A) (A) (A) (A) (A) (A) (A) (A) (A) (A) (A) (A)
                 (A) (A) (A) (A) (A) (A) (A) (A) (A) (A) (A) (A)
                 (A) (A) (A) (A) (A) (A) (A) (A) (A) (A) (A) (A)
                 (A) (A) (A) (A) (A) (A) (A) (A) (A) (A) (A) (A)
                 (A) (A) (A) (A) (A) (A) (A) (A) (A) (A) (A) (A)
                 (A) (A) (A) (A) (A) (A) (A) (A) (A) (A) (A) (A)
                 (A) (A) (A) (A) (A) (A) (A) (A) (A) (A) (A) (A)
                 (A) (A) (A) (A) (A) (A) (A) (A) (A) (A) (A) (A)
                 (A) (A) (A) (A) (A) (A) (A) (A) (A) (A) (A) (A)
                 (A) (A) (A) (A) (A) (A) (A) (A) (A) (A) (A) (A)
                 (A) (A) (A) (A) (A) (A) (A) (A) (A) (A) (A) (A)
                 (A) (A) (A) (A) (A) (A) (A) (A) (A) (A) (A) (A)
                 (A)
 The electronic state is 1-A.
 Alpha  occ. eigenvalues --  -10.18318 -10.16731 -10.16731 -10.16730  -0.79534
 Alpha  occ. eigenvalues --   -0.67628  -0.67628  -0.55438  -0.45631  -0.42427
 Alpha  occ. eigenvalues --   -0.42426  -0.37745  -0.37745  -0.35762  -0.32194
 Alpha  occ. eigenvalues --   -0.32193  -0.31675
 Alpha virt. eigenvalues --    0.08436   0.13643   0.15343   0.15343   0.15748
 Alpha virt. eigenvalues --    0.15748   0.17475   0.19630   0.19630   0.21787
 Alpha virt. eigenvalues --    0.22593   0.25220   0.25222   0.46190   0.46191
 Alpha virt. eigenvalues --    0.47931   0.50085   0.50085   0.57358   0.61923
 Alpha virt. eigenvalues --    0.62460   0.62461   0.64632   0.64632   0.71185
 Alpha virt. eigenvalues --    0.73278   0.73279   0.74125   0.75155   0.75156
 Alpha virt. eigenvalues --    0.77132   0.78780   0.84963   0.84964   0.86292
 Alpha virt. eigenvalues --    0.90531   0.90532   0.93304   1.10826   1.10827
 Alpha virt. eigenvalues --    1.11891   1.31737   1.31739   1.36786   1.38556
 Alpha virt. eigenvalues --    1.38557   1.44875   1.49968   1.52193   1.52194
 Alpha virt. eigenvalues --    1.59212   1.61382   1.61382   1.81929   1.81929
 Alpha virt. eigenvalues --    1.82650   1.86196   1.86198   1.92966   1.96890
 Alpha virt. eigenvalues --    1.97151   1.97151   2.22828   2.22830   2.24160
 Alpha virt. eigenvalues --    2.29032   2.29033   2.30911   2.39082   2.43026
 Alpha virt. eigenvalues --    2.43028   2.53937   2.53940   2.68218   2.70895
 Alpha virt. eigenvalues --    2.74859   2.79932   2.79937   2.85761   2.85762
 Alpha virt. eigenvalues --    2.89022   2.89022   2.90203   2.95417   2.96539
 Alpha virt. eigenvalues --    2.96540   2.99576   3.03766   3.03767   3.07861
 Alpha virt. eigenvalues --    3.15733   3.15735   3.32769   3.38794   3.38795
 Alpha virt. eigenvalues --    3.45115   3.47008   3.47009   3.53445   3.57592
 Alpha virt. eigenvalues --    3.57592   3.60570   3.68466   3.69174   3.69175
 Alpha virt. eigenvalues --    3.78995   3.83388   3.83389   3.93289   4.02058
 Alpha virt. eigenvalues --    4.02060   4.12576   4.22822   4.22823   4.42076
 Alpha virt. eigenvalues --    4.42459   4.42461   4.47286   4.47288   4.60506
 Alpha virt. eigenvalues --    4.60509   4.65083   4.65084   4.65298   4.68549
 Alpha virt. eigenvalues --    4.73269   4.73270   4.80849   4.80852   4.84544
 Alpha virt. eigenvalues --    4.84595   4.84595   4.87308   4.92690   5.07333
 Alpha virt. eigenvalues --    5.28219   5.28220   5.32991   5.47777   5.47778
 Alpha virt. eigenvalues --    5.67759  11.12777  11.79270  11.79270  12.40063
          Condensed to atoms (all electrons):
               1          2          3          4          5          6
     1  C    4.968765   0.423819  -0.042607  -0.042610   0.371393   0.373674
     2  C    0.423819   4.518983   0.423819   0.423826  -0.023352  -0.027730
     3  C   -0.042607   0.423819   4.968749  -0.042608  -0.003283  -0.005846
     4  C   -0.042610   0.423826  -0.042608   4.968766   0.004761  -0.005841
     5  H    0.371393  -0.023352  -0.003283   0.004761   0.607337  -0.032983
     6  H    0.373674  -0.027730  -0.005846  -0.005841  -0.032983   0.606791
     7  H    0.371394  -0.023354   0.004761  -0.003289  -0.031711  -0.032982
     8  H   -0.044742   0.368805  -0.044744  -0.044741  -0.003183   0.006266
     9  H   -0.005844  -0.027728   0.373675  -0.005843  -0.000186   0.004806
    10  H   -0.003285  -0.023354   0.371395   0.004761   0.003781  -0.000185
    11  H    0.004761  -0.023355   0.371393  -0.003287  -0.000063  -0.000055
    12  H   -0.005842  -0.027730  -0.005844   0.373675  -0.000055   0.004804
[...]
 ! A24   A(13,4,14)            107.8117         -DE/DX =    0.0                 !
 ! D1    D(5,1,2,3)             57.7006         -DE/DX =    0.0                 !
 ! D2    D(5,1,2,4)           -178.0945         -DE/DX =    0.0                 !
 ! D3    D(5,1,2,8)            -60.1976         -DE/DX =    0.0                 !
 ! D4    D(6,1,2,3)            -62.0909         -DE/DX =    0.0                 !
 ! D5    D(6,1,2,4)             62.114          -DE/DX =    0.0                 !
 ! D6    D(6,1,2,8)           -179.9891         -DE/DX =    0.0                 !
 ! D7    D(7,1,2,3)            178.1168         -DE/DX =    0.0                 !
 ! D8    D(7,1,2,4)            -57.6782         -DE/DX =    0.0                 !
 ! D9    D(7,1,2,8)             60.2187         -DE/DX =    0.0                 !
 ! D10   D(1,2,3,9)             62.1014         -DE/DX =    0.0                 !
 ! D11   D(1,2,3,10)           -57.6924         -DE/DX =    0.0                 !
 ! D12   D(1,2,3,11)          -178.1074         -DE/DX =    0.0                 !
 ! D13   D(4,2,3,9)            -62.1028         -DE/DX =    0.0                 !
 ! D14   D(4,2,3,10)           178.1034         -DE/DX =    0.0                 !
 ! D15   D(4,2,3,11)            57.6884         -DE/DX =    0.0                 !
 ! D16   D(8,2,3,9)           -180.0004         -DE/DX =    0.0                 !
 ! D17   D(8,2,3,10)            60.2058         -DE/DX =    0.0                 !
 ! D18   D(8,2,3,11)           -60.2092         -DE/DX =    0.0                 !
 ! D19   D(1,2,4,12)           -62.1056         -DE/DX =    0.0                 !
 ! D20   D(1,2,4,13)           178.1014         -DE/DX =    0.0                 !
 ! D21   D(1,2,4,14)            57.6867         -DE/DX =    0.0                 !
 ! D22   D(3,2,4,12)            62.0993         -DE/DX =    0.0                 !
 ! D23   D(3,2,4,13)           -57.6936         -DE/DX =    0.0                 !
 ! D24   D(3,2,4,14)          -178.1083         -DE/DX =    0.0                 !
 ! D25   D(8,2,4,12)          -180.0029         -DE/DX =    0.0                 !
 ! D26   D(8,2,4,13)            60.2042         -DE/DX =    0.0                 !
 ! D27   D(8,2,4,14)           -60.2106         -DE/DX =    0.0                 !
 --------------------------------------------------------------------------------
 GradGradGradGradGradGradGradGradGradGradGradGradGradGradGradGradGradGrad


 ----------------------------------------------------------------------

 Electric dipole moment (input orientation):
 (Debye = 10**-18 statcoulomb cm , SI units = C m)
                  (au)            (Debye)         (10**-30 SI)
   Tot        0.354165D-01      0.900199D-01      0.300274D+00
   x          0.118103D-01      0.300187D-01      0.100132D+00
   y          0.671178D-02      0.170596D-01      0.569048D-01
   z         -0.327078D-01     -0.831350D-01     -0.277308D+00

 Dipole polarizability, Alpha (input orientation).
 (esu units = cm**3 , SI units = C**2 m**2 J**-1)
 Alpha(0;0):
               (au)            (10**-24 esu)      (10**-40 SI)
   iso        0.454632D+02      0.673695D+01      0.749587D+01
   aniso      0.547014D+01      0.810592D+00      0.901905D+00
   xx         0.466787D+02      0.691706D+01      0.769627D+01
   yx        -0.346149D+00     -0.512940D-01     -0.570723D-01
   yy         0.470895D+02      0.697795D+01      0.776402D+01
   zx         0.168394D+01      0.249534D+00      0.277644D+00
   zy         0.958851D+00      0.142087D+00      0.158093D+00
   zz         0.426213D+02      0.631583D+01      0.702731D+01

 ----------------------------------------------------------------------

 Dipole orientation:
     6          1.61038956         -0.08743756          0.63247227
     6          4.36945838          0.00875185          1.51914372
     6          5.83270074         -2.33223634          0.63231548
     6          5.66556679          2.44677358          0.63373778
     1          0.65778176         -1.79425322          1.31307922
     1          1.50076731         -0.09103004         -1.43728299
     1          0.54112090          1.54865400          1.31348164
     1          4.36921403          0.00813139          3.59635371
     1          5.89123103         -2.42490923         -1.43744259
     1          4.95040680         -4.07652227          1.31269825
     1          7.78694725         -2.30375140          1.31350404
     1          5.71755088          2.54450492         -1.43595881
     1          7.61699109          2.55460571          1.31507029
     1          4.66346715          4.12473337          1.31501981

 Electric dipole moment (dipole orientation):
 (Debye = 10**-18 statcoulomb cm , SI units = C m)
                  (au)            (Debye)         (10**-30 SI)
   Tot        0.354165D-01      0.900199D-01      0.300274D+00
   x          0.000000D+00      0.000000D+00      0.000000D+00
   y          0.000000D+00      0.000000D+00      0.000000D+00
   z          0.354165D-01      0.900199D-01      0.300274D+00

 Dipole polarizability, Alpha (dipole orientation).
 (esu units = cm**3 , SI units = C**2 m**2 J**-1)
 Alpha(0;0):
               (au)            (10**-24 esu)      (10**-40 SI)
   iso        0.454632D+02      0.673695D+01      0.749587D+01
   aniso      0.547014D+01      0.810592D+00      0.901905D+00
   xx         0.472865D+02      0.700714D+01      0.779649D+01
   yx         0.436927D-04      0.647459D-05      0.720396D-05
   yy         0.472866D+02      0.700715D+01      0.779651D+01
   zx         0.638903D-03      0.946757D-04      0.105341D-03
   zy         0.164694D-02      0.244051D-03      0.271544D-03
   zz         0.418164D+02      0.619655D+01      0.689460D+01

 ----------------------------------------------------------------------
 1\1\GINC-LEWIS4-R630-HPC4RC-NODE351\Freq\RB3LYP\6-31G(2df,p)\C4H10\LIN
 JIAN\27-May-2023\0\\#N Geom=AllCheck Guess=TCheck SCRF=Check GenChk RB
 3LYP/6-31G(2df,p) Freq\\Title Card Required\\0,1\C,0.9130040051,0.0808
 35459,-0.016149071\C,2.4467715185,0.0718356892,0.0277582816\C,2.979130
 1917,1.1731296284,0.9541279691\C,2.9791365526,-1.3055474122,0.44468087
 01\H,0.5284761754,1.0519954044,-0.345698584\H,0.4930498569,-0.12295680
 88,0.9763661413\H,0.5285002119,-0.6818976262,-0.7017222569\H,2.8131900
 772,0.280473409,-0.9873650135\H,2.6414651633,1.0126728393,1.9852506468
 \H,2.6289687922,2.162502845,0.6408534983\H,4.0741881273,1.192674205,0.
 9632239338\H,2.6415288184,-1.5647605675,1.4555238105\H,4.0741922727,-1
 .3271440906,0.4452512015\H,2.6288982369,-2.091162974,-0.2333714277\\Ve
 rsion=ES64L-G16RevA.03\State=1-A\HF=-158.4734879\RMSD=1.058e-09\RMSF=7
 .002e-05\ZeroPoint=0.1311642\Thermal=0.1368995\Dipole=0.0118103,0.0067
 118,-0.0327078\DipoleDeriv=0.0211945,0.0012791,-0.0062653,0.0089682,0.
 0723097,-0.0092382,-0.0437108,-0.0092109,0.1152803,0.1735677,-0.002975
 9,0.0145531,-0.0030447,0.1771234,0.008218,0.014538,0.0082994,0.1384915
 ,0.0673068,-0.0174145,-0.0385458,-0.0104375,0.0392617,-0.0468398,-0.01
 76059,-0.0156371,0.1022313,0.0673148,0.0312027,-0.0285588,0.0165759,0.
 0263677,0.0143418,-0.0120372,-0.0169154,0.1151006,-0.0198293,0.0617811
 ,-0.0179191,0.0955557,-0.120841,0.0620895,-0.024119,0.0539578,0.037844
 ,-0.0051376,-0.0068817,0.0335148,-0.0187714,0.0446136,0.0360075,0.0914
 343,0.0360038,-0.1233286,-0.0198079,-0.049716,-0.0408179,-0.0783104,-0
 .0541756,-0.1015436,-0.0598123,-0.0934164,-0.0288345,-0.0436833,-0.011
 0059,0.0535723,-0.0110109,-0.03061,0.0305053,0.0535724,0.0305004,-0.17
 27607,0.0250967,-0.0160738,0.0722874,-0.0268459,0.0270163,0.045245,0.0
 398934,-0.0030535,-0.1359706,0.0319851,0.0718665,-0.0250215,0.0449824,
 -0.1567365,0.0216963,-0.0265859,0.0444964,0.0219196,-0.1775413,-0.0331
 178,-0.0267254,-0.0015316,0.0392976,-0.0188841,-0.0110702,-0.0206878,0
 .0354298,0.0251034,-0.0137258,0.0727622,0.0089421,0.0169667,0.0204222,
 0.0472364,0.0686795,-0.1259265,-0.1775534,0.0409706,-0.0114959,0.00580
 22,0.0243517,0.01414,-0.0095524,0.0159342,0.0503729,0.0319839,-0.05618
 87,-0.0513401,-0.0308742,-0.1049455,-0.0761598,-0.042181,-0.0989505,-0
 .0298491\Polar=46.6786668,-0.3461491,47.0895485,1.6839359,0.9588512,42
 .6213278\Quadrupole=-0.0953474,-0.1275286,0.222876,0.0271256,-0.132063
 4,-0.0752051\PG=C01 [X(C4H10)]\NImag=0\\0.45962382,-0.00042925,0.57208
 660,0.00210750,0.00208425,0.56240152,-0.18036348,-0.00027948,0.0013311
 5,0.47881312,0.00012041,-0.07665504,0.00039984,0.00737949,0.47016042,-
 0.00060910,0.00040089,-0.07853694,-0.03580059,-0.02034466,0.56511915,-
 0.01861924,-0.02724882,-0.02387971,-0.08844077,-0.02448501,-0.02037947
 ,0.55829746,-0.00536335,-0.00139921,-0.00185605,-0.02482303,-0.1283443
 1,-0.04441786,-0.02771282,0.51570050,-0.00453913,-0.00191296,-0.001536
 94,-0.02145539,-0.04602974,-0.11879556,-0.01969175,-0.04672772,0.52017
 916,-0.01862237,0.03446344,-0.01120182,-0.08844925,0.03051236,-0.00908
 141,0.00459031,-0.00941814,0.00375328,0.55830684,0.00671746,-0.0027824
 4,0.00132555,0.03127497,-0.15960582,0.02687822,0.00717750,-0.03222643,
 0.00368134,0.03324637,0.48242286,-0.00205625,0.00137118,-0.00014631,-0
 .00993248,0.02848688,-0.08754288,0.00716487,-0.02011808,0.00608780,-0.
 00716158,0.03055773,0.55339373,-0.07582765,0.07705225,-0.02644890,-0.0
 1058055,0.03057469,-0.01104189,0.00152976,0.00150017,0.00034269,-0.007
 02772,-0.00189797,0.00036439,0.08410170,0.07845689,-0.25394029,0.07051
 675,-0.00089305,-0.00035410,-0.00074487,-0.00053057,0.00069226,-0.0001
 3678,0.00049601,0.00111848,-0.00058569,-0.08653844,0.27531664,-0.02688
 154,0.07026738,-0.07113301,0.00055055,-0.00034565,-0.00141140,0.000029
 31,0.00071074,-0.00010408,-0.00032710,-0.00034938,0.00043216,0.0295637
 2,-0.07760520,0.07270021,-0.08097428,-0.01749391,0.08518657,-0.0142436
 6,-0.00662087,0.03223994,0.00168103,0.00073292,0.00144314,0.00167996,-
 0.00124526,0.00104053,0.00366294,0.00132698,-0.01042874,0.09081055,-0.
 01758596,-0.05617981,0.04364693,-0.00005200,-0.00104032,-0.00013217,-0
 .00005488,-0.00001345,0.00091154,0.00020216,0.00042626,-0.00114450,-0.
 01127809,-0.00491953,0.02685965,0.01969749,0.05608581,0.08566683,0.043
 64329,-0.25975958,0.00023284,-0.00014363,-0.00036224,-0.00039019,-0.00
 012418,0.00096441,-0.00033510,-0.00010710,0.00052412,0.00294227,0.0009
 1400,-0.00853550,-0.09593411,-0.04852664,0.28236615,-0.07581943,-0.060
 39864,-0.05466003,-0.01057650,-0.02375225,-0.02219686,-0.00702806,0.00
 160009,0.00108324,0.00153183,-0.00150947,-0.00027999,0.00322558,0.0072
 5026,0.00772993,0.00366342,0.00920624,0.00714653,0.08409432,-0.0615199
 6,-0.17456472,-0.11487665,0.00060670,-0.00090472,0.00096032,-0.0003263
 9,0.00067279,0.00068934,0.00048073,0.00077267,0.00051780,-0.00970919,-
 0.01939607,-0.01878204,0.00288997,0.00457764,0.00470840,0.06788755,0.1
 8762578,-0.05561578,-0.11462157,-0.15049954,0.00085600,0.00055943,-0.0
 0085273,-0.00049706,0.00045213,0.00087768,0.00023966,-0.00033184,-0.00
 019112,0.00424759,0.00763519,0.00660408,-0.01010593,-0.02123722,-0.018
 03233,0.06126676,0.12689298,0.16037267,-0.01567557,-0.00654560,0.03185
 096,-0.07427640,-0.01551920,0.07548435,0.00336353,0.00132753,-0.011745
 58,0.00336361,0.00341717,-0.01131528,0.00139296,0.00048369,-0.00026292
 ,-0.00696727,0.00004975,-0.00024591,0.00139500,-0.00034044,-0.00043350
 ,0.08595638,0.00003132,-0.00011789,-0.00013367,-0.01551202,-0.05586221
 ,0.04298395,0.00727543,0.00255186,-0.02450524,-0.00911323,-0.00923795,
 0.02964409,-0.00017407,0.00030335,-0.00049305,0.00010466,0.00073869,-0
 .00019947,-0.00004025,-0.00001049,0.00033755,0.01667605,0.06616287,-0.
 00015323,-0.00013276,0.00050143,0.07548479,0.04297451,-0.25615792,0.00
 615466,0.00217460,-0.02120885,0.00278758,0.00296652,-0.00941694,0.0005
 1494,-0.00039316,0.00034940,-0.00050885,-0.00019900,0.00166779,0.00054
 215,0.00023881,0.00066246,-0.08113649,-0.04620189,0.28145500,0.0012869
 9,0.00067163,-0.00099543,0.00283632,0.00207909,-0.01125295,-0.07279910
 ,-0.01286418,0.07595455,-0.00004641,0.00041988,0.00034249,-0.00004032,
 0.00000799,-0.00005072,0.00005553,-0.00020974,0.00038095,0.00008075,0.
 00008820,0.00025772,-0.00005016,-0.00174766,-0.00190388,0.07504730,0.0
 0118297,0.00071629,0.00030275,0.00803439,0.00301629,-0.02359841,-0.012
 94862,-0.05355380,0.03894726,0.00050106,0.00194860,-0.00094248,-0.0001
 6080,-0.00002845,0.00010433,-0.00029994,0.00015938,0.00047003,0.000233
 03,-0.00003216,0.00019428,-0.00179625,-0.00315002,-0.00352111,0.015550
 67,0.05611230,0.00114709,0.00075675,0.00062515,0.00664373,0.00307372,-
 0.02156756,0.07568739,0.03855122,-0.27057546,-0.00000711,0.00127449,0.
 00073186,-0.00004585,-0.00002048,-0.00003122,-0.00107755,-0.00026269,0
 .00042117,-0.00011605,-0.00011063,0.00051317,-0.00205070,-0.00374085,-
 0.00136027,-0.08283967,-0.03966050,0.29815439,0.00102777,-0.00080711,0
 .00060721,0.00239986,-0.01047007,0.00442675,-0.07494257,0.07669437,-0.
 02536392,-0.00079013,-0.00151691,-0.00138274,-0.00007910,0.00013681,-0
 .00025899,-0.00004910,-0.00003732,0.00000615,0.00013637,0.00019279,0.0
 0008516,0.00017849,0.00058232,0.00026961,0.00297527,-0.01033076,0.0030
 6473,0.07779986,0.00126206,0.00056161,0.00096983,0.00814789,-0.0208725
 1,0.00845800,0.07569776,-0.25588912,0.06953685,-0.00282975,-0.00218225
 ,-0.00461954,-0.00104834,0.00047209,-0.00036028,-0.00007739,-0.0000058
 5,-0.00003143,0.00003142,0.00046899,-0.00020941,0.00031373,0.00095737,
 -0.00029755,0.00144401,-0.00416913,0.00120531,-0.08314622,0.28068668,0
 .00087608,0.00020232,0.00052603,0.00728924,-0.01927294,0.00615286,-0.0
 2537097,0.07063313,-0.07009494,-0.00190753,-0.00255392,-0.00250610,-0.
 00020650,0.00022269,0.00013413,-0.00013494,0.00011886,-0.00004340,0.00
 029765,0.00007198,-0.00006392,0.00060993,0.00062925,0.00091382,-0.0110
 1576,0.02716864,-0.00859932,0.02909038,-0.07466460,0.07363141,0.000823
 44,-0.00238055,-0.00236376,-0.01118675,0.00095039,0.00080293,-0.307104
 11,-0.00212599,0.00065622,0.00030738,0.00085167,0.00045902,0.00029473,
 0.00007007,0.00013863,0.00033629,0.00013342,0.00007096,-0.00086920,-0.
 00011352,-0.00005623,0.00059803,0.00010091,-0.00050413,-0.00945338,0.0
 0037662,-0.00029398,-0.00969052,-0.00029218,0.00051944,0.33492308,-0.0
 0064564,-0.00379414,-0.00323195,-0.02413755,-0.00075197,0.00165376,-0.
 00085577,-0.04703092,0.00027464,-0.00125158,0.00145074,0.00039675,-0.0
 0014971,0.00026399,-0.00021223,0.00030278,-0.00004277,0.00002553,-0.00
 168927,0.00028441,-0.00031544,0.00069800,0.00083606,0.00037143,-0.0057
 0104,-0.00095850,-0.00000019,0.02937576,0.00089133,-0.00103811,0.00313
 840,0.04904030,-0.00056793,-0.00340413,-0.00250609,-0.02144435,0.00051
 230,-0.00038981,0.00144747,0.00032932,-0.04675284,0.00007858,0.0009997
 8,0.00035231,0.00041695,-0.00005516,-0.00001755,-0.00033061,-0.0002268
 6,0.00026853,-0.00149950,-0.00033836,0.00031323,0.00013443,0.00090372,
 0.00061339,0.03091091,-0.00043894,0.00062477,-0.01030189,-0.00039427,-
 0.00076777,0.00061672,0.00215682,0.04812761,0.00128877,-0.00022486,-0.
 00117382,0.00283665,0.00251727,-0.01116140,-0.00004720,-0.00051512,0.0
 0014690,-0.07278026,-0.01813407,0.07485758,0.00008080,-0.00018280,0.00
 020216,0.00005808,0.00004688,0.00042448,-0.00003990,0.00001151,-0.0000
 4775,-0.00005008,0.00235667,-0.00105995,0.00019712,-0.00024199,0.00011
 941,-0.00007540,-0.00010540,-0.00018637,-0.00001720,0.00002420,0.00016
 715,0.07502411,-0.00154023,0.00108869,-0.00010614,-0.01000415,-0.00824
 165,0.02930764,-0.00045949,0.00188071,0.00143461,-0.01795032,-0.059244
 01,0.05176171,-0.00016821,0.00008304,-0.00037893,0.00070497,0.00026172
 ,-0.00051643,0.00016580,0.00000216,-0.00009184,0.00246049,-0.00550405,
 0.00174399,0.00017937,-0.00018097,-0.00095789,0.00020760,0.00036655,-0
 .00036855,-0.00002709,-0.00010072,-0.00007347,0.01838618,0.06503437,0.
 00058718,-0.00055517,0.00025714,0.00294374,0.00264920,-0.01029121,-0.0
 0020311,-0.00078334,0.00080039,0.07464774,0.05215638,-0.26492783,-0.00
 019876,-0.00007384,0.00039806,-0.00087451,0.00020282,0.00029814,0.0000
 2164,0.00003384,-0.00006110,-0.00117644,0.00196252,0.00099307,0.000201
 22,0.00060169,0.00063066,-0.00015472,0.00002414,0.00027076,-0.00001704
 ,0.00001503,0.00001575,-0.08224485,-0.06040419,0.28927467,0.00082312,0
 .00312010,-0.00123442,-0.01117752,-0.00117675,0.00036962,0.00030906,-0
 .00097198,0.00008746,-0.30710432,0.00170897,0.00146003,-0.00086933,0.0
 0012654,-0.00000654,0.00033591,-0.00015072,0.00001265,0.00029503,-0.00
 011895,0.00010008,0.00059678,0.00010652,-0.00050483,-0.00001463,0.0000
 2950,-0.00000721,0.00039285,0.00003424,-0.00007859,0.00064530,0.000615
 05,0.00032289,-0.00945369,-0.00023451,-0.00041671,0.33491501,0.0008170
 0,-0.00599898,0.00173343,0.03063532,0.00008361,-0.00145434,0.00111904,
 0.00178997,0.00021541,0.00023139,-0.04677124,-0.00027047,0.00214379,0.
 00005212,0.00020320,-0.00014766,-0.00006706,-0.00016968,-0.00002677,0.
 00012355,0.00027284,-0.00069349,0.00126360,-0.00009102,-0.00008852,-0.
 00010712,-0.00006529,-0.00027303,0.00032664,0.00021527,-0.00068164,-0.
 00040691,-0.00020484,-0.00695408,-0.00087281,-0.00064314,-0.00315041,0
 .05046840,-0.00026795,0.00190460,-0.00030157,-0.01018363,-0.00031547,-
 0.00123212,0.00056533,-0.00037955,0.00001446,0.00169055,-0.00032835,-0
 .04701153,-0.00071167,0.00022651,0.00054575,-0.00042343,0.00008311,0.0
 0029297,0.00044233,0.00011591,0.00012318,-0.00015030,-0.00062482,0.000
 18716,0.00014028,0.00002212,0.00002189,-0.00006388,-0.00002066,-0.0001
 7815,0.00005676,-0.00009400,0.00028859,0.03065450,-0.00020238,0.000534
 35,-0.00069801,-0.00115936,0.04670368,0.00102810,0.00050079,0.00087448
 ,0.00240894,0.00789046,0.00820009,-0.00079010,0.00193950,-0.00067171,-
 0.07495946,-0.06051031,-0.05356061,0.00013619,-0.00021037,0.00000226,-
 0.00004940,0.00003277,0.00002166,-0.00008920,-0.00002899,-0.00029673,0
 .00017472,-0.00064664,0.00001762,-0.00007526,-0.00012987,-0.00022422,0
 .00071636,0.00056816,0.00021794,0.00039291,0.00027638,0.00004917,0.002
 97819,0.00827958,0.00688460,-0.00969356,-0.02293093,-0.02105087,0.0778
 2160,-0.00150373,0.00097933,-0.00077486,-0.01037748,-0.02062766,-0.019
 95046,0.00335265,-0.00483085,0.00362145,-0.05957049,-0.17608947,-0.115
 05537,-0.00014609,0.00033647,0.00038145,0.00012526,0.00001929,0.000057
 32,0.00104227,0.00038016,0.00046292,-0.00053144,0.00106881,0.00036662,
 0.00017030,0.00022727,-0.00004299,-0.00060823,-0.00161242,-0.00136404,
 -0.00000051,0.00031910,0.00023408,0.00301562,0.00542696,0.00481408,0.0
 0006239,0.00011624,0.00077235,0.06496948,0.19428678,0.00030621,-0.0000
 0407,0.00010870,0.00348439,0.00779621,0.00586838,-0.00063676,0.0015556
 4,0.00014478,-0.05317574,-0.11616942,-0.14977927,0.00026103,0.00010003
 ,0.00006898,-0.00009153,-0.00009383,-0.00007025,0.00022223,-0.00012171
 ,0.00023429,0.00043744,-0.00056210,0.00080048,-0.00012971,0.00035034,0
 .00041077,-0.00002387,0.00040361,0.00062458,-0.00008555,-0.00000204,-0
 .00017014,-0.01069804,-0.02114812,-0.01819286,0.00059358,0.00141801,0.
 00001132,0.05953631,0.12647745,0.15994024\\-0.00012202,-0.00003668,0.0
 0016334,0.00008334,0.00001481,-0.00021443,-0.00004598,0.00001669,0.000
 20087,-0.00003980,-0.00008138,0.00018866,-0.00001238,-0.00000155,-0.00
 005131,0.00002455,0.00001044,-0.00003790,-0.00001176,0.00002289,-0.000
 04568,-0.00000684,-0.00000400,0.00002041,0.00000998,0.00000346,-0.0000
 3951,0.00003836,0.00002492,-0.00002850,0.00001946,0.00003780,-0.000033
 39,0.00001209,0.00002085,-0.00004196,0.00001475,-0.00001966,-0.0000455
 0,0.00003624,-0.00000860,-0.00003509\\\@


 IF AT FIRST YOU DON'T SUCCEED, TRY, TRY AGAIN.
 THEN GIVE UP;
 THERE'S NO USE BEING A DAMN FOOL ABOUT IT.

                                 -- W. C. FIELDS
 Job cpu time:       0 days  0 hours 29 minutes 12.4 seconds.
 Elapsed time:       0 days  0 hours  7 minutes 18.8 seconds.
 File lengths (MBytes):  RWF=     33 Int=      0 D2E=      0 Chk=      3 Scr=      1
 Normal termination of Gaussian 16 at Sat May 27 21:20:23 2023.
### All Done ###
