### Starting Gaussian ###
 Entering Gaussian System, Link 0=g16
 Initial command:
 /cluster/software/gaussian/gaussian-16-A.03/avx2/g16/l1.exe "/local/scratch/cz9n3/Gau-19109.inp" -scrdir="/local/scratch/cz9n3/"
 Entering Link 1 = /cluster/software/gaussian/gaussian-16-A.03/avx2/g16/l1.exe PID=     19114.
  
 Copyright (c) 1988,1990,1992,1993,1995,1998,2003,2009,2016,
            Gaussian, Inc.  All Rights Reserved.
  
 This is part of the Gaussian(R) 16 program.  It is based on
 the Gaussian(R) 09 system (copyright 2009, Gaussian, Inc.),
 the Gaussian(R) 03 system (copyright 2003, Gaussian, Inc.),
 the Gaussian(R) 98 system (copyright 1998, Gaussian, Inc.),
 the Gaussian(R) 94 system (copyright 1995, Gaussian, Inc.),
 the Gaussian 92(TM) system (copyright 1992, Gaussian, Inc.),
 the Gaussian 90(TM) system (copyright 1990, Gaussian, Inc.),
 the Gaussian 88(TM) system (copyright 1988, Gaussian, Inc.),
 the Gaussian 86(TM) system (copyright 1986, Carnegie Mellon
 University), and the Gaussian 82(TM) system (copyright 1983,
 Carnegie Mellon University). Gaussian is a federally registered
 trademark of Gaussian, Inc.
  
 This software contains proprietary and confidential information,
 including trade secrets, belonging to Gaussian, Inc.
  
 This software is provided under written license and may be
 used, copied, transmitted, or stored only in accord with that
 written license.
  
 The following legend is applicable only to US Government
 contracts under FAR:
  
                    RESTRICTED RIGHTS LEGEND
  
 Use, reproduction and disclosure by the US Government is
 subject to restrictions as set forth in subparagraphs (a)
 and (c) of the Commercial Computer Software - Restricted
 Rights clause in FAR 52.227-19.
  
 Gaussian, Inc.
 340 Quinnipiac St., Bldg. 40, Wallingford CT 06492
  
  
 ---------------------------------------------------------------
 Warning -- This program may not be used in any manner that
 competes with the business of Gaussian, Inc. or will provide
 assistance to any competitor of Gaussian, Inc.  The licensee
 of this program is prohibited from giving any competitor of
 Gaussian, Inc. access to this program.  By using this program,
 the user acknowledges that Gaussian, Inc. is engaged in the
 business of creating and licensing software in the field of
 computational chemistry and represents and warrants to the
 licensee that it is not a competitor of Gaussian, Inc. and that
 it will not use this program in any manner prohibited above.
 ---------------------------------------------------------------
  

 Cite this work as:
 Gaussian 16, Revision A.03,
 M. J. Frisch, G. W. Trucks, H. B. Schlegel, G. E. Scuseria, 
 M. A. Robb, J. R. Cheeseman, G. Scalmani, V. Barone, 
 G. A. Petersson, H. Nakatsuji, X. Li, M. Caricato, A. V. Marenich, 
 J. Bloino, B. G. Janesko, R. Gomperts, B. Mennucci, H. P. Hratchian, 
 J. V. Ortiz, A. F. Izmaylov, J. L. Sonnenberg, D. Williams-Young, 
 F. Ding, F. Lipparini, F. Egidi, J. Goings, B. Peng, A. Petrone, 
 T. Henderson, D. Ranasinghe, V. G. Zakrzewski, J. Gao, N. Rega, 
 G. Zheng, W. Liang, M. Hada, M. Ehara, K. Toyota, R. Fukuda, 
 J. Hasegawa, M. Ishida, T. Nakajima, Y. Honda, O. Kitao, H. Nakai, 
 T. Vreven, K. Throssell, J. A. Montgomery, Jr., J. E. Peralta, 
 F. Ogliaro, M. J. Bearpark, J. J. Heyd, E. N. Brothers, K. N. Kudin, 
 V. N. Staroverov, T. A. Keith, R. Kobayashi, J. Normand, 
 K. Raghavachari, A. P. Rendell, J. C. Burant, S. S. Iyengar, 
 J. Tomasi, M. Cossi, J. M. Millam, M. Klene, C. Adamo, R. Cammi, 
 J. W. Ochterski, R. L. Martin, K. Morokuma, O. Farkas, 
 J. B. Foresman, and D. J. Fox, Gaussian, Inc., Wallingford CT, 2016.
 
 ******************************************
 Gaussian 16:  ES64L-G16RevA.03 25-Dec-2016
                26-May-2023 
 ******************************************
 %chk=CCqCCOrCCCCCCqOrCOO.chk
 %NProcShared=20
 Will use up to   20 processors via shared memory.
 ----------------------------------------------------------------
 # opt freq b3lyp/6-31+g(2df,p) Geom=AllCheckpoint TD(NStates=10)
 ----------------------------------------------------------------
 1/18=20,19=15,26=3,29=7,38=1/1,3;
 2/9=110,12=2,40=1/2;
 3/5=1,6=6,7=114,11=9,14=-4,25=1,30=1,71=1,74=-5/1,2,3,8;
 4//1;
 5/5=2,38=5/2;
 8/6=1,10=2,108=10/1;
 9/15=2,41=10,42=1,70=2/14;
 10/5=4/2;
 6/7=2,8=2,9=2,10=2/1;
 7/12=6,13=5/1,2,3,16;
 1/18=20,19=15,26=3/3(2);
 2/9=110/2;
 99//99;
 2/9=110/2;
 3/5=1,6=6,7=114,11=9,14=-2,25=1,30=1,71=1,74=-5/1,2,3,8;
 4/5=5,16=3,69=1/1;
 5/5=2,38=5/2;
 8/6=1,10=2,108=10/1;
 9/15=2,41=10,42=1,49=4,70=2/14;
 10/5=4/2;
 7/12=6,13=5/1,2,3,16;
 1/18=20,19=15,26=3/3(-8);
 2/9=110/2;
 6/7=2,8=2,9=2,10=2/1;
 99//99;
 Structure from the checkpoint file:  "CCqCCOrCCCCCCqOrCOO.chk"
 -------------------
 Title Card Required
 -------------------
 Charge =  0 Multiplicity = 1
 Redundant internal coordinates found in file.  (old form).
 C,0,0.9301315541,-0.0779050821,0.1790018337
 C,0,2.4457203369,-0.1107511421,-0.074979764
 C,0,2.7778828242,-0.5534855714,-1.5128272421
 C,0,2.3755694851,-1.9899489177,-1.8570550804
 O,0,2.8557206682,-2.3968607832,-3.131118182
 C,0,3.0651088758,1.2609228729,0.2610536542
 C,0,4.5967307874,1.2969766975,0.3290446905
 C,0,5.1446633161,2.6625374731,0.7607345948
 C,0,6.6743265944,2.7069418114,0.8316102253
 C,0,7.2211169444,4.068874154,1.2715698835
 C,0,8.7555428964,4.1274425111,1.2764816384
 O,0,9.3089324789,3.8018578918,0.0074624416
 C,0,9.2500597689,5.4853732674,1.7764394389
 O,0,10.6480698975,5.3800216929,1.9706318866
 O,0,11.0907572297,6.6529535163,2.495979075
 H,0,0.4633727791,-1.0556450196,0.0297494854
 H,0,0.4369911509,0.6326759171,-0.4957403989
 H,0,0.7129556828,0.2365548676,1.2051387252
 H,0,2.8867172146,-0.8488844112,0.6124121326
 H,0,3.8549817468,-0.4742259012,-1.693743548
 H,0,2.2912525791,0.13637718,-2.2200790933
 H,0,1.285331825,-2.1220007318,-1.7905579951
 H,0,2.827370272,-2.6842326377,-1.1390982424
 H,0,2.4489565244,-1.8268567061,-3.7914004119
 H,0,2.6680063508,1.5881066727,1.2316255965
 H,0,2.7127586967,2.0023119054,-0.4710895985
 H,0,5.0294646621,1.0344008829,-0.6441152929
 H,0,4.9456398589,0.5286546267,1.0332221301
 H,0,4.7238141777,2.9298346459,1.7403457435
 H,0,4.7899212572,3.4330908647,0.0614596591
 H,0,7.1028220098,2.4519568226,-0.1441627583
 H,0,7.0303874534,1.9360295572,1.528830492
 H,0,6.8502385209,4.3138105876,2.2752014192
 H,0,6.8374874332,4.8553767599,0.6033431673
 H,0,9.1462343695,3.3571232298,1.952348748
 H,0,9.0122724642,4.4687676566,-0.6224013578
 H,0,8.7581339748,5.7506432972,2.7216778644
 H,0,9.0209247522,6.2721969533,1.0391843653
 H,0,11.6551505855,6.9530025886,1.7694100746
 Recover connectivity data from disk.

 GradGradGradGradGradGradGradGradGradGradGradGradGradGradGradGradGradGrad
 Berny optimization.
 Initialization pass.
                           ----------------------------
                           !    Initial Parameters    !
                           ! (Angstroms and Degrees)  !
 --------------------------                            --------------------------
 ! Name  Definition              Value          Derivative Info.                !
 --------------------------------------------------------------------------------
 ! R1    R(1,2)                  1.5371         estimate D2E/DX2                !
 ! R2    R(1,16)                 1.0937         estimate D2E/DX2                !
 ! R3    R(1,17)                 1.097          estimate D2E/DX2                !
 ! R4    R(1,18)                 1.095          estimate D2E/DX2                !
 ! R5    R(2,3)                  1.5407         estimate D2E/DX2                !
 ! R6    R(2,6)                  1.5421         estimate D2E/DX2                !
 ! R7    R(2,19)                 1.1008         estimate D2E/DX2                !
 ! R8    R(3,4)                  1.5309         estimate D2E/DX2                !
 ! R9    R(3,20)                 1.0951         estimate D2E/DX2                !
 ! R10   R(3,21)                 1.1013         estimate D2E/DX2                !
 ! R11   R(4,5)                  1.421          estimate D2E/DX2                !
 ! R12   R(4,22)                 1.1002         estimate D2E/DX2                !
 ! R13   R(4,23)                 1.0962         estimate D2E/DX2                !
 ! R14   R(5,24)                 0.9625         estimate D2E/DX2                !
 ! R15   R(6,7)                  1.5336         estimate D2E/DX2                !
 ! R16   R(6,25)                 1.0985         estimate D2E/DX2                !
 ! R17   R(6,26)                 1.0999         estimate D2E/DX2                !
 ! R18   R(7,8)                  1.5334         estimate D2E/DX2                !
 ! R19   R(7,27)                 1.0969         estimate D2E/DX2                !
 ! R20   R(7,28)                 1.0991         estimate D2E/DX2                !
 ! R21   R(8,9)                  1.5319         estimate D2E/DX2                !
 ! R22   R(8,29)                 1.0992         estimate D2E/DX2                !
 ! R23   R(8,30)                 1.0994         estimate D2E/DX2                !
 ! R24   R(9,10)                 1.5321         estimate D2E/DX2                !
 ! R25   R(9,31)                 1.0958         estimate D2E/DX2                !
 ! R26   R(9,32)                 1.0987         estimate D2E/DX2                !
 ! R27   R(10,11)                1.5356         estimate D2E/DX2                !
 ! R28   R(10,33)                1.0976         estimate D2E/DX2                !
 ! R29   R(10,34)                1.101          estimate D2E/DX2                !
 ! R30   R(11,12)                1.4222         estimate D2E/DX2                !
 ! R31   R(11,13)                1.5292         estimate D2E/DX2                !
 ! R32   R(11,35)                1.0967         estimate D2E/DX2                !
 ! R33   R(12,36)                0.9641         estimate D2E/DX2                !
 ! R34   R(13,14)                1.4154         estimate D2E/DX2                !
 ! R35   R(13,37)                1.0981         estimate D2E/DX2                !
 ! R36   R(13,38)                1.1023         estimate D2E/DX2                !
 ! R37   R(14,15)                1.4465         estimate D2E/DX2                !
 ! R38   R(15,39)                0.9677         estimate D2E/DX2                !
 ! A1    A(2,1,16)             112.2818         estimate D2E/DX2                !
 ! A2    A(2,1,17)             110.8218         estimate D2E/DX2                !
 ! A3    A(2,1,18)             110.8883         estimate D2E/DX2                !
 ! A4    A(16,1,17)            107.6557         estimate D2E/DX2                !
 ! A5    A(16,1,18)            107.4564         estimate D2E/DX2                !
 ! A6    A(17,1,18)            107.5312         estimate D2E/DX2                !
 ! A7    A(1,2,3)              111.8962         estimate D2E/DX2                !
 ! A8    A(1,2,6)              109.9394         estimate D2E/DX2                !
 ! A9    A(1,2,19)             107.8276         estimate D2E/DX2                !
 ! A10   A(3,2,6)              111.8619         estimate D2E/DX2                !
 ! A11   A(3,2,19)             107.6798         estimate D2E/DX2                !
 ! A12   A(6,2,19)             107.4247         estimate D2E/DX2                !
 ! A13   A(2,3,4)              115.012          estimate D2E/DX2                !
 ! A14   A(2,3,20)             110.2086         estimate D2E/DX2                !
 ! A15   A(2,3,21)             108.9081         estimate D2E/DX2                !
 ! A16   A(4,3,20)             106.8127         estimate D2E/DX2                !
 ! A17   A(4,3,21)             109.1006         estimate D2E/DX2                !
 ! A18   A(20,3,21)            106.4499         estimate D2E/DX2                !
 ! A19   A(3,4,5)              112.4251         estimate D2E/DX2                !
 ! A20   A(3,4,22)             111.0653         estimate D2E/DX2                !
 ! A21   A(3,4,23)             109.7978         estimate D2E/DX2                !
 ! A22   A(5,4,22)             110.7715         estimate D2E/DX2                !
 ! A23   A(5,4,23)             105.4616         estimate D2E/DX2                !
 ! A24   A(22,4,23)            107.0266         estimate D2E/DX2                !
 ! A25   A(4,5,24)             107.6194         estimate D2E/DX2                !
 ! A26   A(2,6,7)              115.5769         estimate D2E/DX2                !
 ! A27   A(2,6,25)             108.1954         estimate D2E/DX2                !
 ! A28   A(2,6,26)             109.0161         estimate D2E/DX2                !
 ! A29   A(7,6,25)             108.3523         estimate D2E/DX2                !
 ! A30   A(7,6,26)             109.4874         estimate D2E/DX2                !
 ! A31   A(25,6,26)            105.7563         estimate D2E/DX2                !
 ! A32   A(6,7,8)              112.973          estimate D2E/DX2                !
 ! A33   A(6,7,27)             110.4286         estimate D2E/DX2                !
 ! A34   A(6,7,28)             109.2101         estimate D2E/DX2                !
 ! A35   A(8,7,27)             108.7818         estimate D2E/DX2                !
 ! A36   A(8,7,28)             109.1923         estimate D2E/DX2                !
 ! A37   A(27,7,28)            106.0122         estimate D2E/DX2                !
 ! A38   A(7,8,9)              113.3055         estimate D2E/DX2                !
 ! A39   A(7,8,29)             109.308          estimate D2E/DX2                !
 ! A40   A(7,8,30)             109.2577         estimate D2E/DX2                !
 ! A41   A(9,8,29)             109.5131         estimate D2E/DX2                !
 ! A42   A(9,8,30)             109.3485         estimate D2E/DX2                !
 ! A43   A(29,8,30)            105.8363         estimate D2E/DX2                !
 ! A44   A(8,9,10)             113.2911         estimate D2E/DX2                !
 ! A45   A(8,9,31)             110.03           estimate D2E/DX2                !
 ! A46   A(8,9,32)             109.4269         estimate D2E/DX2                !
 ! A47   A(10,9,31)            108.8443         estimate D2E/DX2                !
 ! A48   A(10,9,32)            109.0156         estimate D2E/DX2                !
 ! A49   A(31,9,32)            105.9667         estimate D2E/DX2                !
 ! A50   A(9,10,11)            113.0445         estimate D2E/DX2                !
 ! A51   A(9,10,33)            109.8973         estimate D2E/DX2                !
 ! A52   A(9,10,34)            109.6549         estimate D2E/DX2                !
 ! A53   A(11,10,33)           109.0384         estimate D2E/DX2                !
 ! A54   A(11,10,34)           108.8363         estimate D2E/DX2                !
 ! A55   A(33,10,34)           106.1287         estimate D2E/DX2                !
 ! A56   A(10,11,12)           112.1626         estimate D2E/DX2                !
 ! A57   A(10,11,13)           110.9811         estimate D2E/DX2                !
 ! A58   A(10,11,35)           109.3387         estimate D2E/DX2                !
 ! A59   A(12,11,13)           111.6653         estimate D2E/DX2                !
 ! A60   A(12,11,35)           104.5054         estimate D2E/DX2                !
 ! A61   A(13,11,35)           107.8803         estimate D2E/DX2                !
 ! A62   A(11,12,36)           107.7495         estimate D2E/DX2                !
 ! A63   A(11,13,14)           107.3481         estimate D2E/DX2                !
 ! A64   A(11,13,37)           110.5529         estimate D2E/DX2                !
 ! A65   A(11,13,38)           110.3622         estimate D2E/DX2                !
 ! A66   A(14,13,37)           110.0209         estimate D2E/DX2                !
 ! A67   A(14,13,38)           110.5001         estimate D2E/DX2                !
 ! A68   A(37,13,38)           108.069          estimate D2E/DX2                !
 ! A69   A(13,14,15)           106.6557         estimate D2E/DX2                !
 ! A70   A(14,15,39)           100.2919         estimate D2E/DX2                !
 ! D1    D(16,1,2,3)            59.6636         estimate D2E/DX2                !
 ! D2    D(16,1,2,6)          -175.3964         estimate D2E/DX2                !
 ! D3    D(16,1,2,19)          -58.5704         estimate D2E/DX2                !
 ! D4    D(17,1,2,3)           -60.7677         estimate D2E/DX2                !
 ! D5    D(17,1,2,6)            64.1724         estimate D2E/DX2                !
 ! D6    D(17,1,2,19)         -179.0017         estimate D2E/DX2                !
 ! D7    D(18,1,2,3)           179.8867         estimate D2E/DX2                !
 ! D8    D(18,1,2,6)           -55.1732         estimate D2E/DX2                !
 ! D9    D(18,1,2,19)           61.6527         estimate D2E/DX2                !
 ! D10   D(1,2,3,4)            -64.6814         estimate D2E/DX2                !
 ! D11   D(1,2,3,20)           174.5311         estimate D2E/DX2                !
 ! D12   D(1,2,3,21)            58.1045         estimate D2E/DX2                !
 ! D13   D(6,2,3,4)            171.4506         estimate D2E/DX2                !
 ! D14   D(6,2,3,20)            50.6631         estimate D2E/DX2                !
 ! D15   D(6,2,3,21)           -65.7635         estimate D2E/DX2                !
 ! D16   D(19,2,3,4)            53.6406         estimate D2E/DX2                !
 ! D17   D(19,2,3,20)          -67.1469         estimate D2E/DX2                !
 ! D18   D(19,2,3,21)          176.4265         estimate D2E/DX2                !
 ! D19   D(1,2,6,7)            168.1037         estimate D2E/DX2                !
 ! D20   D(1,2,6,25)            46.4517         estimate D2E/DX2                !
 ! D21   D(1,2,6,26)           -68.1067         estimate D2E/DX2                !
 ! D22   D(3,2,6,7)            -66.9366         estimate D2E/DX2                !
 ! D23   D(3,2,6,25)           171.4114         estimate D2E/DX2                !
 ! D24   D(3,2,6,26)            56.853          estimate D2E/DX2                !
 ! D25   D(19,2,6,7)            51.026          estimate D2E/DX2                !
 ! D26   D(19,2,6,25)          -70.626          estimate D2E/DX2                !
 ! D27   D(19,2,6,26)          174.8156         estimate D2E/DX2                !
 ! D28   D(2,3,4,5)           -172.5182         estimate D2E/DX2                !
 ! D29   D(2,3,4,22)            62.7257         estimate D2E/DX2                !
 ! D30   D(2,3,4,23)           -55.4483         estimate D2E/DX2                !
 ! D31   D(20,3,4,5)           -49.8899         estimate D2E/DX2                !
 ! D32   D(20,3,4,22)         -174.646          estimate D2E/DX2                !
 ! D33   D(20,3,4,23)           67.1799         estimate D2E/DX2                !
 ! D34   D(21,3,4,5)            64.7991         estimate D2E/DX2                !
 ! D35   D(21,3,4,22)          -59.957          estimate D2E/DX2                !
 ! D36   D(21,3,4,23)         -178.131          estimate D2E/DX2                !
 ! D37   D(3,4,5,24)           -62.5708         estimate D2E/DX2                !
 ! D38   D(22,4,5,24)           62.3467         estimate D2E/DX2                !
 ! D39   D(23,4,5,24)          177.8044         estimate D2E/DX2                !
 ! D40   D(2,6,7,8)           -176.0488         estimate D2E/DX2                !
 ! D41   D(2,6,7,27)            61.8737         estimate D2E/DX2                !
 ! D42   D(2,6,7,28)           -54.3253         estimate D2E/DX2                !
 ! D43   D(25,6,7,8)           -54.481          estimate D2E/DX2                !
 ! D44   D(25,6,7,27)         -176.5585         estimate D2E/DX2                !
 ! D45   D(25,6,7,28)           67.2425         estimate D2E/DX2                !
 ! D46   D(26,6,7,8)            60.4087         estimate D2E/DX2                !
 ! D47   D(26,6,7,27)          -61.6687         estimate D2E/DX2                !
 ! D48   D(26,6,7,28)         -177.8678         estimate D2E/DX2                !
 ! D49   D(6,7,8,9)            179.9827         estimate D2E/DX2                !
 ! D50   D(6,7,8,29)            57.5507         estimate D2E/DX2                !
 ! D51   D(6,7,8,30)           -57.8339         estimate D2E/DX2                !
 ! D52   D(27,7,8,9)           -57.0204         estimate D2E/DX2                !
 ! D53   D(27,7,8,29)         -179.4524         estimate D2E/DX2                !
 ! D54   D(27,7,8,30)           65.1629         estimate D2E/DX2                !
 ! D55   D(28,7,8,9)            58.2492         estimate D2E/DX2                !
 ! D56   D(28,7,8,29)          -64.1829         estimate D2E/DX2                !
 ! D57   D(28,7,8,30)         -179.5675         estimate D2E/DX2                !
 ! D58   D(7,8,9,10)          -179.6336         estimate D2E/DX2                !
 ! D59   D(7,8,9,31)            58.2777         estimate D2E/DX2                !
 ! D60   D(7,8,9,32)           -57.7649         estimate D2E/DX2                !
 ! D61   D(29,8,9,10)          -57.3156         estimate D2E/DX2                !
 ! D62   D(29,8,9,31)         -179.4043         estimate D2E/DX2                !
 ! D63   D(29,8,9,32)           64.5531         estimate D2E/DX2                !
 ! D64   D(30,8,9,10)           58.2337         estimate D2E/DX2                !
 ! D65   D(30,8,9,31)          -63.855          estimate D2E/DX2                !
 ! D66   D(30,8,9,32)         -179.8976         estimate D2E/DX2                !
 ! D67   D(8,9,10,11)         -177.2685         estimate D2E/DX2                !
 ! D68   D(8,9,10,33)           60.661          estimate D2E/DX2                !
 ! D69   D(8,9,10,34)          -55.6335         estimate D2E/DX2                !
 ! D70   D(31,9,10,11)         -54.5209         estimate D2E/DX2                !
 ! D71   D(31,9,10,33)        -176.5914         estimate D2E/DX2                !
 ! D72   D(31,9,10,34)          67.1141         estimate D2E/DX2                !
 ! D73   D(32,9,10,11)          60.6332         estimate D2E/DX2                !
 ! D74   D(32,9,10,33)         -61.4374         estimate D2E/DX2                !
 ! D75   D(32,9,10,34)        -177.7318         estimate D2E/DX2                !
 ! D76   D(9,10,11,12)          56.6481         estimate D2E/DX2                !
 ! D77   D(9,10,11,13)        -177.6795         estimate D2E/DX2                !
 ! D78   D(9,10,11,35)         -58.7928         estimate D2E/DX2                !
 ! D79   D(33,10,11,12)        179.1987         estimate D2E/DX2                !
 ! D80   D(33,10,11,13)        -55.1289         estimate D2E/DX2                !
 ! D81   D(33,10,11,35)         63.7578         estimate D2E/DX2                !
 ! D82   D(34,10,11,12)        -65.4467         estimate D2E/DX2                !
 ! D83   D(34,10,11,13)         60.2256         estimate D2E/DX2                !
 ! D84   D(34,10,11,35)        179.1124         estimate D2E/DX2                !
 ! D85   D(10,11,12,36)         63.1637         estimate D2E/DX2                !
 ! D86   D(13,11,12,36)        -62.134          estimate D2E/DX2                !
 ! D87   D(35,11,12,36)       -178.4947         estimate D2E/DX2                !
 ! D88   D(10,11,13,14)        170.0622         estimate D2E/DX2                !
 ! D89   D(10,11,13,37)         50.0498         estimate D2E/DX2                !
 ! D90   D(10,11,13,38)        -69.454          estimate D2E/DX2                !
 ! D91   D(12,11,13,14)        -63.9882         estimate D2E/DX2                !
 ! D92   D(12,11,13,37)        175.9994         estimate D2E/DX2                !
 ! D93   D(12,11,13,38)         56.4956         estimate D2E/DX2                !
 ! D94   D(35,11,13,14)         50.3012         estimate D2E/DX2                !
 ! D95   D(35,11,13,37)        -69.7112         estimate D2E/DX2                !
 ! D96   D(35,11,13,38)        170.785          estimate D2E/DX2                !
 ! D97   D(11,13,14,15)       -177.6545         estimate D2E/DX2                !
 ! D98   D(37,13,14,15)        -57.304          estimate D2E/DX2                !
 ! D99   D(38,13,14,15)         61.9491         estimate D2E/DX2                !
 ! D100  D(13,14,15,39)       -115.0268         estimate D2E/DX2                !
 --------------------------------------------------------------------------------
 Trust Radius=3.00D-01 FncErr=1.00D-07 GrdErr=1.00D-06 EigMax=2.50D+02 EigMin=1.00D-04
 Number of steps in this run=    218 maximum allowed number of steps=    234.
 GradGradGradGradGradGradGradGradGradGradGradGradGradGradGradGradGradGrad

                          Input orientation:                          
 ---------------------------------------------------------------------
 Center     Atomic      Atomic             Coordinates (Angstroms)
 Number     Number       Type             X           Y           Z
 ---------------------------------------------------------------------
      1          6           0        0.930132   -0.077905    0.179002
      2          6           0        2.445720   -0.110751   -0.074980
      3          6           0        2.777883   -0.553486   -1.512827
      4          6           0        2.375569   -1.989949   -1.857055
      5          8           0        2.855721   -2.396861   -3.131118
      6          6           0        3.065109    1.260923    0.261054
      7          6           0        4.596731    1.296977    0.329045
      8          6           0        5.144663    2.662537    0.760735
      9          6           0        6.674327    2.706942    0.831610
     10          6           0        7.221117    4.068874    1.271570
     11          6           0        8.755543    4.127443    1.276482
     12          8           0        9.308932    3.801858    0.007462
     13          6           0        9.250060    5.485373    1.776439
     14          8           0       10.648070    5.380022    1.970632
     15          8           0       11.090757    6.652954    2.495979
     16          1           0        0.463373   -1.055645    0.029749
     17          1           0        0.436991    0.632676   -0.495740
     18          1           0        0.712956    0.236555    1.205139
     19          1           0        2.886717   -0.848884    0.612412
     20          1           0        3.854982   -0.474226   -1.693744
     21          1           0        2.291253    0.136377   -2.220079
     22          1           0        1.285332   -2.122001   -1.790558
     23          1           0        2.827370   -2.684233   -1.139098
     24          1           0        2.448957   -1.826857   -3.791400
     25          1           0        2.668006    1.588107    1.231626
     26          1           0        2.712759    2.002312   -0.471090
     27          1           0        5.029465    1.034401   -0.644115
     28          1           0        4.945640    0.528655    1.033222
     29          1           0        4.723814    2.929835    1.740346
     30          1           0        4.789921    3.433091    0.061460
     31          1           0        7.102822    2.451957   -0.144163
     32          1           0        7.030387    1.936030    1.528830
     33          1           0        6.850239    4.313811    2.275201
     34          1           0        6.837487    4.855377    0.603343
     35          1           0        9.146234    3.357123    1.952349
     36          1           0        9.012272    4.468768   -0.622401
     37          1           0        8.758134    5.750643    2.721678
     38          1           0        9.020925    6.272197    1.039184
     39          1           0       11.655151    6.953003    1.769410
 ---------------------------------------------------------------------
                    Distance matrix (angstroms):
                    1          2          3          4          5
     1  C    0.000000
     2  C    1.537073   0.000000
     3  C    2.550029   1.540698   0.000000
     4  C    3.144953   2.590772   1.530940   0.000000
     5  O    4.476868   3.838539   2.454171   1.421042   0.000000
     6  C    2.521373   1.542093   2.553670   3.940814   4.993001
     7  C    3.918771   2.602264   3.181966   4.529511   5.352409
     8  C    5.060703   3.959020   4.594947   6.013845   6.781098
     9  C    6.416934   5.161629   5.595449   6.911513   7.505582
    10  C    7.613539   6.487440   6.990093   8.365223   8.958017
    11  C    8.951339   7.720272   8.088495   9.377931   9.838769
    12  O    9.235058   7.900569   7.995931   9.224585   9.482549
    13  C   10.135239   9.002411   9.443313  10.786164  11.273922
    14  O   11.288810  10.080260  10.453748  11.721856  12.133774
    15  O   12.406093  11.273606  11.709277  13.023178  13.467709
    16  H    1.093671   2.198521   2.826422   2.844196   4.184886
    17  H    1.096991   2.182823   2.814466   3.534038   4.687597
    18  H    1.094992   2.182154   3.503631   4.135050   5.507217
    19  H    2.147203   1.100830   2.148429   2.767954   4.051075
    20  H    3.495568   2.176816   1.095059   2.124323   2.600210
    21  H    2.766615   2.164806   1.101329   2.158740   2.750620
    22  H    2.860710   2.887011   2.182907   1.100217   2.082972
    23  H    3.482793   2.810838   2.163840   1.096182   2.012841
    24  H    4.596711   4.093508   2.630886   1.942595   0.962463
    25  H    2.627512   2.154703   3.482888   4.735816   5.911746
    26  H    2.815614   2.166391   2.760717   4.239427   5.142850
    27  H    4.326578   2.882885   2.888886   4.202508   4.762762
    28  H    4.149929   2.808300   3.514622   4.615444   5.501648
    29  H    5.086877   4.210734   5.148136   6.531448   7.456180
    30  H    5.219089   4.251201   4.734920   6.238522   6.922573
    31  H    6.678828   5.316094   5.441601   6.709057   7.104281
    32  H    6.564381   5.270739   5.790783   6.967414   7.610316
    33  H    7.663477   6.670823   7.390793   8.765591   9.498293
    34  H    7.708060   6.664095   7.086209   8.533508   9.077203
    35  H    9.080117   7.812369   8.237488   9.431047   9.925751
    36  H    9.307818   8.024417   8.055029   9.342656   9.556864
    37  H   10.085376   9.056699   9.666255  11.028087  11.639395
    38  H   10.321078   9.231289   9.595743  10.991451  11.426011
    39  H   12.922426  11.752106  12.079997  13.387989  13.742820
                    6          7          8          9         10
     6  C    0.000000
     7  C    1.533554   0.000000
     8  C    2.557098   1.533409   0.000000
     9  C    3.929753   2.560660   1.531948   0.000000
    10  C    5.116457   3.931815   2.559374   1.532124   0.000000
    11  C    6.452059   5.119071   3.930699   2.558749   1.535551
    12  O    6.745813   5.346278   4.382534   2.969715   2.455247
    13  C    7.641727   6.425814   5.084716   3.904713   2.525465
    14  O    8.797212   7.482297   6.255882   4.922739   3.735211
    15  O    9.923705   8.692208   7.368211   6.151910   4.811524
    16  H    3.491278   4.765402   6.022765   7.305887   8.571460
    17  H    2.806142   4.292435   5.278375   6.705877   7.807382
    18  H    2.733725   4.120163   5.071777   6.463767   7.552963
    19  H    2.146291   2.758471   4.177368   5.199801   6.588312
    20  H    2.730544   2.789090   4.186529   4.944284   6.384646
    21  H    2.831868   3.627706   4.838253   5.927221   7.208308
    22  H    4.338305   5.210325   6.655474   7.696474   9.106981
    23  H    4.192994   4.597402   6.129206   6.909959   8.409565
    24  H    5.131901   5.599048   6.938547   7.731837   9.119585
    25  H    1.098522   2.149276   2.740432   4.178804   5.185231
    26  H    1.099928   2.164963   2.804897   4.229368   5.256694
    27  H    2.174704   1.096925   2.153533   2.771413   4.204904
    28  H    2.160754   1.099055   2.160397   2.788179   4.215182
    29  H    2.779366   2.161977   1.099181   2.163326   2.784544
    30  H    2.780850   2.161460   1.099354   2.161344   2.789140
    31  H    4.229171   2.799714   2.167388   1.095791   2.152374
    32  H    4.217400   2.787572   2.161884   1.098727   2.156754
    33  H    5.263470   4.238763   2.815901   2.167240   1.097643
    34  H    5.221887   4.214077   2.774702   2.166679   1.101038
    35  H    6.650911   5.251410   4.232607   2.790899   2.162435
    36  H    6.814654   5.519286   4.487085   3.268665   2.637286
    37  H    7.656552   6.548062   5.141874   4.144723   2.700663
    38  H    7.822410   6.695566   5.304015   4.273249   2.854460
    39  H   10.414592   9.158961   7.862058   6.611891   5.312880
                   11         12         13         14         15
    11  C    0.000000
    12  O    1.422201   0.000000
    13  C    1.529209   2.442738   0.000000
    14  O    2.373280   2.852705   1.415359   0.000000
    15  O    3.649467   4.182865   2.295462   1.446484   0.000000
    16  H    9.857932  10.091569  11.092417  12.202987  13.358371
    17  H    9.195242   9.434419  10.314148  11.527637  12.597494
    18  H    8.934613   9.382784  10.037860  11.213729  12.269279
    19  H    7.723207   7.952372   9.053723  10.044034  11.275268
    20  H    7.349360   7.136146   8.755904   9.687410  10.986670
    21  H    8.363109   8.224690   9.644113  10.718874  11.922175
    22  H   10.211088  10.134256  11.577241  12.573295  13.839096
    23  H    9.347576   9.240921  10.793228  11.656156  12.987702
    24  H   10.045404   9.652619  11.433484  12.343645  13.642545
    25  H    6.596085   7.106418   7.668698   8.866012   9.909288
    26  H    6.639686   6.853969   7.740763   8.963263  10.031093
    27  H    5.209535   5.137822   6.594214   7.569019   8.841244
    28  H    5.246505   5.550168   6.606774   7.545343   8.798248
    29  H    4.231344   4.978616   5.197978   6.415080   7.414213
    30  H    4.205301   4.534354   5.200563   6.461686   7.482976
    31  H    2.748994   2.590781   4.183415   5.061097   6.365717
    32  H    2.800381   3.314761   4.193578   5.014369   6.298520
    33  H    2.159250   3.383772   2.716701   3.956399   4.847920
    34  H    2.159153   2.751911   2.755641   4.082312   4.990356
    35  H    1.096735   2.001710   2.138030   2.519516   3.865126
    36  H    1.946322   0.964108   2.616193   3.198443   4.337633
    37  H    2.173334   3.386460   1.098105   2.067193   2.511222
    38  H    2.174100   2.692578   1.102334   2.076336   2.559577
    39  H    4.078541   4.305684   2.817525   1.878555   0.967715
                   16         17         18         19         20
    16  H    0.000000
    17  H    1.768407   0.000000
    18  H    1.764543   1.768066   0.000000
    19  H    2.500969   3.069883   2.500948   0.000000
    20  H    3.848570   3.787229   4.333712   2.529083   0.000000
    21  H    3.134293   2.580299   3.772688   3.057503   1.759294
    22  H    2.264122   3.159822   3.855463   3.155872   3.054118
    23  H    3.099514   4.138805   4.300837   2.537679   2.499549
    24  H    4.374757   4.578065   5.677743   4.532287   2.864731
    25  H    3.646140   2.978938   2.376892   2.523923   3.770930
    26  H    3.829057   2.656243   3.150691   3.055087   2.988778
    27  H    5.066713   4.612398   4.763250   3.117209   2.181074
    28  H    4.858774   4.761981   4.246233   2.512739   3.103489
    29  H    6.079601   5.352931   4.860781   4.350388   4.912786
    30  H    6.234483   5.205843   5.305421   4.718161   4.384287
    31  H    7.511045   6.918576   6.896304   5.407726   4.638126
    32  H    7.370417   7.019294   6.550033   5.075980   5.126160
    33  H    8.640901   7.896747   7.445488   6.717722   6.902853
    34  H    8.711976   7.746324   7.694515   6.938823   6.525076
    35  H    9.927789   9.448104   9.023107   7.659470   7.481349
    36  H   10.199418   9.395057   9.493692   8.205158   7.223476
    37  H   11.062328  10.285270   9.870661   9.081646   9.071155
    38  H   11.311407  10.384802  10.270290   9.408530   8.925810
    39  H   13.871581  13.073811  12.851486  11.793791  11.313699
                   21         22         23         24         25
    21  H    0.000000
    22  H    2.509310   0.000000
    23  H    3.067863   1.765896   0.000000
    24  H    2.519565   2.333346   2.813005   0.000000
    25  H    3.763473   4.980992   4.888621   6.077890   0.000000
    26  H    2.591977   4.559441   4.735301   5.075095   1.752943
    27  H    3.284496   5.029486   4.349996   4.975060   3.066183
    28  H    4.217063   5.328936   4.419127   5.921051   2.519805
    29  H    5.422705   7.057725   6.588281   7.642075   2.507065
    30  H    4.724096   6.824306   6.535640   6.927604   3.045616
    31  H    5.729096   7.581220   6.756466   7.298565   4.722989
    32  H    6.304956   7.777635   6.791908   7.965782   4.386314
    33  H    7.644792   9.429648   8.764332   9.689310   5.099959
    34  H    7.135049   9.232605   8.715667   9.122786   5.334263
    35  H    8.647146  10.287076   9.272706  10.233173   6.753984
    36  H    8.154403  10.222936   9.470238   9.630917   7.210086
    37  H    9.887442  11.755066  11.010299  11.817124   7.525731
    38  H    9.672620  11.760501  11.105074  11.494346   7.895398
    39  H   12.250102  14.232435  13.389004  13.883895  10.480462
                   26         27         28         29         30
    26  H    0.000000
    27  H    2.516727   0.000000
    28  H    3.069263   1.753929   0.000000
    29  H    3.129711   3.061331   2.512946   0.000000
    30  H    2.577856   2.511758   3.066646   1.753937   0.000000
    31  H    4.425123   2.560904   3.120699   3.072364   2.520796
    32  H    4.758780   3.088417   2.563690   2.520450   3.068234
    33  H    5.477580   4.753121   4.415588   2.592902   3.149798
    34  H    5.129110   4.407375   4.741773   3.077028   2.551286
    35  H    7.007009   5.393001   5.146846   4.448069   4.749600
    36  H    6.766844   5.259097   5.899414   5.132423   4.400971
    37  H    7.796814   6.890173   6.682452   5.019533   5.309851
    38  H    7.765681   6.797040   7.042461   5.488914   5.188242
    39  H   10.464012   9.206230   9.318356   8.014371   7.901788
                   31         32         33         34         35
    31  H    0.000000
    32  H    1.752237   0.000000
    33  H    3.063270   2.498673   0.000000
    34  H    2.530928   3.068603   1.757432   0.000000
    35  H    3.064347   2.583734   2.508203   3.065109   0.000000
    36  H    2.818198   3.869164   3.618633   2.526184   2.807675
    37  H    4.672733   4.354224   2.429793   2.996286   2.543900
    38  H    4.435500   4.796284   3.174097   2.639079   3.057323
    39  H    6.681682   6.827615   5.505301   5.382344   4.388448
                   36         37         38         39
    36  H    0.000000
    37  H    3.590356   0.000000
    38  H    2.452203   1.780972   0.000000
    39  H    4.344766   3.277985   2.817068   0.000000
 Stoichiometry    C11H24O4
 Framework group  C1[X(C11H24O4)]
 Deg. of freedom   111
 Full point group                 C1      NOp   1
 Largest Abelian subgroup         C1      NOp   1
 Largest concise Abelian subgroup C1      NOp   1
                         Standard orientation:                         
 ---------------------------------------------------------------------
 Center     Atomic      Atomic             Coordinates (Angstroms)
 Number     Number       Type             X           Y           Z
 ---------------------------------------------------------------------
      1          6           0       -4.998690   -1.957491    0.029848
      2          6           0       -3.974664   -0.855008   -0.283992
      3          6           0       -4.412831    0.512181    0.275073
      4          6           0       -5.687413    1.087806   -0.347721
      5          8           0       -5.947672    2.417339    0.081190
      6          6           0       -2.582126   -1.267730    0.234227
      7          6           0       -1.411869   -0.404572   -0.252850
      8          6           0       -0.048332   -0.923628    0.219051
      9          6           0        1.126421   -0.067017   -0.263688
     10          6           0        2.489264   -0.590971    0.200571
     11          6           0        3.657304    0.308069   -0.229926
     12          8           0        3.502255    1.645389    0.228541
     13          6           0        4.996361   -0.287012    0.207436
     14          8           0        6.017728    0.466146   -0.419305
     15          8           0        7.273821   -0.143209   -0.040841
     16          1           0       -5.984052   -1.740529   -0.392176
     17          1           0       -5.120322   -2.079772    1.113197
     18          1           0       -4.672260   -2.920596   -0.376204
     19          1           0       -3.904704   -0.761720   -1.378629
     20          1           0       -3.622375    1.254403    0.121969
     21          1           0       -4.551662    0.424547    1.364096
     22          1           0       -6.552650    0.437612   -0.150008
     23          1           0       -5.573889    1.148858   -1.436298
     24          1           0       -6.087578    2.394229    1.033150
     25          1           0       -2.396417   -2.306437   -0.071302
     26          1           0       -2.597585   -1.278103    1.333998
     27          1           0       -1.532504    0.631238    0.087429
     28          1           0       -1.423448   -0.366159   -1.351172
     29          1           0        0.085801   -1.958608   -0.125949
     30          1           0       -0.038281   -0.969832    1.317388
     31          1           0        1.006561    0.964953    0.084780
     32          1           0        1.116534   -0.018461   -1.361297
     33          1           0        2.653412   -1.603222   -0.190868
     34          1           0        2.496686   -0.682393    1.297782
     35          1           0        3.667183    0.391950   -1.323404
     36          1           0        3.511534    1.628580    1.192457
     37          1           0        5.067027   -1.340468   -0.094342
     38          1           0        5.098058   -0.237916    1.303970
     39          1           0        7.665324    0.574758    0.476577
 ---------------------------------------------------------------------
 Rotational constants (GHZ):           1.5247283           0.1148477           0.1083712
 Standard basis: 6-31+G(2df,p) (6D, 7F)
 There are   645 symmetry adapted cartesian basis functions of A   symmetry.
 There are   600 symmetry adapted basis functions of A   symmetry.
   600 basis functions,   888 primitive gaussians,   645 cartesian basis functions
    61 alpha electrons       61 beta electrons
       nuclear repulsion energy       990.1697040144 Hartrees.
 NAtoms=   39 NActive=   39 NUniq=   39 SFac= 1.00D+00 NAtFMM=   60 NAOKFM=F Big=F
 Integral buffers will be    131072 words long.
 Regular integral format.
 Two-electron integral symmetry is turned on.
 One-electron integrals computed using PRISM.
 PrsmSu:  requested number of processors reduced to:  12 ShMem   1 Linda.
 NBasis=   600 RedAO= T EigKep=  5.54D-06  NBF=   600
 NBsUse=   600 1.00D-06 EigRej= -1.00D+00 NBFU=   600
 ExpMin= 4.38D-02 ExpMax= 5.48D+03 ExpMxC= 8.25D+02 IAcc=3 IRadAn=         5 AccDes= 0.00D+00
 Harris functional with IExCor=  402 and IRadAn=       5 diagonalized for initial guess.
 HarFok:  IExCor=  402 AccDes= 0.00D+00 IRadAn=         5 IDoV= 1 UseB2=F ITyADJ=14
 ICtDFT=  3500011 ScaDFX=  1.000000  1.000000  1.000000  1.000000
 FoFCou: FMM=F IPFlag=           0 FMFlag=      100000 FMFlg1=           0
         NFxFlg=           0 DoJE=T BraDBF=F KetDBF=T FulRan=T
         wScrn=  0.000000 ICntrl=       500 IOpCl=  0 I1Cent=   200000004 NGrid=           0
         NMat0=    1 NMatS0=      1 NMatT0=    0 NMatD0=    1 NMtDS0=    0 NMtDT0=    0
 Petite list used in FoFCou.
 Requested convergence on RMS density matrix=1.00D-08 within 128 cycles.
 Requested convergence on MAX density matrix=1.00D-06.
 Requested convergence on             energy=1.00D-06.
 No special actions if energy rises.
 SCF Done:  E(RB3LYP) =  -734.507205576     A.U. after   13 cycles
            NFock= 13  Conv=0.24D-08     -V/T= 2.0077
 DoSCS=F DFT=T ScalE2(SS,OS)=  1.000000  1.000000
 ExpMin= 4.38D-02 ExpMax= 5.48D+03 ExpMxC= 8.25D+02 IAcc=3 IRadAn=         5 AccDes= 0.00D+00
 HarFok:  IExCor=  205 AccDes= 0.00D+00 IRadAn=         5 IDoV=-2 UseB2=F ITyADJ=14
 ICtDFT= 12500011 ScaDFX=  1.000000  1.000000  1.000000  1.000000
 Range of M.O.s used for correlation:    16   600
 NBasis=   600 NAE=    61 NBE=    61 NFC=    15 NFV=     0
 NROrb=    585 NOA=    46 NOB=    46 NVA=   539 NVB=   539

 **** Warning!!: The largest alpha MO coefficient is  0.11169408D+03

 Orbital symmetries:
       Occupied  (A) (A) (A) (A) (A) (A) (A) (A) (A) (A) (A) (A)
                 (A) (A) (A) (A) (A) (A) (A) (A) (A) (A) (A) (A)
                 (A) (A) (A) (A) (A) (A) (A) (A) (A) (A) (A) (A)
                 (A) (A) (A) (A) (A) (A) (A) (A) (A) (A) (A) (A)
                 (A) (A) (A) (A) (A) (A) (A) (A) (A) (A) (A) (A)
                 (A)
       Virtual   (A) (A) (A) (A) (A) (A) (A) (A) (A) (A) (A) (A)
                 (A) (A) (A) (A) (A) (A) (A) (A) (A) (A) (A) (A)
                 (A) (A) (A) (A) (A) (A) (A) (A) (A) (A) (A) (A)
                 (A) (A) (A) (A) (A) (A) (A) (A) (A) (A) (A) (A)
                 (A) (A) (A) (A) (A) (A) (A) (A) (A) (A) (A) (A)
                 (A) (A) (A) (A) (A) (A) (A) (A) (A) (A) (A) (A)
                 (A) (A) (A) (A) (A) (A) (A) (A) (A) (A) (A) (A)
                 (A) (A) (A) (A) (A) (A) (A) (A) (A) (A) (A) (A)
                 (A) (A) (A) (A) (A) (A) (A) (A) (A) (A) (A) (A)
                 (A) (A) (A) (A) (A) (A) (A) (A) (A) (A) (A) (A)
                 (A) (A) (A) (A) (A) (A) (A) (A) (A) (A) (A) (A)
                 (A) (A) (A) (A) (A) (A) (A) (A) (A) (A) (A) (A)
                 (A) (A) (A) (A) (A) (A) (A) (A) (A) (A) (A) (A)
                 (A) (A) (A) (A) (A) (A) (A) (A) (A) (A) (A) (A)
                 (A) (A) (A) (A) (A) (A) (A) (A) (A) (A) (A) (A)
                 (A) (A) (A) (A) (A) (A) (A) (A) (A) (A) (A) (A)
                 (A) (A) (A) (A) (A) (A) (A) (A) (A) (A) (A) (A)
                 (A) (A) (A) (A) (A) (A) (A) (A) (A) (A) (A) (A)
                 (A) (A) (A) (A) (A) (A) (A) (A) (A) (A) (A) (A)
                 (A) (A) (A) (A) (A) (A) (A) (A) (A) (A) (A) (A)
                 (A) (A) (A) (A) (A) (A) (A) (A) (A) (A) (A) (A)
                 (A) (A) (A) (A) (A) (A) (A) (A) (A) (A) (A) (A)
                 (A) (A) (A) (A) (A) (A) (A) (A) (A) (A) (A) (A)
                 (A) (A) (A) (A) (A) (A) (A) (A) (A) (A) (A) (A)
                 (A) (A) (A) (A) (A) (A) (A) (A) (A) (A) (A) (A)
                 (A) (A) (A) (A) (A) (A) (A) (A) (A) (A) (A) (A)
                 (A) (A) (A) (A) (A) (A) (A) (A) (A) (A) (A) (A)
                 (A) (A) (A) (A) (A) (A) (A) (A) (A) (A) (A) (A)
                 (A) (A) (A) (A) (A) (A) (A) (A) (A) (A) (A) (A)
                 (A) (A) (A) (A) (A) (A) (A) (A) (A) (A) (A) (A)
                 (A) (A) (A) (A) (A) (A) (A) (A) (A) (A) (A) (A)
                 (A) (A) (A) (A) (A) (A) (A) (A) (A) (A) (A) (A)
                 (A) (A) (A) (A) (A) (A) (A) (A) (A) (A) (A) (A)
                 (A) (A) (A) (A) (A) (A) (A) (A) (A) (A) (A) (A)
                 (A) (A) (A) (A) (A) (A) (A) (A) (A) (A) (A) (A)
                 (A) (A) (A) (A) (A) (A) (A) (A) (A) (A) (A) (A)
                 (A) (A) (A) (A) (A) (A) (A) (A) (A) (A) (A) (A)
                 (A) (A) (A) (A) (A) (A) (A) (A) (A) (A) (A) (A)
                 (A) (A) (A) (A) (A) (A) (A) (A) (A) (A) (A) (A)
                 (A) (A) (A) (A) (A) (A) (A) (A) (A) (A) (A) (A)
                 (A) (A) (A) (A) (A) (A) (A) (A) (A) (A) (A) (A)
                 (A) (A) (A) (A) (A) (A) (A) (A) (A) (A) (A) (A)
                 (A) (A) (A) (A) (A) (A) (A) (A) (A) (A) (A) (A)
                 (A) (A) (A) (A) (A) (A) (A) (A) (A) (A) (A) (A)
                 (A) (A) (A) (A) (A) (A) (A) (A) (A) (A) (A)
    40 initial guesses have been made.
 Convergence on wavefunction:    0.000001000000000
 Iteration     1 Dimension    40 NMult     0 NNew     40
 CISAX will form     3 AO SS matrices at one time.
 New state      1 was old state      3
 New state      2 was old state      6
 New state      3 was old state      1
 New state      4 was old state      7
 New state      5 was old state     10
 New state      6 was old state      9
 New state      7 was old state     20
 New state      8 was old state      2
 New state      9 was old state      5
 New state     10 was old state      4
 Iteration     2 Dimension    60 NMult    40 NNew     20
 Iteration     3 Dimension    80 NMult    60 NNew     20
 New state      9 was old state     10
 New state     10 was old state      9
 Iteration     4 Dimension   100 NMult    80 NNew     20
 Iteration     5 Dimension   120 NMult   100 NNew     20
 Iteration     6 Dimension   140 NMult   120 NNew     20
 Iteration     7 Dimension   160 NMult   140 NNew     20
 Iteration     8 Dimension   180 NMult   160 NNew     20
 Iteration     9 Dimension   200 NMult   180 NNew     20
 Iteration    10 Dimension   220 NMult   200 NNew     20
 Iteration    11 Dimension   240 NMult   220 NNew     20
 Iteration    12 Dimension   258 NMult   240 NNew     18
 Iteration    13 Dimension   264 NMult   258 NNew      6
 Iteration    14 Dimension   266 NMult   264 NNew      2
 Iteration    15 Dimension   268 NMult   266 NNew      2
 ***********************************************************************
 Excited states from <AA,BB:AA,BB> singles matrix:
 ***********************************************************************
 
 Ground to excited state transition densities written to RWF  633
 Ground to excited state transition electric dipole moments (Au):
       state          X           Y           Z        Dip. S.      Osc.
         1        -0.0555     -0.0176      0.0768      0.0093      0.0013
         2        -0.2245      0.0756     -0.0771      0.0621      0.0098
         3         0.0007      0.0721      0.2796      0.0834      0.0133
         4        -0.0550     -0.0276     -0.0873      0.0114      0.0019
         5         0.4123      0.1227     -0.0575      0.1883      0.0311
         6         0.0319      0.2732      0.0748      0.0813      0.0139
         7         0.0201     -0.0047     -0.0349      0.0016      0.0003
         8        -0.0989      0.0135     -0.0839      0.0170      0.0030
         9        -0.4535      0.0756     -0.0859      0.2188      0.0384
        10         0.0118      0.0856     -0.0624      0.0114      0.0020
 Ground to excited state transition velocity dipole moments (Au):
       state          X           Y           Z        Dip. S.      Osc.
         1         0.0143      0.0011     -0.0226      0.0007      0.0023
         2         0.0584     -0.0160      0.0198      0.0041      0.0115
         3         0.0018     -0.0123     -0.0650      0.0044      0.0122
         4         0.0177      0.0035      0.0215      0.0008      0.0022
         5        -0.1043     -0.0372      0.0185      0.0126      0.0339
         6        -0.0111     -0.0721     -0.0185      0.0057      0.0147
         7        -0.0077      0.0039      0.0084      0.0001      0.0004
         8         0.0252     -0.0051      0.0208      0.0011      0.0028
         9         0.1189     -0.0251      0.0248      0.0154      0.0389
        10        -0.0033     -0.0210      0.0181      0.0008      0.0020
 Ground to excited state transition magnetic dipole moments (Au):
       state          X           Y           Z
         1         0.0881      0.3803     -0.2954
         2         0.0520      0.5797     -0.3578
         3         0.4000      1.1321     -0.1511
         4        -0.0766      0.2070     -0.4131
         5         0.0985     -0.1718     -0.4373
         6        -0.0216     -0.0409      1.1697
         7         0.1279     -0.0320      0.1605
         8         0.0303      0.1142      0.0734
         9         0.0623     -0.2902     -0.1263
        10         0.0341     -0.2271     -0.3087
 Ground to excited state transition velocity quadrupole moments (Au):
       state          XX          YY          ZZ          XY          XZ          YZ
         1         0.3162     -0.0176     -0.0167     -0.0317     -0.3633     -0.0147
         2        -1.1997      0.0853      0.0418      0.5265     -0.1592      0.0821
         3         0.0811      0.1454     -0.2861     -0.0966     -0.8870      0.0346
         4         0.1752      0.0425      0.0640      0.1246      0.3624      0.0062
         5        -1.3956     -0.0092      0.0303     -0.4872      0.2005     -0.0307
         6         0.3382     -0.0204      0.0414      0.5672      0.1390     -0.0232
         7        -0.0587      0.0414     -0.0006      0.0604     -0.0492      0.0213
         8        -0.3378      0.1088      0.0363     -0.1522     -0.0880     -0.0118
         9         2.3063     -0.1402      0.0161     -0.3656      0.4304      0.0218
        10        -0.2409      0.1118      0.0222     -0.2986      0.1875      0.0453
 <0|del|b> * <b|rxdel|0> + <0|del|b> * <b|delr+rdel|0>
 Rotatory Strengths (R) in cgs (10**-40 erg-esu-cm/Gauss)
       state          XX          YY          ZZ    R(velocity)    E-M Angle
         1        13.7895     11.8058      2.5136      9.3696       50.47
         2       -12.6959    -14.5519    -12.7141    -13.3206      107.83
         3       -13.0931      6.4073     -3.5137     -3.3998       92.46
         4        -9.7892    -18.5897      0.7420     -9.2123      136.46
         5        -4.6771     -8.7629    -20.7248    -11.3883      102.85
         6       -26.3991    -14.6735     -9.7759    -16.9495      102.09
         7         2.6470     -0.4163     -1.5632      0.2225       84.43
         8        -3.6170      6.9754      1.2566      1.5383       68.26
         9         7.8633     21.3940      1.7431     10.3334       73.23
        10        -3.0422     -0.5990      1.1583     -0.8277       94.97
 1/2[<0|r|b>*<b|rxdel|0> + (<0|rxdel|b>*<b|r|0>)*]
 Rotatory Strengths (R) in cgs (10**-40 erg-esu-cm/Gauss)
       state          XX          YY          ZZ     R(length)
         1         3.4583      4.7408     16.0355      8.0782
         2         8.2548    -30.9868    -19.5218    -14.0846
         3        -0.2062    -57.7028     29.8750     -9.3447
         4        -2.9813      4.0345    -25.4931     -8.1467
         5       -28.7160     14.9050    -17.7685    -10.5265
         6         0.4878      7.8977    -61.8831    -17.8325
         7        -1.8168     -0.1061      3.9653      0.6808
         8         2.1166     -1.0905      4.3539      1.7934
         9        19.9747     15.5107     -7.6685      9.2723
        10        -0.2834     13.7433    -13.6170     -0.0523
  1/2[<0|del|b>*<b|r|0> + (<0|r|b>*<b|del|0>)*] (Au)
       state          X           Y           Z        Dip. S.   Osc.(frdel)
         1        -0.0008     -0.0000     -0.0017      0.0025      0.0017
         2        -0.0131     -0.0012     -0.0015      0.0158      0.0106
         3         0.0000     -0.0009     -0.0182      0.0191      0.0127
         4        -0.0010     -0.0001     -0.0019      0.0029      0.0020
         5        -0.0430     -0.0046     -0.0011      0.0486      0.0324
         6        -0.0004     -0.0197     -0.0014      0.0215      0.0143
         7        -0.0002     -0.0000     -0.0003      0.0005      0.0003
         8        -0.0025     -0.0001     -0.0017      0.0043      0.0029
         9        -0.0539     -0.0019     -0.0021      0.0580      0.0386
        10        -0.0000     -0.0018     -0.0011      0.0030      0.0020

 Excitation energies and oscillator strengths:
 
 Excited State   1:      Singlet-A      5.7133 eV  217.01 nm  f=0.0013  <S**2>=0.000
      60 -> 62        -0.13272
      60 -> 63        -0.21874
      60 -> 64        -0.15003
      61 -> 62         0.26330
      61 -> 63         0.43455
      61 -> 64         0.29830
      61 -> 69        -0.10668
      61 -> 70         0.11404
 This state for optimization and/or second-order correction.
 Total Energy, E(TD-HF/TD-DFT) =  -734.297245718    
 Copying the excited state density for this state as the 1-particle RhoCI density.
 
 Excited State   2:      Singlet-A      6.4180 eV  193.18 nm  f=0.0098  <S**2>=0.000
      60 -> 62         0.11000
      60 -> 63        -0.34117
      60 -> 64         0.43465
      60 -> 65        -0.24422
      61 -> 63        -0.17034
      61 -> 64         0.21572
      61 -> 65        -0.12115
 
 Excited State   3:      Singlet-A      6.4897 eV  191.05 nm  f=0.0133  <S**2>=0.000
      60 -> 62        -0.25690
      61 -> 62         0.52828
      61 -> 64        -0.22047
      61 -> 66         0.14558
      61 -> 69         0.14078
 
 Excited State   4:      Singlet-A      6.6289 eV  187.03 nm  f=0.0019  <S**2>=0.000
      59 -> 62        -0.32015
      59 -> 63         0.39919
      59 -> 64         0.39634
 
 Excited State   5:      Singlet-A      6.7477 eV  183.74 nm  f=0.0311  <S**2>=0.000
      56 -> 63        -0.10155
      57 -> 62         0.13107
      57 -> 63         0.23851
      57 -> 64         0.16607
      59 -> 62         0.50448
      59 -> 63         0.21672
 
 Excited State   6:      Singlet-A      6.9868 eV  177.46 nm  f=0.0139  <S**2>=0.000
      60 -> 63        -0.19322
      60 -> 64         0.14166
      60 -> 65         0.52190
      60 -> 66         0.13311
      60 -> 67        -0.14077
      61 -> 63        -0.11220
      61 -> 65         0.27066
 
 Excited State   7:      Singlet-A      7.0133 eV  176.78 nm  f=0.0003  <S**2>=0.000
      60 -> 62         0.10276
      60 -> 63        -0.10900
      60 -> 66        -0.13642
      60 -> 69        -0.17543
      61 -> 62        -0.16088
      61 -> 63         0.24620
      61 -> 64         0.12229
      61 -> 66         0.29701
      61 -> 68         0.18493
      61 -> 69         0.35092
      61 -> 70        -0.12724
      61 -> 72        -0.11720
 
 Excited State   8:      Singlet-A      7.1116 eV  174.34 nm  f=0.0030  <S**2>=0.000
      60 -> 62         0.47139
      60 -> 63        -0.18131
      60 -> 64        -0.22420
      60 -> 66        -0.16615
      60 -> 67         0.18275
      61 -> 62         0.23560
      61 -> 64        -0.10007
 
 Excited State   9:      Singlet-A      7.1693 eV  172.94 nm  f=0.0384  <S**2>=0.000
      56 -> 63        -0.10999
      57 -> 62         0.18217
      57 -> 63         0.31801
      57 -> 64         0.22137
      58 -> 63         0.15364
      58 -> 64         0.10731
      59 -> 62        -0.24790
      59 -> 63        -0.26619
      59 -> 64        -0.10768
      60 -> 63         0.15552
 
 Excited State  10:      Singlet-A      7.2129 eV  171.89 nm  f=0.0020  <S**2>=0.000
      60 -> 63         0.11187
      60 -> 64        -0.12600
      60 -> 65        -0.15193
      60 -> 68        -0.15890
      61 -> 63        -0.25107
      61 -> 64         0.25413
      61 -> 65         0.29295
      61 -> 67         0.23191
      61 -> 68         0.32642
 SavETr:  write IOETrn=   770 NScale= 10 NData=  16 NLR=1 NState=   10 LETran=     190.
          IDoAtm=111111111111111111111111111111111111111
          Differentiating once with respect to electric field.
                with respect to dipole field.
          Differentiating once with respect to nuclear coordinates.
          There are     1 degrees of freedom in the 1st order CPHF.  IDoFFX=0 NUNeed=     1.
 LinEq1:  Iter=  0 NonCon=     1 RMS=2.69D-03 Max=9.95D-02 NDo=     1
 AX will form     1 AO Fock derivatives at one time.
 LinEq1:  Iter=  1 NonCon=     1 RMS=1.52D-03 Max=4.00D-02 NDo=     1
 LinEq1:  Iter=  2 NonCon=     1 RMS=6.38D-04 Max=2.42D-02 NDo=     1
 LinEq1:  Iter=  3 NonCon=     1 RMS=3.22D-04 Max=1.13D-02 NDo=     1
 LinEq1:  Iter=  4 NonCon=     1 RMS=1.30D-04 Max=5.10D-03 NDo=     1
 LinEq1:  Iter=  5 NonCon=     1 RMS=9.14D-05 Max=4.21D-03 NDo=     1
 LinEq1:  Iter=  6 NonCon=     1 RMS=3.51D-05 Max=1.35D-03 NDo=     1
 LinEq1:  Iter=  7 NonCon=     1 RMS=2.10D-05 Max=6.80D-04 NDo=     1
 LinEq1:  Iter=  8 NonCon=     1 RMS=9.02D-06 Max=2.69D-04 NDo=     1
 LinEq1:  Iter=  9 NonCon=     1 RMS=3.89D-06 Max=5.52D-05 NDo=     1
 LinEq1:  Iter= 10 NonCon=     1 RMS=1.76D-06 Max=3.22D-05 NDo=     1
 LinEq1:  Iter= 11 NonCon=     1 RMS=6.62D-07 Max=1.14D-05 NDo=     1
 LinEq1:  Iter= 12 NonCon=     1 RMS=3.04D-07 Max=4.82D-06 NDo=     1
 LinEq1:  Iter= 13 NonCon=     1 RMS=1.33D-07 Max=2.28D-06 NDo=     1
 LinEq1:  Iter= 14 NonCon=     1 RMS=4.84D-08 Max=9.41D-07 NDo=     1
 LinEq1:  Iter= 15 NonCon=     1 RMS=2.26D-08 Max=6.16D-07 NDo=     1
 LinEq1:  Iter= 16 NonCon=     1 RMS=1.21D-08 Max=4.27D-07 NDo=     1
 LinEq1:  Iter= 17 NonCon=     1 RMS=6.25D-09 Max=1.97D-07 NDo=     1
 LinEq1:  Iter= 18 NonCon=     1 RMS=3.44D-09 Max=9.42D-08 NDo=     1
 LinEq1:  Iter= 19 NonCon=     1 RMS=1.34D-09 Max=3.63D-08 NDo=     1
 LinEq1:  Iter= 20 NonCon=     1 RMS=4.98D-10 Max=1.45D-08 NDo=     1
 LinEq1:  Iter= 21 NonCon=     1 RMS=1.81D-10 Max=4.81D-09 NDo=     1
 LinEq1:  Iter= 22 NonCon=     1 RMS=7.52D-11 Max=1.72D-09 NDo=     1
 LinEq1:  Iter= 23 NonCon=     0 RMS=2.64D-11 Max=6.55D-10 NDo=     1
 Linear equations converged to 1.000D-10 1.000D-09 after    23 iterations.
 End of Minotr F.D. properties file   721 does not exist.
 End of Minotr F.D. properties file   722 does not exist.
 End of Minotr F.D. properties file   788 does not exist.

 **********************************************************************

            Population analysis using the SCF density.

 **********************************************************************

 Orbital symmetries:
       Occupied  (A) (A) (A) (A) (A) (A) (A) (A) (A) (A) (A) (A)
                 (A) (A) (A) (A) (A) (A) (A) (A) (A) (A) (A) (A)
                 (A) (A) (A) (A) (A) (A) (A) (A) (A) (A) (A) (A)
                 (A) (A) (A) (A) (A) (A) (A) (A) (A) (A) (A) (A)
                 (A) (A) (A) (A) (A) (A) (A) (A) (A) (A) (A) (A)
                 (A)
       Virtual   (A) (A) (A) (A) (A) (A) (A) (A) (A) (A) (A) (A)
                 (A) (A) (A) (A) (A) (A) (A) (A) (A) (A) (A) (A)
                 (A) (A) (A) (A) (A) (A) (A) (A) (A) (A) (A) (A)
                 (A) (A) (A) (A) (A) (A) (A) (A) (A) (A) (A) (A)
                 (A) (A) (A) (A) (A) (A) (A) (A) (A) (A) (A) (A)
                 (A) (A) (A) (A) (A) (A) (A) (A) (A) (A) (A) (A)
                 (A) (A) (A) (A) (A) (A) (A) (A) (A) (A) (A) (A)
                 (A) (A) (A) (A) (A) (A) (A) (A) (A) (A) (A) (A)
                 (A) (A) (A) (A) (A) (A) (A) (A) (A) (A) (A) (A)
                 (A) (A) (A) (A) (A) (A) (A) (A) (A) (A) (A) (A)
                 (A) (A) (A) (A) (A) (A) (A) (A) (A) (A) (A) (A)
                 (A) (A) (A) (A) (A) (A) (A) (A) (A) (A) (A) (A)
                 (A) (A) (A) (A) (A) (A) (A) (A) (A) (A) (A) (A)
                 (A) (A) (A) (A) (A) (A) (A) (A) (A) (A) (A) (A)
                 (A) (A) (A) (A) (A) (A) (A) (A) (A) (A) (A) (A)
                 (A) (A) (A) (A) (A) (A) (A) (A) (A) (A) (A) (A)
                 (A) (A) (A) (A) (A) (A) (A) (A) (A) (A) (A) (A)
                 (A) (A) (A) (A) (A) (A) (A) (A) (A) (A) (A) (A)
                 (A) (A) (A) (A) (A) (A) (A) (A) (A) (A) (A) (A)
                 (A) (A) (A) (A) (A) (A) (A) (A) (A) (A) (A) (A)
                 (A) (A) (A) (A) (A) (A) (A) (A) (A) (A) (A) (A)
                 (A) (A) (A) (A) (A) (A) (A) (A) (A) (A) (A) (A)
                 (A) (A) (A) (A) (A) (A) (A) (A) (A) (A) (A) (A)
                 (A) (A) (A) (A) (A) (A) (A) (A) (A) (A) (A) (A)
                 (A) (A) (A) (A) (A) (A) (A) (A) (A) (A) (A) (A)
                 (A) (A) (A) (A) (A) (A) (A) (A) (A) (A) (A) (A)
                 (A) (A) (A) (A) (A) (A) (A) (A) (A) (A) (A) (A)
                 (A) (A) (A) (A) (A) (A) (A) (A) (A) (A) (A) (A)
                 (A) (A) (A) (A) (A) (A) (A) (A) (A) (A) (A) (A)
                 (A) (A) (A) (A) (A) (A) (A) (A) (A) (A) (A) (A)
                 (A) (A) (A) (A) (A) (A) (A) (A) (A) (A) (A) (A)
                 (A) (A) (A) (A) (A) (A) (A) (A) (A) (A) (A) (A)
                 (A) (A) (A) (A) (A) (A) (A) (A) (A) (A) (A) (A)
                 (A) (A) (A) (A) (A) (A) (A) (A) (A) (A) (A) (A)
                 (A) (A) (A) (A) (A) (A) (A) (A) (A) (A) (A) (A)
                 (A) (A) (A) (A) (A) (A) (A) (A) (A) (A) (A) (A)
                 (A) (A) (A) (A) (A) (A) (A) (A) (A) (A) (A) (A)
                 (A) (A) (A) (A) (A) (A) (A) (A) (A) (A) (A) (A)
                 (A) (A) (A) (A) (A) (A) (A) (A) (A) (A) (A) (A)
                 (A) (A) (A) (A) (A) (A) (A) (A) (A) (A) (A) (A)
                 (A) (A) (A) (A) (A) (A) (A) (A) (A) (A) (A) (A)
                 (A) (A) (A) (A) (A) (A) (A) (A) (A) (A) (A) (A)
                 (A) (A) (A) (A) (A) (A) (A) (A) (A) (A) (A) (A)
                 (A) (A) (A) (A) (A) (A) (A) (A) (A) (A) (A) (A)
                 (A) (A) (A) (A) (A) (A) (A) (A) (A) (A) (A)
 The electronic state is 1-A.
 Alpha  occ. eigenvalues --  -19.20868 -19.20782 -19.15576 -19.14949 -10.24788
 Alpha  occ. eigenvalues --  -10.24153 -10.23095 -10.19591 -10.19541 -10.18645
 Alpha  occ. eigenvalues --  -10.18571 -10.18462 -10.18459 -10.18433 -10.18027
 Alpha  occ. eigenvalues --   -1.13127  -1.03684  -1.02641  -0.92508  -0.82715
 Alpha  occ. eigenvalues --   -0.80852  -0.77344  -0.73499  -0.71706  -0.67785
 Alpha  occ. eigenvalues --   -0.64065  -0.62317  -0.60697  -0.58574  -0.56661
 Alpha  occ. eigenvalues --   -0.54123  -0.51063  -0.50619  -0.49922  -0.48618
 Alpha  occ. eigenvalues --   -0.47216  -0.46196  -0.45394  -0.44978  -0.43576
 Alpha  occ. eigenvalues --   -0.42865  -0.42462  -0.41065  -0.40133  -0.39567
 Alpha  occ. eigenvalues --   -0.38658  -0.37815  -0.37268  -0.35915  -0.35165
 Alpha  occ. eigenvalues --   -0.34612  -0.33985  -0.33241  -0.32938  -0.32695
 Alpha  occ. eigenvalues --   -0.32064  -0.31817  -0.31464  -0.28406  -0.27521
 Alpha  occ. eigenvalues --   -0.27480
 Alpha virt. eigenvalues --   -0.00199  -0.00063   0.00105   0.00740   0.01354
 Alpha virt. eigenvalues --    0.01761   0.01850   0.02437   0.03178   0.03734
 Alpha virt. eigenvalues --    0.04346   0.04862   0.05181   0.05397   0.05862
 Alpha virt. eigenvalues --    0.06619   0.06689   0.07048   0.07910   0.08348
 Alpha virt. eigenvalues --    0.08640   0.09299   0.09944   0.10116   0.10681
 Alpha virt. eigenvalues --    0.11098   0.11683   0.12388   0.12561   0.13347
 Alpha virt. eigenvalues --    0.13723   0.14144   0.15013   0.15155   0.15730
 Alpha virt. eigenvalues --    0.16419   0.16826   0.17437   0.17627   0.17950
 Alpha virt. eigenvalues --    0.18551   0.18777   0.19008   0.19591   0.20069
 Alpha virt. eigenvalues --    0.20414   0.20568   0.20910   0.21023   0.21365
 Alpha virt. eigenvalues --    0.21622   0.21988   0.22269   0.22849   0.22953
 Alpha virt. eigenvalues --    0.23611   0.23918   0.24126   0.24380   0.25262
 Alpha virt. eigenvalues --    0.25644   0.26219   0.26492   0.26639   0.27307
 Alpha virt. eigenvalues --    0.27572   0.28121   0.28488   0.29047   0.29496
 Alpha virt. eigenvalues --    0.30108   0.30323   0.30620   0.30898   0.31180
 Alpha virt. eigenvalues --    0.31287   0.32122   0.32404   0.32833   0.33417
 Alpha virt. eigenvalues --    0.34165   0.34391   0.34622   0.35604   0.35874
 Alpha virt. eigenvalues --    0.36578   0.37510   0.37673   0.37940   0.38626
 Alpha virt. eigenvalues --    0.38996   0.40383   0.41140   0.41522   0.42465
 Alpha virt. eigenvalues --    0.43547   0.44434   0.47834   0.51615   0.55445
 Alpha virt. eigenvalues --    0.56206   0.58404   0.59032   0.59182   0.60543
 Alpha virt. eigenvalues --    0.61069   0.61623   0.62262   0.62891   0.63271
 Alpha virt. eigenvalues --    0.63703   0.64443   0.65072   0.65863   0.67461
 Alpha virt. eigenvalues --    0.69016   0.69288   0.69523   0.70620   0.71952
 Alpha virt. eigenvalues --    0.72803   0.73399   0.73921   0.74385   0.75101
 Alpha virt. eigenvalues --    0.76165   0.76325   0.76725   0.77346   0.77550
 Alpha virt. eigenvalues --    0.78377   0.78923   0.80028   0.80663   0.81818
 Alpha virt. eigenvalues --    0.83400   0.83796   0.84685   0.85074   0.85548
 Alpha virt. eigenvalues --    0.86438   0.86803   0.87919   0.88194   0.88886
 Alpha virt. eigenvalues --    0.90773   0.91398   0.92388   0.92894   0.94082
 Alpha virt. eigenvalues --    0.94952   0.95872   0.96679   0.97172   0.97989
 Alpha virt. eigenvalues --    0.99232   0.99638   1.01710   1.02056   1.02588
 Alpha virt. eigenvalues --    1.03538   1.04995   1.05310   1.05787   1.06684
 Alpha virt. eigenvalues --    1.06811   1.07639   1.08392   1.08757   1.10852
 Alpha virt. eigenvalues --    1.11101   1.12014   1.13397   1.14152   1.14825
 Alpha virt. eigenvalues --    1.15884   1.16245   1.17078   1.18342   1.19055
 Alpha virt. eigenvalues --    1.19502   1.21215   1.21766   1.21919   1.22727
 Alpha virt. eigenvalues --    1.23989   1.24234   1.25184   1.25715   1.26453
 Alpha virt. eigenvalues --    1.27619   1.29332   1.30956   1.31540   1.32128
 Alpha virt. eigenvalues --    1.33733   1.35391   1.36398   1.37679   1.38466
 Alpha virt. eigenvalues --    1.40012   1.40443   1.40802   1.42198   1.43788
 Alpha virt. eigenvalues --    1.46337   1.46524   1.47258   1.48636   1.49267
 Alpha virt. eigenvalues --    1.50449   1.52940   1.54093   1.55625   1.57135
 Alpha virt. eigenvalues --    1.58503   1.59227   1.60717   1.61978   1.62785
 Alpha virt. eigenvalues --    1.63922   1.65361   1.67851   1.68135   1.69866
 Alpha virt. eigenvalues --    1.71159   1.72396   1.73145   1.73337   1.75169
 Alpha virt. eigenvalues --    1.77334   1.79016   1.79373   1.80485   1.81284
 Alpha virt. eigenvalues --    1.83385   1.84631   1.84872   1.86658   1.87336
 Alpha virt. eigenvalues --    1.89063   1.89859   1.91615   1.91881   1.94055
 Alpha virt. eigenvalues --    1.94410   1.96661   1.98829   1.99320   2.00340
 Alpha virt. eigenvalues --    2.03727   2.05080   2.06466   2.07031   2.11197
 Alpha virt. eigenvalues --    2.14813   2.16195   2.17018   2.18794   2.19671
 Alpha virt. eigenvalues --    2.20358   2.22045   2.24291   2.24584   2.25802
 Alpha virt. eigenvalues --    2.27995   2.29000   2.30069   2.32434   2.33399
 Alpha virt. eigenvalues --    2.35027   2.37054   2.39727   2.41524   2.44167
 Alpha virt. eigenvalues --    2.44647   2.45355   2.46395   2.51802   2.52927
 Alpha virt. eigenvalues --    2.54851   2.55535   2.56518   2.59558   2.60803
 Alpha virt. eigenvalues --    2.61720   2.64804   2.68781   2.69568   2.71754
 Alpha virt. eigenvalues --    2.72796   2.77013   2.77413   2.77902   2.78500
 Alpha virt. eigenvalues --    2.78835   2.79709   2.80441   2.80635   2.81144
 Alpha virt. eigenvalues --    2.82268   2.82863   2.83467   2.84373   2.85740
 Alpha virt. eigenvalues --    2.86150   2.86224   2.88038   2.89307   2.90228
 Alpha virt. eigenvalues --    2.91181   2.92358   2.94535   2.94592   2.95331
 Alpha virt. eigenvalues --    2.96568   2.96954   2.97746   2.98416   2.98753
 Alpha virt. eigenvalues --    2.99445   3.00439   3.02090   3.03086   3.03756
 Alpha virt. eigenvalues --    3.04325   3.05909   3.06850   3.07849   3.09509
 Alpha virt. eigenvalues --    3.11827   3.12881   3.13414   3.16636   3.17683
 Alpha virt. eigenvalues --    3.18666   3.20735   3.21497   3.23450   3.26232
 Alpha virt. eigenvalues --    3.26451   3.28332   3.29820   3.31359   3.33442
 Alpha virt. eigenvalues --    3.35050   3.37436   3.39224   3.40488   3.41889
 Alpha virt. eigenvalues --    3.44127   3.44719   3.45461   3.46301   3.48910
 Alpha virt. eigenvalues --    3.49617   3.50740   3.52018   3.53815   3.54628
 Alpha virt. eigenvalues --    3.57052   3.57588   3.58565   3.60130   3.60797
 Alpha virt. eigenvalues --    3.62300   3.64059   3.65700   3.67640   3.68457
 Alpha virt. eigenvalues --    3.70721   3.71335   3.73512   3.74700   3.75103
 Alpha virt. eigenvalues --    3.76125   3.77495   3.78331   3.79907   3.80069
 Alpha virt. eigenvalues --    3.80893   3.83819   3.85534   3.86501   3.88830
 Alpha virt. eigenvalues --    3.92953   3.94962   3.97863   4.01548   4.02931
 Alpha virt. eigenvalues --    4.06996   4.08677   4.11174   4.13611   4.15819
 Alpha virt. eigenvalues --    4.16330   4.18969   4.21878   4.23846   4.24508
 Alpha virt. eigenvalues --    4.25916   4.27708   4.30855   4.31801   4.34013
 Alpha virt. eigenvalues --    4.36588   4.37069   4.39588   4.41663   4.42899
 Alpha virt. eigenvalues --    4.44025   4.44995   4.45842   4.47215   4.48653
 Alpha virt. eigenvalues --    4.49526   4.50397   4.51180   4.52426   4.53891
 Alpha virt. eigenvalues --    4.54600   4.54840   4.55657   4.55874   4.57502
 Alpha virt. eigenvalues --    4.58084   4.59013   4.59253   4.60097   4.61087
 Alpha virt. eigenvalues --    4.61246   4.61864   4.63101   4.63370   4.64454
 Alpha virt. eigenvalues --    4.65096   4.66695   4.67582   4.67802   4.68342
 Alpha virt. eigenvalues --    4.70010   4.70292   4.70780   4.72091   4.72393
 Alpha virt. eigenvalues --    4.73636   4.74334   4.75651   4.76403   4.77121
 Alpha virt. eigenvalues --    4.77772   4.77893   4.78674   4.79186   4.79873
 Alpha virt. eigenvalues --    4.81547   4.82609   4.83250   4.83670   4.84508
 Alpha virt. eigenvalues --    4.86412   4.87430   4.88517   4.89757   4.90654
 Alpha virt. eigenvalues --    4.91757   4.93757   4.94252   4.94980   4.96912
 Alpha virt. eigenvalues --    4.97301   4.99264   5.00906   5.01546   5.04592
 Alpha virt. eigenvalues --    5.09004   5.11826   5.16912   5.19477   5.22164
 Alpha virt. eigenvalues --    5.24164   5.28502   5.29777   5.31680   5.33693
 Alpha virt. eigenvalues --    5.37316   5.38757   5.40666   5.41407   5.42922
 Alpha virt. eigenvalues --    5.44210   5.44999   5.46986   5.48418   5.48643
 Alpha virt. eigenvalues --    5.50464   5.50603   5.54008   5.57310   5.59095
 Alpha virt. eigenvalues --    5.64351   5.65139   5.69742   5.71043   5.73745
 Alpha virt. eigenvalues --    5.79119   5.88232   5.92261   5.94265   5.95863
 Alpha virt. eigenvalues --    6.00085   6.03168   6.05018   6.10905   6.13801
 Alpha virt. eigenvalues --    6.16565   6.17693   6.25837   6.35678   6.50467
 Alpha virt. eigenvalues --    6.83169   7.07294   7.15114   7.27506  11.38420
 Alpha virt. eigenvalues --   11.65829  11.76948  11.84175  12.02235  12.21372
 Alpha virt. eigenvalues --   12.34078  12.41139  12.51357  12.67569  12.76374
 Alpha virt. eigenvalues --   13.07469  13.25391  13.41876  13.62933
          Condensed to atoms (all electrons):
               1          2          3          4          5          6
     1  C    5.856968  -0.599849   0.022536  -0.050549  -0.000147   0.555019
     2  C   -0.599849   7.990611  -0.576199   0.283651   0.003272  -0.940674
     3  C    0.022536  -0.576199   6.382407  -0.226597   0.002078   0.105205
     4  C   -0.050549   0.283651  -0.226597   5.473358   0.162457  -0.160197
     5  O   -0.000147   0.003272   0.002078   0.162457   8.044865  -0.000842
     6  C    0.555019  -0.940674   0.105205  -0.160197  -0.000842   7.550503
     7  C   -0.278392  -0.027799   0.106656  -0.043849  -0.000124  -0.480035
     8  C   -0.092280  -0.126604   0.033800   0.022433  -0.000676  -0.262888
     9  C   -0.023953  -0.322203   0.007950  -0.006292  -0.000114  -0.280004
    10  C   -0.010197  -0.056259   0.008264  -0.000138  -0.000070  -0.425678
    11  C   -0.001066  -0.010317   0.000180   0.000086   0.000001  -0.050520
    12  O   -0.000009  -0.000283  -0.000009  -0.000007  -0.000000  -0.000969
    13  C    0.000008  -0.001309  -0.000015  -0.000014  -0.000000  -0.015884
    14  O    0.000000  -0.000000  -0.000001  -0.000000   0.000000   0.000067
    15  O   -0.000000  -0.000000  -0.000000  -0.000000   0.000000  -0.000005
    16  H    0.438789  -0.032716   0.001837  -0.006025   0.000310  -0.038420
    17  H    0.438736  -0.231345   0.040288  -0.021982  -0.000006   0.106740
    18  H    0.495925  -0.159037  -0.009296   0.005037  -0.000015   0.042676
    19  H    0.012891   0.028183   0.080038  -0.055638   0.000351   0.169295
    20  H   -0.008259  -0.047618   0.348933   0.017102   0.001416   0.004653
    21  H   -0.042372  -0.097751   0.387436  -0.028892  -0.002895   0.020472
    22  H   -0.017683   0.023572  -0.087416   0.424982  -0.028134  -0.014395
    23  H    0.017806   0.022215  -0.150675   0.468937  -0.046396   0.021317
    24  H    0.000371   0.011845  -0.033051  -0.008693   0.261866   0.007934
    25  H    0.021426   0.011401  -0.007832   0.002337   0.000004   0.503367
    26  H    0.012294  -0.083550   0.028897   0.003109  -0.000021   0.514715
    27  H    0.002563   0.033075  -0.019355   0.004440   0.000082   0.040183
    28  H   -0.000210   0.030995  -0.002080   0.005508   0.000002  -0.002519
    29  H   -0.000324  -0.005623  -0.000658   0.000147   0.000000  -0.000651
    30  H    0.000905  -0.006749  -0.001183   0.000116   0.000000   0.026951
    31  H   -0.000110  -0.001819  -0.000143   0.000051  -0.000000  -0.019371
    32  H    0.000045  -0.000485  -0.000019  -0.000033  -0.000000  -0.010559
    33  H   -0.000022  -0.000100  -0.000021   0.000000   0.000000  -0.003943
    34  H   -0.000016  -0.000128   0.000027   0.000001   0.000000  -0.004549
    35  H   -0.000000  -0.000019  -0.000001  -0.000000  -0.000000  -0.000767
    36  H   -0.000000  -0.000016   0.000002   0.000000   0.000000  -0.000355
    37  H    0.000000   0.000002   0.000000   0.000000  -0.000000   0.000004
    38  H   -0.000000  -0.000000  -0.000000  -0.000000   0.000000  -0.000062
    39  H    0.000000   0.000000  -0.000000  -0.000000  -0.000000   0.000000
               7          8          9         10         11         12
     1  C   -0.278392  -0.092280  -0.023953  -0.010197  -0.001066  -0.000009
     2  C   -0.027799  -0.126604  -0.322203  -0.056259  -0.010317  -0.000283
     3  C    0.106656   0.033800   0.007950   0.008264   0.000180  -0.000009
     4  C   -0.043849   0.022433  -0.006292  -0.000138   0.000086  -0.000007
     5  O   -0.000124  -0.000676  -0.000114  -0.000070   0.000001  -0.000000
     6  C   -0.480035  -0.262888  -0.280004  -0.425678  -0.050520  -0.000969
     7  C    7.858620  -0.321169  -0.501147  -0.259672  -0.264362  -0.011598
     8  C   -0.321169   7.696916  -0.000056  -0.697406  -0.185564  -0.002921
     9  C   -0.501147  -0.000056   7.170936  -0.195663   0.096690  -0.062825
    10  C   -0.259672  -0.697406  -0.195663   7.832297  -0.471329   0.127500
    11  C   -0.264362  -0.185564   0.096690  -0.471329   6.724117   0.108759
    12  O   -0.011598  -0.002921  -0.062825   0.127500   0.108759   8.086452
    13  C   -0.016579  -0.348436  -0.154897  -0.191685  -0.245141  -0.022834
    14  O   -0.000077   0.009104   0.012619   0.101310  -0.026389   0.003818
    15  O   -0.000177  -0.001811  -0.010132  -0.016862  -0.085991  -0.005554
    16  H    0.001528  -0.004887  -0.000033  -0.000033  -0.000000   0.000000
    17  H    0.007699   0.006425   0.001202   0.000046   0.000002   0.000000
    18  H   -0.015702   0.000018   0.000461  -0.000018   0.000001   0.000000
    19  H   -0.005574   0.001384   0.006275  -0.000465   0.000028  -0.000000
    20  H   -0.020496   0.019123   0.001622  -0.000092   0.000036   0.000000
    21  H    0.043435   0.013365   0.004861   0.000039   0.000024   0.000000
    22  H    0.007178   0.000556   0.000131  -0.000002   0.000000   0.000000
    23  H   -0.015629   0.000512  -0.000130  -0.000002   0.000000  -0.000000
    24  H   -0.001999   0.000083  -0.000018  -0.000001  -0.000000  -0.000000
    25  H   -0.136222  -0.036645  -0.038706  -0.008548  -0.000372  -0.000000
    26  H   -0.165476   0.023376  -0.026504  -0.003228  -0.000121   0.000000
    27  H    0.385563  -0.060112  -0.041852  -0.034589  -0.001263  -0.000069
    28  H    0.373582  -0.036052  -0.038114  -0.021438  -0.002186   0.000023
    29  H   -0.063073   0.428890  -0.042731   0.000004  -0.004861  -0.000060
[...]
    21  H    2.767425   2.165234   1.101584   2.159602   2.753983
    22  H    2.863062   2.888698   2.183882   1.099767   2.082188
    23  H    3.483649   2.811267   2.164233   1.096084   2.014322
    24  H    4.607466   4.103975   2.640877   1.950208   0.962900
    25  H    2.627563   2.154887   3.483668   4.736459   5.915631
    26  H    2.815899   2.166569   2.761189   4.240152   5.146757
    27  H    4.329065   2.885223   2.892211   4.206563   4.770404
    28  H    4.151986   2.810381   3.517426   4.618766   5.508394
    29  H    5.087535   4.212124   5.150402   6.533959   7.462509
    30  H    5.220177   4.252796   4.737275   6.241365   6.929189
    31  H    6.681298   5.318896   5.445705   6.714319   7.113669
    32  H    6.567706   5.274554   5.795770   6.973355   7.620197
    33  H    7.662886   6.671446   7.393093   8.768432   9.505702
    34  H    7.708714   6.665973   7.089731   8.537931   9.086174
    35  H    9.091220   7.825224   8.252972   9.448514   9.948171
    36  H    9.325875   8.043572   8.075853   9.365088   9.583314
    37  H   10.091761   9.066342   9.679297  11.042703  11.659897
    38  H   10.336519   9.249625   9.617991  11.015391  11.456014
    39  H   13.178537  12.019247  12.365653  13.677332  14.046498
                    6          7          8          9         10
     6  C    0.000000
     7  C    1.534048   0.000000
     8  C    2.558102   1.533831   0.000000
     9  C    3.931655   2.562205   1.532501   0.000000
    10  C    5.118796   3.934006   2.560715   1.533060   0.000000
    11  C    6.460653   5.128478   3.937340   2.566562   1.537552
    12  O    6.761248   5.362364   4.393976   2.981178   2.457544
    13  C    7.653060   6.438667   5.095114   3.917170   2.534616
    14  O    8.838303   7.530125   6.293257   4.969301   3.764850
    15  O   10.088516   8.872422   7.532994   6.337314   4.976442
    16  H    3.492322   4.767939   6.024957   7.309682   8.575033
    17  H    2.806703   4.293869   5.279397   6.708113   7.809399
    18  H    2.734304   4.121459   5.072650   6.465726   7.554498
    19  H    2.146686   2.760537   4.179663   5.203662   6.592437
    20  H    2.731202   2.791594   4.189672   4.949307   6.390573
    21  H    2.832614   3.629864   4.840657   5.931206   7.212905
    22  H    4.340427   5.213972   6.659304   7.702079   9.113028
    23  H    4.193874   4.600383   6.132583   6.915554   8.415751
    24  H    5.143076   5.610957   6.950984   7.745330   9.134156
    25  H    1.098712   2.149458   2.741007   4.180042   5.186631
    26  H    1.100172   2.165388   2.805823   4.231065   5.258927
    27  H    2.175278   1.097019   2.153809   2.772930   4.207397
    28  H    2.161171   1.099276   2.160786   2.789792   4.217306
    29  H    2.780068   2.162260   1.099421   2.163787   2.785299
    30  H    2.781723   2.161728   1.099554   2.161755   2.790538
    31  H    4.230263   2.800339   2.167195   1.095853   2.154334
    32  H    4.219468   2.789300   2.162431   1.098907   2.157206
    33  H    5.263133   4.238425   2.815219   2.166829   1.098197
    34  H    5.222504   4.214788   2.774504   2.166818   1.101545
    35  H    6.660765   5.262060   4.239830   2.798928   2.163407
    36  H    6.831503   5.536272   4.501714   3.282878   2.647157
    37  H    7.664030   6.557816   5.149634   4.155730   2.709558
    38  H    7.838341   6.713023   5.318956   4.289866   2.867711
    39  H   10.674136   9.425886   8.118395   6.877076   5.563192
                   11         12         13         14         15
    11  C    0.000000
    12  O    1.423188   0.000000
    13  C    1.534097   2.444475   0.000000
    14  O    2.412254   2.895641   1.411131   0.000000
    15  O    3.839080   4.376772   2.451932   1.598295   0.000000
    16  H    9.868820  10.111027  11.105107  12.249504  13.527200
    17  H    9.203528   9.450406  10.324077  11.564438  12.749844
    18  H    8.941830   9.397744  10.046409  11.250064  12.419300
    19  H    7.735151   7.972400   9.068402  10.098033  11.460026
    20  H    7.364654   7.159791   8.774952   9.748389  11.186099
    21  H    8.375957   8.245498   9.660077  10.769414  12.102283
    22  H   10.226050  10.158034  11.595130  12.631768  14.030801
    23  H    9.363579   9.266067  10.812592  11.722113  13.193021
    24  H   10.069072   9.684087  11.461193  12.413330  13.850321
    25  H    6.602431   7.119232   7.677226   8.900107  10.059371
    26  H    6.647671   6.868297   7.751452   8.998906  10.185898
    27  H    5.220540   5.156121   6.609143   7.622753   9.032861
    28  H    5.256245   5.566891   6.619945   7.598692   8.986606
    29  H    4.235497   4.987225   5.205247   6.443994   7.560746
    30  H    4.211030   4.544115   5.210094   6.491116   7.633323
    31  H    2.760295   2.607750   4.199531   5.116680   6.565445
    32  H    2.808133   3.326680   4.205847   5.068616   6.493694
    33  H    2.159107   3.384929   2.723176   3.975563   4.989044
    34  H    2.160976   2.753402   2.764205   4.099942   5.132356
    35  H    1.096104   2.003627   2.140539   2.570727   4.064807
    36  H    1.954816   0.964844   2.626321   3.232307   4.514836
    37  H    2.178645   3.390141   1.100436   2.053929   2.619626
    38  H    2.181467   2.697647   1.101731   2.051570   2.661358
    39  H    4.335407   4.584440   3.045524   2.048365   0.973093
                   16         17         18         19         20
    16  H    0.000000
    17  H    1.768899   0.000000
    18  H    1.764769   1.768599   0.000000
    19  H    2.501958   3.070568   2.501597   0.000000
    20  H    3.850136   3.788184   4.334809   2.529473   0.000000
    21  H    3.135551   2.580947   3.773697   3.058055   1.759787
    22  H    2.266848   3.162314   3.858083   3.157390   3.054989
    23  H    3.100867   4.139869   4.301844   2.538027   2.500127
    24  H    4.384729   4.589052   5.688706   4.541669   2.873495
    25  H    3.646426   2.979058   2.376745   2.524035   3.771629
    26  H    3.829677   2.656243   3.151073   3.055404   2.989240
    27  H    5.070164   4.614531   4.765179   3.119626   2.184524
    28  H    4.861692   4.763745   4.247712   2.515204   3.106106
    29  H    6.080778   5.353168   4.860760   4.352082   4.915378
    30  H    6.236170   5.206369   5.306013   4.720034   4.386981
    31  H    7.514618   6.920479   6.897928   5.410946   4.642748
    32  H    7.374797   7.022050   6.552427   5.080352   5.131474
    33  H    8.640986   7.895730   7.443683   6.718651   6.906051
    34  H    8.713509   7.746216   7.694036   6.941229   6.529599
    35  H    9.940656   9.458001   9.032091   7.673435   7.498087
    36  H   10.218974   9.411865   9.510269   8.225019   7.245100
    37  H   11.070107  10.290250   9.874380   9.092481   9.086502
    38  H   11.328376  10.399196  10.282697   9.427363   8.950174
    39  H   14.131895  13.330775  13.091466  12.056515  11.606138
                   21         22         23         24         25
    21  H    0.000000
    22  H    2.510465   0.000000
    23  H    3.068589   1.765834   0.000000
    24  H    2.530414   2.338924   2.818258   0.000000
    25  H    3.764153   4.982934   4.889192   6.089045   0.000000
    26  H    2.592210   4.561140   4.735952   5.086062   1.753523
    27  H    3.287411   5.033822   4.353895   4.987077   3.066562
    28  H    4.219459   5.332958   4.422584   5.932718   2.519760
    29  H    5.424533   7.060888   6.590883   7.654292   2.507273
    30  H    4.726006   6.827584   6.538479   6.939632   3.046313
    31  H    5.732697   7.586423   6.761831   7.311123   4.723542
    32  H    6.309325   7.783809   6.798140   7.979428   4.387638
    33  H    7.646704   9.432559   8.767248   9.701589   5.098559
    34  H    7.137950   9.236863   8.720251   9.136010   5.333929
    35  H    8.661325  10.303979   9.290896  10.258188   6.761601
    36  H    8.174076  10.244959   9.493002   9.659291   7.225491
    37  H    9.899108  11.768510  11.025674  11.841184   7.530259
    38  H    9.694004  11.783316  11.129128  11.527702   7.907978
    39  H   12.536849  14.517337  13.673860  14.192419  10.721000
                   26         27         28         29         30
    26  H    0.000000
    27  H    2.517169   0.000000
    28  H    3.069779   1.754366   0.000000
    29  H    3.130480   3.061633   2.513046   0.000000
    30  H    2.578614   2.511791   3.067049   1.754542   0.000000
    31  H    4.426045   2.561616   3.121545   3.072389   2.520497
    32  H    4.760653   3.090171   2.565608   2.520785   3.068768
    33  H    5.477530   4.753376   4.414904   2.591300   3.149955
    34  H    5.129543   4.408623   4.742629   3.076260   2.550975
    35  H    7.015954   5.405088   5.158386   4.452974   4.755501
    36  H    6.782767   5.276756   5.916603   5.145562   4.414377
    37  H    7.803473   6.902069   6.692864   5.024012   5.316498
    38  H    7.781334   6.817151   7.059603   5.499897   5.202998
    39  H   10.726289   9.489022   9.577536   8.245932   8.160908
                   31         32         33         34         35
    31  H    0.000000
    32  H    1.752551   0.000000
    33  H    3.064146   2.497388   0.000000
    34  H    2.532419   3.068780   1.758629   0.000000
    35  H    3.075282   2.593277   2.507080   3.066026   0.000000
    36  H    2.835078   3.882772   3.628179   2.535636   2.814315
    37  H    4.686976   4.365670   2.436362   3.003581   2.548386
    38  H    4.456666   4.811539   3.183543   2.653767   3.061292
    39  H    6.968391   7.079947   5.720291   5.636390   4.618148
                   36         37         38         39
    36  H    0.000000
    37  H    3.602098   0.000000
    38  H    2.466752   1.779440   0.000000
    39  H    4.633818   3.443468   3.047648   0.000000
 Stoichiometry    C11H24O4
 Framework group  C1[X(C11H24O4)]
 Deg. of freedom   111
 Full point group                 C1      NOp   1
 Largest Abelian subgroup         C1      NOp   1
 Largest concise Abelian subgroup C1      NOp   1
                         Standard orientation:                         
 ---------------------------------------------------------------------
 Center     Atomic      Atomic             Coordinates (Angstroms)
 Number     Number       Type             X           Y           Z
 ---------------------------------------------------------------------
      1          6           0       -5.008431   -1.970841    0.038795
      2          6           0       -3.992268   -0.861765   -0.279999
      3          6           0       -4.437537    0.503940    0.278487
      4          6           0       -5.718099    1.070028   -0.341829
      5          8           0       -5.988788    2.400134    0.085843
      6          6           0       -2.595103   -1.265014    0.234530
      7          6           0       -1.430157   -0.396252   -0.256853
      8          6           0       -0.062212   -0.907447    0.212235
      9          6           0        1.107913   -0.045854   -0.274614
     10          6           0        2.475185   -0.563613    0.186651
     11          6           0        3.646051    0.334004   -0.246272
     12          8           0        3.494745    1.672296    0.213666
     13          6           0        4.991569   -0.260163    0.189621
     14          8           0        6.049784    0.458759   -0.405880
     15          8           0        7.436504   -0.218959    0.009155
     16          1           0       -5.996826   -1.761349   -0.380486
     17          1           0       -5.125693   -2.092169    1.123073
     18          1           0       -4.676858   -2.932635   -0.366929
     19          1           0       -3.926271   -0.769725   -1.375110
     20          1           0       -3.652040    1.250858    0.121645
     21          1           0       -4.572399    0.416818    1.368307
     22          1           0       -6.579117    0.416216   -0.140175
     23          1           0       -5.608121    1.130241   -1.430719
     24          1           0       -6.127764    2.385342    1.038546
     25          1           0       -2.404256   -2.303210   -0.070255
     26          1           0       -2.607562   -1.273695    1.334598
     27          1           0       -1.555174    0.639509    0.082293
     28          1           0       -1.444779   -0.359778   -1.355427
     29          1           0        0.076164   -1.942448   -0.131789
     30          1           0       -0.049240   -0.951708    1.310822
     31          1           0        0.982886    0.985969    0.072666
     32          1           0        1.095298    0.000867   -1.372455
     33          1           0        2.640395   -1.576155   -0.205141
     34          1           0        2.484213   -0.654408    1.284411
     35          1           0        3.654857    0.416364   -1.339242
     36          1           0        3.503605    1.664872    1.178440
     37          1           0        5.061033   -1.316928   -0.109348
     38          1           0        5.100833   -0.211935    1.284859
     39          1           0        7.927401    0.519104    0.410644
 ---------------------------------------------------------------------
 Rotational constants (GHZ):           1.5284144           0.1131696           0.1068745
 Standard basis: 6-31+G(2df,p) (6D, 7F)
 There are   645 symmetry adapted cartesian basis functions of A   symmetry.
 There are   600 symmetry adapted basis functions of A   symmetry.
   600 basis functions,   888 primitive gaussians,   645 cartesian basis functions
    61 alpha electrons       61 beta electrons
       nuclear repulsion energy       983.5335996313 Hartrees.
 NAtoms=   39 NActive=   39 NUniq=   39 SFac= 1.00D+00 NAtFMM=   60 NAOKFM=F Big=F
 Integral buffers will be    131072 words long.
 Regular integral format.
 Two-electron integral symmetry is turned on.
 One-electron integrals computed using PRISM.
 PrsmSu:  requested number of processors reduced to:  12 ShMem   1 Linda.
 NBasis=   600 RedAO= T EigKep=  5.58D-06  NBF=   600
 NBsUse=   600 1.00D-06 EigRej= -1.00D+00 NBFU=   600
 Initial guess from the checkpoint file:  "CCqCCOrCCCCCCqOrCOO.chk"
 B after Tr=    -0.000000   -0.000000    0.000000
         Rot=    1.000000    0.000841   -0.000021   -0.000292 Ang=   0.10 deg.
 ExpMin= 4.38D-02 ExpMax= 5.48D+03 ExpMxC= 8.25D+02 IAcc=2 IRadAn=         4 AccDes= 0.00D+00
 Harris functional with IExCor=  402 and IRadAn=       4 diagonalized for initial guess.
 HarFok:  IExCor=  402 AccDes= 0.00D+00 IRadAn=         4 IDoV= 1 UseB2=F ITyADJ=14
 ICtDFT=  3500011 ScaDFX=  1.000000  1.000000  1.000000  1.000000
 FoFCou: FMM=F IPFlag=           0 FMFlag=      100000 FMFlg1=           0
         NFxFlg=           0 DoJE=T BraDBF=F KetDBF=T FulRan=T
         wScrn=  0.000000 ICntrl=       500 IOpCl=  0 I1Cent=   200000004 NGrid=           0
         NMat0=    1 NMatS0=      1 NMatT0=    0 NMatD0=    1 NMtDS0=    0 NMtDT0=    0
 Petite list used in FoFCou.
 Requested convergence on RMS density matrix=1.00D-08 within 128 cycles.
 Requested convergence on MAX density matrix=1.00D-06.
 Requested convergence on             energy=1.00D-06.
 No special actions if energy rises.
 SCF Done:  E(RB3LYP) =  -734.497099348     A.U. after   13 cycles
            NFock= 13  Conv=0.20D-08     -V/T= 2.0080
 DoSCS=F DFT=T ScalE2(SS,OS)=  1.000000  1.000000
 ExpMin= 4.38D-02 ExpMax= 5.48D+03 ExpMxC= 8.25D+02 IAcc=3 IRadAn=         5 AccDes= 0.00D+00
 HarFok:  IExCor=  205 AccDes= 0.00D+00 IRadAn=         5 IDoV=-2 UseB2=F ITyADJ=14
 ICtDFT= 12500011 ScaDFX=  1.000000  1.000000  1.000000  1.000000
 Range of M.O.s used for correlation:    16   600
 NBasis=   600 NAE=    61 NBE=    61 NFC=    15 NFV=     0
 NROrb=    585 NOA=    46 NOB=    46 NVA=   539 NVB=   539

 **** Warning!!: The largest alpha MO coefficient is  0.10925665D+03

 Orbital symmetries:
       Occupied  (A) (A) (A) (A) (A) (A) (A) (A) (A) (A) (A) (A)
                 (A) (A) (A) (A) (A) (A) (A) (A) (A) (A) (A) (A)
                 (A) (A) (A) (A) (A) (A) (A) (A) (A) (A) (A) (A)
                 (A) (A) (A) (A) (A) (A) (A) (A) (A) (A) (A) (A)
                 (A) (A) (A) (A) (A) (A) (A) (A) (A) (A) (A) (A)
                 (A)
       Virtual   (A) (A) (A) (A) (A) (A) (A) (A) (A) (A) (A) (A)
                 (A) (A) (A) (A) (A) (A) (A) (A) (A) (A) (A) (A)
                 (A) (A) (A) (A) (A) (A) (A) (A) (A) (A) (A) (A)
                 (A) (A) (A) (A) (A) (A) (A) (A) (A) (A) (A) (A)
                 (A) (A) (A) (A) (A) (A) (A) (A) (A) (A) (A) (A)
                 (A) (A) (A) (A) (A) (A) (A) (A) (A) (A) (A) (A)
                 (A) (A) (A) (A) (A) (A) (A) (A) (A) (A) (A) (A)
                 (A) (A) (A) (A) (A) (A) (A) (A) (A) (A) (A) (A)
                 (A) (A) (A) (A) (A) (A) (A) (A) (A) (A) (A) (A)
                 (A) (A) (A) (A) (A) (A) (A) (A) (A) (A) (A) (A)
                 (A) (A) (A) (A) (A) (A) (A) (A) (A) (A) (A) (A)
                 (A) (A) (A) (A) (A) (A) (A) (A) (A) (A) (A) (A)
                 (A) (A) (A) (A) (A) (A) (A) (A) (A) (A) (A) (A)
                 (A) (A) (A) (A) (A) (A) (A) (A) (A) (A) (A) (A)
                 (A) (A) (A) (A) (A) (A) (A) (A) (A) (A) (A) (A)
                 (A) (A) (A) (A) (A) (A) (A) (A) (A) (A) (A) (A)
                 (A) (A) (A) (A) (A) (A) (A) (A) (A) (A) (A) (A)
                 (A) (A) (A) (A) (A) (A) (A) (A) (A) (A) (A) (A)
                 (A) (A) (A) (A) (A) (A) (A) (A) (A) (A) (A) (A)
                 (A) (A) (A) (A) (A) (A) (A) (A) (A) (A) (A) (A)
                 (A) (A) (A) (A) (A) (A) (A) (A) (A) (A) (A) (A)
                 (A) (A) (A) (A) (A) (A) (A) (A) (A) (A) (A) (A)
                 (A) (A) (A) (A) (A) (A) (A) (A) (A) (A) (A) (A)
                 (A) (A) (A) (A) (A) (A) (A) (A) (A) (A) (A) (A)
                 (A) (A) (A) (A) (A) (A) (A) (A) (A) (A) (A) (A)
                 (A) (A) (A) (A) (A) (A) (A) (A) (A) (A) (A) (A)
                 (A) (A) (A) (A) (A) (A) (A) (A) (A) (A) (A) (A)
                 (A) (A) (A) (A) (A) (A) (A) (A) (A) (A) (A) (A)
                 (A) (A) (A) (A) (A) (A) (A) (A) (A) (A) (A) (A)
                 (A) (A) (A) (A) (A) (A) (A) (A) (A) (A) (A) (A)
                 (A) (A) (A) (A) (A) (A) (A) (A) (A) (A) (A) (A)
                 (A) (A) (A) (A) (A) (A) (A) (A) (A) (A) (A) (A)
                 (A) (A) (A) (A) (A) (A) (A) (A) (A) (A) (A) (A)
                 (A) (A) (A) (A) (A) (A) (A) (A) (A) (A) (A) (A)
                 (A) (A) (A) (A) (A) (A) (A) (A) (A) (A) (A) (A)
                 (A) (A) (A) (A) (A) (A) (A) (A) (A) (A) (A) (A)
                 (A) (A) (A) (A) (A) (A) (A) (A) (A) (A) (A) (A)
                 (A) (A) (A) (A) (A) (A) (A) (A) (A) (A) (A) (A)
                 (A) (A) (A) (A) (A) (A) (A) (A) (A) (A) (A) (A)
                 (A) (A) (A) (A) (A) (A) (A) (A) (A) (A) (A) (A)
                 (A) (A) (A) (A) (A) (A) (A) (A) (A) (A) (A) (A)
                 (A) (A) (A) (A) (A) (A) (A) (A) (A) (A) (A) (A)
                 (A) (A) (A) (A) (A) (A) (A) (A) (A) (A) (A) (A)
                 (A) (A) (A) (A) (A) (A) (A) (A) (A) (A) (A) (A)
                 (A) (A) (A) (A) (A) (A) (A) (A) (A) (A) (A)
 Generating guess from densities on rwf.
 Convergence on wavefunction:    0.000001000000000
 Iteration     1 Dimension    20 NMult     0 NNew     20
 CISAX will form     3 AO SS matrices at one time.
 New state      2 was old state      5
 New state      3 was old state      9
 New state      4 was old state      2
 New state      5 was old state      3
 New state      6 was old state      4
 New state      7 was old state      6
 New state      9 was old state      7
 Iteration     2 Dimension    40 NMult    20 NNew     20
 No map to state      4
 New state      5 was old state      4
 New state      7 was old state      5
 No map to state      8
 No map to state      9
 No map to state     10
 Iteration     3 Dimension    60 NMult    40 NNew     20
slurmstepd: error: *** JOB 27501049 ON lewis4-r630-hpc4-node236 CANCELLED AT 2023-05-26T18:10:05 DUE TO TIME LIMIT ***
