### Starting Gaussian ###
 Entering Gaussian System, Link 0=g16
 Initial command:
 /cluster/software/gaussian/gaussian-16-A.03/avx2/g16/l1.exe "/local/scratch/linjian/Gau-21180.inp" -scrdir="/local/scratch/linjian/"
 Entering Link 1 = /cluster/software/gaussian/gaussian-16-A.03/avx2/g16/l1.exe PID=     21181.
  
 Copyright (c) 1988,1990,1992,1993,1995,1998,2003,2009,2016,
            Gaussian, Inc.  All Rights Reserved.
  
 This is part of the Gaussian(R) 16 program.  It is based on
 the Gaussian(R) 09 system (copyright 2009, Gaussian, Inc.),
 the Gaussian(R) 03 system (copyright 2003, Gaussian, Inc.),
 the Gaussian(R) 98 system (copyright 1998, Gaussian, Inc.),
 the Gaussian(R) 94 system (copyright 1995, Gaussian, Inc.),
 the Gaussian 92(TM) system (copyright 1992, Gaussian, Inc.),
 the Gaussian 90(TM) system (copyright 1990, Gaussian, Inc.),
 the Gaussian 88(TM) system (copyright 1988, Gaussian, Inc.),
 the Gaussian 86(TM) system (copyright 1986, Carnegie Mellon
 University), and the Gaussian 82(TM) system (copyright 1983,
 Carnegie Mellon University). Gaussian is a federally registered
 trademark of Gaussian, Inc.
  
 This software contains proprietary and confidential information,
 including trade secrets, belonging to Gaussian, Inc.
  
 This software is provided under written license and may be
 used, copied, transmitted, or stored only in accord with that
 written license.
  
 The following legend is applicable only to US Government
 contracts under FAR:
  
                    RESTRICTED RIGHTS LEGEND
  
 Use, reproduction and disclosure by the US Government is
 subject to restrictions as set forth in subparagraphs (a)
 and (c) of the Commercial Computer Software - Restricted
 Rights clause in FAR 52.227-19.
  
 Gaussian, Inc.
 340 Quinnipiac St., Bldg. 40, Wallingford CT 06492
  
  
 ---------------------------------------------------------------
 Warning -- This program may not be used in any manner that
 competes with the business of Gaussian, Inc. or will provide
 assistance to any competitor of Gaussian, Inc.  The licensee
 of this program is prohibited from giving any competitor of
 Gaussian, Inc. access to this program.  By using this program,
 the user acknowledges that Gaussian, Inc. is engaged in the
 business of creating and licensing software in the field of
 computational chemistry and represents and warrants to the
 licensee that it is not a competitor of Gaussian, Inc. and that
 it will not use this program in any manner prohibited above.
 ---------------------------------------------------------------
  

 Cite this work as:
 Gaussian 16, Revision A.03,
 M. J. Frisch, G. W. Trucks, H. B. Schlegel, G. E. Scuseria, 
 M. A. Robb, J. R. Cheeseman, G. Scalmani, V. Barone, 
 G. A. Petersson, H. Nakatsuji, X. Li, M. Caricato, A. V. Marenich, 
 J. Bloino, B. G. Janesko, R. Gomperts, B. Mennucci, H. P. Hratchian, 
 J. V. Ortiz, A. F. Izmaylov, J. L. Sonnenberg, D. Williams-Young, 
 F. Ding, F. Lipparini, F. Egidi, J. Goings, B. Peng, A. Petrone, 
 T. Henderson, D. Ranasinghe, V. G. Zakrzewski, J. Gao, N. Rega, 
 G. Zheng, W. Liang, M. Hada, M. Ehara, K. Toyota, R. Fukuda, 
 J. Hasegawa, M. Ishida, T. Nakajima, Y. Honda, O. Kitao, H. Nakai, 
 T. Vreven, K. Throssell, J. A. Montgomery, Jr., J. E. Peralta, 
 F. Ogliaro, M. J. Bearpark, J. J. Heyd, E. N. Brothers, K. N. Kudin, 
 V. N. Staroverov, T. A. Keith, R. Kobayashi, J. Normand, 
 K. Raghavachari, A. P. Rendell, J. C. Burant, S. S. Iyengar, 
 J. Tomasi, M. Cossi, J. M. Millam, M. Klene, C. Adamo, R. Cammi, 
 J. W. Ochterski, R. L. Martin, K. Morokuma, O. Farkas, 
 J. B. Foresman, and D. J. Fox, Gaussian, Inc., Wallingford CT, 2016.
 
 ******************************************
 Gaussian 16:  ES64L-G16RevA.03 25-Dec-2016
                27-May-2023 
 ******************************************
 %chk=CCqCrqCrCqFrqFrF.chk
 %NProcShared=20
 Will use up to   20 processors via shared memory.
 -----------------------------
 # opt freq b3lyp/6-31g(2df,p)
 -----------------------------
 1/18=20,19=15,26=3,38=1/1,3;
 2/9=110,12=2,17=6,18=5,40=1/2;
 3/5=1,6=6,7=104,11=2,25=1,30=1,71=1,74=-5/1,2,3;
 4//1;
 5/5=2,38=5/2;
 6/7=2,8=2,9=2,10=2,28=1/1;
 7//1,2,3,16;
 1/18=20,19=15,26=3/3(2);
 2/9=110/2;
 99//99;
 2/9=110/2;
 3/5=1,6=6,7=104,11=2,25=1,30=1,71=1,74=-5/1,2,3;
 4/5=5,16=3,69=1/1;
 5/5=2,38=5/2;
 7//1,2,3,16;
 1/18=20,19=15,26=3/3(-5);
 2/9=110/2;
 6/7=2,8=2,9=2,10=2,19=2,28=1/1;
 99/9=1/99;
 -------------------
 Title Card Required
 -------------------
 Symbolic Z-matrix:
 Charge =  0 Multiplicity = 1
 C                     0.93237   0.0588    0.05892 
 C                     2.46842   0.06316   0.06198 
 C                     2.97793  -1.25331   0.6676 
 C                     2.97793   0.18773  -1.38175 
 C                     2.97865   1.24368   0.89208 
 F                     2.55009   2.42314   0.38914 
 F                     2.55009   1.16939   2.17214 
 F                     4.32979   1.28156   0.91872 
 H                     0.53999  -0.77822  -0.52965 
 H                     0.53368   0.98384  -0.37233 
 H                     0.53368  -0.03408   1.0753 
 H                     2.62636  -2.11651   0.09118 
 H                     2.62813  -1.37756   1.69854 
 H                     4.07307  -1.28649   0.68088 
 H                     2.62636  -0.64672  -1.99906 
 H                     4.07307   0.18899  -1.41746 
 H                     2.62813   1.11585  -1.84743 
 

 GradGradGradGradGradGradGradGradGradGradGradGradGradGradGradGradGradGrad
 Berny optimization.
 Initialization pass.
                           ----------------------------
                           !    Initial Parameters    !
                           ! (Angstroms and Degrees)  !
 --------------------------                            --------------------------
 ! Name  Definition              Value          Derivative Info.                !
 --------------------------------------------------------------------------------
 ! R1    R(1,2)                  1.5361         estimate D2E/DX2                !
 ! R2    R(1,9)                  1.0959         estimate D2E/DX2                !
 ! R3    R(1,10)                 1.0957         estimate D2E/DX2                !
 ! R4    R(1,11)                 1.0957         estimate D2E/DX2                !
 ! R5    R(2,3)                  1.5361         estimate D2E/DX2                !
 ! R6    R(2,4)                  1.5361         estimate D2E/DX2                !
 ! R7    R(2,5)                  1.5307         estimate D2E/DX2                !
 ! R8    R(3,12)                 1.0959         estimate D2E/DX2                !
 ! R9    R(3,13)                 1.0957         estimate D2E/DX2                !
 ! R10   R(3,14)                 1.0957         estimate D2E/DX2                !
 ! R11   R(4,15)                 1.0959         estimate D2E/DX2                !
 ! R12   R(4,16)                 1.0957         estimate D2E/DX2                !
 ! R13   R(4,17)                 1.0957         estimate D2E/DX2                !
 ! R14   R(5,6)                  1.3519         estimate D2E/DX2                !
 ! R15   R(5,7)                  1.3519         estimate D2E/DX2                !
 ! R16   R(5,8)                  1.3519         estimate D2E/DX2                !
 ! A1    A(2,1,9)              111.1789         estimate D2E/DX2                !
 ! A2    A(2,1,10)             111.238          estimate D2E/DX2                !
 ! A3    A(2,1,11)             111.2385         estimate D2E/DX2                !
 ! A4    A(9,1,10)             107.6466         estimate D2E/DX2                !
 ! A5    A(9,1,11)             107.6474         estimate D2E/DX2                !
 ! A6    A(10,1,11)            107.7125         estimate D2E/DX2                !
 ! A7    A(1,2,3)              109.2719         estimate D2E/DX2                !
 ! A8    A(1,2,4)              109.2721         estimate D2E/DX2                !
 ! A9    A(1,2,5)              109.6698         estimate D2E/DX2                !
 ! A10   A(3,2,4)              109.2718         estimate D2E/DX2                !
 ! A11   A(3,2,5)              109.6699         estimate D2E/DX2                !
 ! A12   A(4,2,5)              109.6696         estimate D2E/DX2                !
 ! A13   A(2,3,12)             111.1787         estimate D2E/DX2                !
 ! A14   A(2,3,13)             111.2383         estimate D2E/DX2                !
 ! A15   A(2,3,14)             111.2387         estimate D2E/DX2                !
 ! A16   A(12,3,13)            107.6468         estimate D2E/DX2                !
 ! A17   A(12,3,14)            107.6475         estimate D2E/DX2                !
 ! A18   A(13,3,14)            107.7119         estimate D2E/DX2                !
 ! A19   A(2,4,15)             111.1785         estimate D2E/DX2                !
 ! A20   A(2,4,16)             111.2383         estimate D2E/DX2                !
 ! A21   A(2,4,17)             111.2385         estimate D2E/DX2                !
 ! A22   A(15,4,16)            107.6471         estimate D2E/DX2                !
 ! A23   A(15,4,17)            107.6468         estimate D2E/DX2                !
 ! A24   A(16,4,17)            107.7127         estimate D2E/DX2                !
 ! A25   A(2,5,6)              111.434          estimate D2E/DX2                !
 ! A26   A(2,5,7)              111.4338         estimate D2E/DX2                !
 ! A27   A(2,5,8)              111.4342         estimate D2E/DX2                !
 ! A28   A(6,5,7)              107.4389         estimate D2E/DX2                !
 ! A29   A(6,5,8)              107.4394         estimate D2E/DX2                !
 ! A30   A(7,5,8)              107.4392         estimate D2E/DX2                !
 ! D1    D(9,1,2,3)            -59.7578         estimate D2E/DX2                !
 ! D2    D(9,1,2,4)             59.7573         estimate D2E/DX2                !
 ! D3    D(9,1,2,5)            179.9997         estimate D2E/DX2                !
 ! D4    D(10,1,2,3)          -179.7161         estimate D2E/DX2                !
 ! D5    D(10,1,2,4)           -60.2011         estimate D2E/DX2                !
 ! D6    D(10,1,2,5)            60.0413         estimate D2E/DX2                !
 ! D7    D(11,1,2,3)            60.2019         estimate D2E/DX2                !
 ! D8    D(11,1,2,4)           179.717          estimate D2E/DX2                !
 ! D9    D(11,1,2,5)           -60.0406         estimate D2E/DX2                !
 ! D10   D(1,2,3,12)            59.7572         estimate D2E/DX2                !
 ! D11   D(1,2,3,13)           -60.2015         estimate D2E/DX2                !
 ! D12   D(1,2,3,14)           179.717          estimate D2E/DX2                !
 ! D13   D(4,2,3,12)           -59.7581         estimate D2E/DX2                !
 ! D14   D(4,2,3,13)          -179.7167         estimate D2E/DX2                !
 ! D15   D(4,2,3,14)            60.2018         estimate D2E/DX2                !
 ! D16   D(5,2,3,12)           179.9997         estimate D2E/DX2                !
 ! D17   D(5,2,3,13)            60.0411         estimate D2E/DX2                !
 ! D18   D(5,2,3,14)           -60.0404         estimate D2E/DX2                !
 ! D19   D(1,2,4,15)           -59.7572         estimate D2E/DX2                !
 ! D20   D(1,2,4,16)          -179.7162         estimate D2E/DX2                !
 ! D21   D(1,2,4,17)            60.2015         estimate D2E/DX2                !
 ! D22   D(3,2,4,15)            59.7579         estimate D2E/DX2                !
 ! D23   D(3,2,4,16)           -60.2011         estimate D2E/DX2                !
 ! D24   D(3,2,4,17)           179.7165         estimate D2E/DX2                !
 ! D25   D(5,2,4,15)          -179.9997         estimate D2E/DX2                !
 ! D26   D(5,2,4,16)            60.0413         estimate D2E/DX2                !
 ! D27   D(5,2,4,17)           -60.0411         estimate D2E/DX2                !
 ! D28   D(1,2,5,6)            -59.9999         estimate D2E/DX2                !
 ! D29   D(1,2,5,7)             59.9997         estimate D2E/DX2                !
 ! D30   D(1,2,5,8)            179.9997         estimate D2E/DX2                !
 ! D31   D(3,2,5,6)           -179.9999         estimate D2E/DX2                !
 ! D32   D(3,2,5,7)            -60.0004         estimate D2E/DX2                !
 ! D33   D(3,2,5,8)             59.9996         estimate D2E/DX2                !
 ! D34   D(4,2,5,6)             60.0003         estimate D2E/DX2                !
 ! D35   D(4,2,5,7)            179.9998         estimate D2E/DX2                !
 ! D36   D(4,2,5,8)            -60.0002         estimate D2E/DX2                !
 --------------------------------------------------------------------------------
 Trust Radius=3.00D-01 FncErr=1.00D-07 GrdErr=1.00D-06 EigMax=2.50D+02 EigMin=1.00D-04
 Number of steps in this run=     92 maximum allowed number of steps=    102.
 GradGradGradGradGradGradGradGradGradGradGradGradGradGradGradGradGradGrad

                          Input orientation:                          
 ---------------------------------------------------------------------
 Center     Atomic      Atomic             Coordinates (Angstroms)
 Number     Number       Type             X           Y           Z
 ---------------------------------------------------------------------
      1          6           0        0.932370    0.058800    0.058920
      2          6           0        2.468420    0.063160    0.061980
      3          6           0        2.977930   -1.253310    0.667600
      4          6           0        2.977930    0.187730   -1.381750
      5          6           0        2.978650    1.243680    0.892080
      6          9           0        2.550090    2.423140    0.389140
      7          9           0        2.550090    1.169390    2.172140
      8          9           0        4.329790    1.281560    0.918720
      9          1           0        0.539990   -0.778220   -0.529650
     10          1           0        0.533680    0.983840   -0.372330
     11          1           0        0.533680   -0.034080    1.075300
     12          1           0        2.626360   -2.116510    0.091180
     13          1           0        2.628130   -1.377560    1.698540
     14          1           0        4.073070   -1.286490    0.680880
     15          1           0        2.626360   -0.646720   -1.999060
     16          1           0        4.073070    0.188990   -1.417460
     17          1           0        2.628130    1.115850   -1.847430
 ---------------------------------------------------------------------
                    Distance matrix (angstroms):
                    1          2          3          4          5
     1  C    0.000000
     2  C    1.536059   0.000000
     3  C    2.505282   1.536056   0.000000
     4  C    2.505288   1.536058   2.505281   0.000000
     5  C    2.507062   1.530695   2.507060   2.507057   0.000000
     6  F    2.883776   2.383948   3.711721   2.883775   1.351939
     7  F    2.883770   2.383944   2.883776   3.711716   1.351938
     8  F    3.711719   2.383946   2.883774   2.883774   1.351933
     9  H    1.095892   2.185587   2.757294   2.757297   3.472241
    10  H    1.095732   2.186206   3.472845   2.761716   2.764802
    11  H    1.095723   2.186205   2.761720   3.472845   2.764800
    12  H    2.757284   2.185580   1.095890   2.757290   3.472236
    13  H    2.761718   2.186209   1.095735   3.472849   2.764804
    14  H    3.472843   2.186205   1.095723   2.761720   2.764800
    15  H    2.757289   2.185580   2.757286   1.095892   3.472234
    16  H    3.472844   2.186202   2.761709   1.095723   2.764797
    17  H    2.761725   2.186209   3.472845   1.095730   2.764800
                    6          7          8          9         10
     6  F    0.000000
     7  F    2.179674   0.000000
     8  F    2.179677   2.179673   0.000000
     9  H    3.890165   3.890161   4.550061   0.000000
    10  H    2.591781   3.251871   4.020684   1.769080   0.000000
    11  H    3.251869   2.591777   4.020681   1.769081   1.769687
    12  H    4.550057   3.890161   3.890164   2.555267   3.769127
    13  H    4.020689   2.591783   3.251874   3.111972   3.775107
    14  H    4.020688   3.251872   2.591786   3.769135   4.334851
    15  H    3.890162   4.550053   3.890164   2.555269   3.111959
    16  H    3.251876   4.020682   2.591785   3.769132   3.775098
    17  H    2.591784   4.020684   3.251875   3.111973   2.565164
                   11         12         13         14         15
    11  H    0.000000
    12  H    3.111963   0.000000
    13  H    2.565168   1.769083   0.000000
    14  H    3.775100   1.769081   1.769683   0.000000
    15  H    3.769128   2.555266   3.769135   3.111969   0.000000
    16  H    4.334847   3.111960   3.775101   2.565165   1.769079
    17  H    3.775104   3.769133   4.334858   3.775108   1.769081
                   16         17
    16  H    0.000000
    17  H    1.769688   0.000000
 This structure is nearly, but not quite of a higher symmetry.
 Consider Symm=Loose if the higher symmetry is desired.
 Stoichiometry    C5H9F3
 Framework group  C1[X(C5H9F3)]
 Deg. of freedom    45
 Full point group                 C1      NOp   1
 Largest Abelian subgroup         C1      NOp   1
 Largest concise Abelian subgroup C1      NOp   1
                         Standard orientation:                         
 ---------------------------------------------------------------------
 Center     Atomic      Atomic             Coordinates (Angstroms)
 Number     Number       Type             X           Y           Z
 ---------------------------------------------------------------------
      1          6           0        0.847657    1.543960    0.751045
      2          6           0        0.395101    0.082169    0.617480
      3          6           0        1.631038   -0.828449    0.565498
      4          6           0       -0.462596   -0.296221    1.834300
      5          6           0       -0.424765   -0.088342   -0.663837
      6          9           0       -1.523744    0.699005   -0.655609
      7          9           0        0.297784    0.235949   -1.759508
      8          9           0       -0.842171   -1.365066   -0.817047
      9          1           0        1.437931    1.694014    1.662110
     10          1           0       -0.011251    2.222834    0.796163
     11          1           0        1.467653    1.846878   -0.100104
     12          1           0        2.236946   -0.725727    1.472856
     13          1           0        2.269771   -0.582236   -0.290093
     14          1           0        1.344239   -1.882101    0.475098
     15          1           0        0.101541   -0.182880    2.766976
     16          1           0       -0.799437   -1.337152    1.774235
     17          1           0       -1.352818    0.338672    1.905307
 ---------------------------------------------------------------------
 Rotational constants (GHZ):           2.5157658           1.7720306           1.7720293
 Standard basis: 6-31G(2df,p) (6D, 7F)
 There are   293 symmetry adapted cartesian basis functions of A   symmetry.
 There are   269 symmetry adapted basis functions of A   symmetry.
   269 basis functions,   415 primitive gaussians,   293 cartesian basis functions
    33 alpha electrons       33 beta electrons
       nuclear repulsion energy       448.6601291500 Hartrees.
 NAtoms=   17 NActive=   17 NUniq=   17 SFac= 1.00D+00 NAtFMM=   60 NAOKFM=F Big=F
 Integral buffers will be    131072 words long.
 Raffenetti 2 integral format.
 Two-electron integral symmetry is turned on.
 One-electron integrals computed using PRISM.
 PrsmSu:  requested number of processors reduced to:  13 ShMem   1 Linda.
 NBasis=   269 RedAO= T EigKep=  7.11D-04  NBF=   269
 NBsUse=   269 1.00D-06 EigRej= -1.00D+00 NBFU=   269
 ExpMin= 1.61D-01 ExpMax= 7.00D+03 ExpMxC= 1.05D+03 IAcc=3 IRadAn=         5 AccDes= 0.00D+00
 Harris functional with IExCor=  402 and IRadAn=       5 diagonalized for initial guess.
 HarFok:  IExCor=  402 AccDes= 0.00D+00 IRadAn=         5 IDoV= 1 UseB2=F ITyADJ=14
 ICtDFT=  3500011 ScaDFX=  1.000000  1.000000  1.000000  1.000000
 FoFCou: FMM=F IPFlag=           0 FMFlag=      100000 FMFlg1=           0
         NFxFlg=           0 DoJE=T BraDBF=F KetDBF=T FulRan=T
         wScrn=  0.000000 ICntrl=       500 IOpCl=  0 I1Cent=   200000004 NGrid=           0
         NMat0=    1 NMatS0=      1 NMatT0=    0 NMatD0=    1 NMtDS0=    0 NMtDT0=    0
 Petite list used in FoFCou.
 Requested convergence on RMS density matrix=1.00D-08 within 128 cycles.
 Requested convergence on MAX density matrix=1.00D-06.
 Requested convergence on             energy=1.00D-06.
 No special actions if energy rises.
 Integral accuracy reduced to 1.0D-05 until final iterations.
 Initial convergence to 1.0D-05 achieved.  Increase integral accuracy.
 SCF Done:  E(RB3LYP) =  -495.531029151     A.U. after   12 cycles
            NFock= 12  Conv=0.40D-08     -V/T= 2.0069

 **********************************************************************

            Population analysis using the SCF density.

 **********************************************************************

 Orbital symmetries:
       Occupied  (A) (A) (A) (A) (A) (A) (A) (A) (A) (A) (A) (A)
                 (A) (A) (A) (A) (A) (A) (A) (A) (A) (A) (A) (A)
                 (A) (A) (A) (A) (A) (A) (A) (A) (A)
       Virtual   (A) (A) (A) (A) (A) (A) (A) (A) (A) (A) (A) (A)
                 (A) (A) (A) (A) (A) (A) (A) (A) (A) (A) (A) (A)
                 (A) (A) (A) (A) (A) (A) (A) (A) (A) (A) (A) (A)
                 (A) (A) (A) (A) (A) (A) (A) (A) (A) (A) (A) (A)
                 (A) (A) (A) (A) (A) (A) (A) (A) (A) (A) (A) (A)
                 (A) (A) (A) (A) (A) (A) (A) (A) (A) (A) (A) (A)
                 (A) (A) (A) (A) (A) (A) (A) (A) (A) (A) (A) (A)
                 (A) (A) (A) (A) (A) (A) (A) (A) (A) (A) (A) (A)
                 (A) (A) (A) (A) (A) (A) (A) (A) (A) (A) (A) (A)
                 (A) (A) (A) (A) (A) (A) (A) (A) (A) (A) (A) (A)
                 (A) (A) (A) (A) (A) (A) (A) (A) (A) (A) (A) (A)
                 (A) (A) (A) (A) (A) (A) (A) (A) (A) (A) (A) (A)
                 (A) (A) (A) (A) (A) (A) (A) (A) (A) (A) (A) (A)
                 (A) (A) (A) (A) (A) (A) (A) (A) (A) (A) (A) (A)
                 (A) (A) (A) (A) (A) (A) (A) (A) (A) (A) (A) (A)
                 (A) (A) (A) (A) (A) (A) (A) (A) (A) (A) (A) (A)
                 (A) (A) (A) (A) (A) (A) (A) (A) (A) (A) (A) (A)
                 (A) (A) (A) (A) (A) (A) (A) (A) (A) (A) (A) (A)
                 (A) (A) (A) (A) (A) (A) (A) (A) (A) (A) (A) (A)
                 (A) (A) (A) (A) (A) (A) (A) (A)
 The electronic state is 1-A.
 Alpha  occ. eigenvalues --  -24.71412 -24.71412 -24.71412 -10.41075 -10.21737
 Alpha  occ. eigenvalues --  -10.18417 -10.18417 -10.18417  -1.29514  -1.20922
 Alpha  occ. eigenvalues --   -1.20922  -0.83824  -0.69680  -0.69680  -0.69611
 Alpha  occ. eigenvalues --   -0.60368  -0.57386  -0.57386  -0.51261  -0.46284
 Alpha  occ. eigenvalues --   -0.46284  -0.43944  -0.43944  -0.43085  -0.41263
 Alpha  occ. eigenvalues --   -0.41263  -0.39751  -0.38853  -0.38853  -0.36990
 Alpha  occ. eigenvalues --   -0.34156  -0.34156  -0.34113
 Alpha virt. eigenvalues --    0.08117   0.12210   0.12915   0.12915   0.14560
 Alpha virt. eigenvalues --    0.14560   0.16503   0.16503   0.19830   0.20810
 Alpha virt. eigenvalues --    0.20811   0.21651   0.22111   0.25581   0.25603
 Alpha virt. eigenvalues --    0.25603   0.37203   0.43625   0.43761   0.43762
 Alpha virt. eigenvalues --    0.43877   0.43877   0.52600   0.56788   0.56788
 Alpha virt. eigenvalues --    0.58653   0.58732   0.58732   0.69013   0.69014
 Alpha virt. eigenvalues --    0.69967   0.69967   0.70068   0.70282   0.73648
 Alpha virt. eigenvalues --    0.73911   0.73911   0.75267   0.79567   0.79567
 Alpha virt. eigenvalues --    0.82997   0.84020   0.84020   0.84593   0.88820
 Alpha virt. eigenvalues --    0.88820   0.91638   0.95778   0.95778   0.98132
 Alpha virt. eigenvalues --    0.98132   1.00610   1.01540   1.05490   1.05490
 Alpha virt. eigenvalues --    1.07972   1.13803   1.13804   1.17305   1.17305
 Alpha virt. eigenvalues --    1.22557   1.23875   1.28164   1.28164   1.36451
 Alpha virt. eigenvalues --    1.38378   1.38378   1.42068   1.43375   1.43375
 Alpha virt. eigenvalues --    1.45879   1.45880   1.48672   1.52952   1.53452
 Alpha virt. eigenvalues --    1.53452   1.59859   1.62890   1.63075   1.63075
 Alpha virt. eigenvalues --    1.71319   1.71319   1.74702   1.76935   1.76935
 Alpha virt. eigenvalues --    1.85396   1.85397   1.86403   1.87330   1.92925
 Alpha virt. eigenvalues --    1.95416   1.95785   1.95786   1.97528   1.97529
 Alpha virt. eigenvalues --    2.11103   2.11103   2.20531   2.23948   2.23948
 Alpha virt. eigenvalues --    2.29803   2.29807   2.29807   2.38318   2.44405
 Alpha virt. eigenvalues --    2.44405   2.49944   2.49944   2.54083   2.67508
 Alpha virt. eigenvalues --    2.68942   2.68942   2.77635   2.83472   2.84412
 Alpha virt. eigenvalues --    2.84412   2.90638   2.90638   2.93312   2.93312
 Alpha virt. eigenvalues --    2.94295   2.99198   2.99850   2.99850   3.03287
 Alpha virt. eigenvalues --    3.04047   3.06732   3.06733   3.14556   3.17498
 Alpha virt. eigenvalues --    3.17498   3.22497   3.31922   3.31922   3.40057
 Alpha virt. eigenvalues --    3.40057   3.45573   3.46649   3.53638   3.58116
 Alpha virt. eigenvalues --    3.59037   3.59038   3.62997   3.62998   3.66918
 Alpha virt. eigenvalues --    3.76773   3.80610   3.80610   3.84182   3.84182
 Alpha virt. eigenvalues --    3.88904   3.94968   3.94968   4.03548   4.03548
 Alpha virt. eigenvalues --    4.07186   4.12923   4.16771   4.16771   4.16810
 Alpha virt. eigenvalues --    4.18558   4.18558   4.23063   4.24066   4.24067
 Alpha virt. eigenvalues --    4.28585   4.28586   4.33562   4.42362   4.42362
 Alpha virt. eigenvalues --    4.45338   4.45892   4.45893   4.52066   4.52066
 Alpha virt. eigenvalues --    4.55875   4.63763   4.63764   4.63957   4.67097
 Alpha virt. eigenvalues --    4.69477   4.69478   4.72460   4.74908   4.74908
 Alpha virt. eigenvalues --    4.79931   4.79931   4.81598   4.81598   4.83306
 Alpha virt. eigenvalues --    4.87503   4.87503   4.87775   4.90744   4.94191
 Alpha virt. eigenvalues --    4.95388   4.95388   5.05440   5.05440   5.16444
 Alpha virt. eigenvalues --    5.52745   5.52746   5.53917   5.73508   5.73510
 Alpha virt. eigenvalues --    5.80709   6.32537   6.61705   6.62570   6.62570
 Alpha virt. eigenvalues --    6.62796   6.62796   6.63274   6.66186   6.70926
 Alpha virt. eigenvalues --    6.70926   6.79422   6.79422   6.95169   7.18146
 Alpha virt. eigenvalues --    7.18649   7.18650   7.39830   7.39830   7.43002
 Alpha virt. eigenvalues --    7.43002   7.50302   7.78647   9.65100   9.71327
 Alpha virt. eigenvalues --    9.71328  11.37282  12.03437  12.03437  12.54500
 Alpha virt. eigenvalues --   12.84887
          Condensed to atoms (all electrons):
               1          2          3          4          5          6
     1  C    5.080342   0.355370  -0.049829  -0.049824  -0.007767  -0.002818
     2  C    0.355370   4.869994   0.355371   0.355370   0.259925  -0.043067
     3  C   -0.049829   0.355371   5.080350  -0.049824  -0.007777   0.001697
     4  C   -0.049824   0.355370  -0.049824   5.080330  -0.007772  -0.002818
     5  C   -0.007767   0.259925  -0.007777  -0.007772   4.156350   0.435084
     6  F   -0.002818  -0.043067   0.001697  -0.002818   0.435084   8.772486
     7  F   -0.002820  -0.043062  -0.002818   0.001697   0.435089  -0.039021
     8  F    0.001697  -0.043064  -0.002818  -0.002819   0.435095  -0.039020
     9  H    0.371869  -0.017401  -0.004880  -0.004880   0.001505   0.000093
    10  H    0.365406  -0.021689   0.005455  -0.004133  -0.001516   0.005756
    11  H    0.365405  -0.021685  -0.004132   0.005455  -0.001518  -0.000146
    12  H   -0.004880  -0.017401   0.371868  -0.004880   0.001505  -0.000009
    13  H   -0.004133  -0.021686   0.365404   0.005455  -0.001516   0.000059
    14  H    0.005455  -0.021687   0.365407  -0.004133  -0.001516   0.000059
    15  H   -0.004880  -0.017402  -0.004880   0.371869   0.001505   0.000093
    16  H    0.005455  -0.021686  -0.004133   0.365405  -0.001517  -0.000146
    17  H   -0.004133  -0.021688   0.005455   0.365406  -0.001516   0.005756
               7          8          9         10         11         12
     1  C   -0.002820   0.001697   0.371869   0.365406   0.365405  -0.004880
     2  C   -0.043062  -0.043064  -0.017401  -0.021689  -0.021685  -0.017401
     3  C   -0.002818  -0.002818  -0.004880   0.005455  -0.004132   0.371868
     4  C    0.001697  -0.002819  -0.004880  -0.004133   0.005455  -0.004880
     5  C    0.435089   0.435095   0.001505  -0.001516  -0.001518   0.001505
     6  F   -0.039021  -0.039020   0.000093   0.005756  -0.000146  -0.000009
     7  F    8.772471  -0.039021   0.000093  -0.000146   0.005757   0.000093
     8  F   -0.039021   8.772460  -0.000009   0.000059   0.000059   0.000093
     9  H    0.000093  -0.000009   0.589065  -0.030194  -0.030194   0.002965
    10  H   -0.000146   0.000059  -0.030194   0.579663  -0.029049  -0.000041
    11  H    0.005757   0.000059  -0.030194  -0.029049   0.579660  -0.000071
    12  H    0.000093   0.000093   0.002965  -0.000041  -0.000071   0.589063
    13  H    0.005756  -0.000146  -0.000071  -0.000059   0.003772  -0.030194
    14  H   -0.000146   0.005756  -0.000041  -0.000202  -0.000060  -0.030195
    15  H   -0.000009   0.000093   0.002965  -0.000071  -0.000041   0.002965
    16  H    0.000059   0.005756  -0.000041  -0.000059  -0.000202  -0.000071
    17  H    0.000059  -0.000146  -0.000071   0.003772  -0.000059  -0.000041
              13         14         15         16         17
     1  C   -0.004133   0.005455  -0.004880   0.005455  -0.004133
     2  C   -0.021686  -0.021687  -0.017402  -0.021686  -0.021688
     3  C    0.365404   0.365407  -0.004880  -0.004133   0.005455
     4  C    0.005455  -0.004133   0.371869   0.365405   0.365406
     5  C   -0.001516  -0.001516   0.001505  -0.001517  -0.001516
     6  F    0.000059   0.000059   0.000093  -0.000146   0.005756
     7  F    0.005756  -0.000146  -0.000009   0.000059   0.000059
     8  F   -0.000146   0.005756   0.000093   0.005756  -0.000146
     9  H   -0.000071  -0.000041   0.002965  -0.000041  -0.000071
    10  H   -0.000059  -0.000202  -0.000071  -0.000059   0.003772
    11  H    0.003772  -0.000060  -0.000041  -0.000202  -0.000059
    12  H   -0.030194  -0.030195   0.002965  -0.000071  -0.000041
    13  H    0.579661  -0.029050  -0.000041  -0.000059  -0.000202
    14  H   -0.029050   0.579660  -0.000071   0.003772  -0.000059
    15  H   -0.000041  -0.000071   0.589069  -0.030195  -0.030195
    16  H   -0.000059   0.003772  -0.030195   0.579663  -0.029050
    17  H   -0.000202  -0.000059  -0.030195  -0.029050   0.579665
 Mulliken charges:
               1
     1  C   -0.419914
     2  C    0.115488
     3  C   -0.419915
     4  C   -0.419903
     5  C    0.306356
     6  F   -0.094038
     7  F   -0.094031
     8  F   -0.094025
     9  H    0.119228
    10  H    0.127050
    11  H    0.127051
    12  H    0.119229
    13  H    0.127051
    14  H    0.127051
    15  H    0.119225
    16  H    0.127049
    17  H    0.127048
 Sum of Mulliken charges =  -0.00000
 Mulliken charges with hydrogens summed into heavy atoms:
               1
     1  C   -0.046586
     2  C    0.115488
     3  C   -0.046583
     4  C   -0.046580
     5  C    0.306356
     6  F   -0.094038
     7  F   -0.094031
     8  F   -0.094025
 Electronic spatial extent (au):  <R**2>=            880.3293
 Charge=             -0.0000 electrons
 Dipole moment (field-independent basis, Debye):
    X=              1.0810    Y=              0.2248    Z=              1.6894  Tot=              2.0183
 Quadrupole moment (field-independent basis, Debye-Ang):
   XX=            -47.1444   YY=            -47.1208   ZZ=            -47.1800
   XY=             -0.0051   XZ=             -0.0385   YZ=             -0.0079
 Traceless Quadrupole moment (field-independent basis, Debye-Ang):
   XX=              0.0040   YY=              0.0276   ZZ=             -0.0316
   XY=             -0.0051   XZ=             -0.0385   YZ=             -0.0079
 Octapole moment (field-independent basis, Debye-Ang**2):
  XXX=            -13.2502  YYY=             -2.9512  ZZZ=            -20.2836  XYY=             -4.5800
  XXY=             -0.7788  XXZ=             -6.7287  XZZ=             -3.9076  YZZ=             -0.7910
  YYZ=             -6.9607  XYZ=              0.0151
 Hexadecapole moment (field-independent basis, Debye-Ang**3):
 XXXX=           -335.4611 YYYY=           -284.1612 ZZZZ=           -405.5106 XXXY=             -3.5878
 XXXZ=            -41.0231 YYYX=             -7.0987 YYYZ=            -10.4365 ZZZX=            -32.4199
 ZZZY=             -6.1997 XXYY=           -104.3603 XXZZ=           -119.5745 YYZZ=           -116.4160
 XXYZ=             -1.8636 YYXZ=            -15.5139 ZZXY=             -1.1509
 N-N= 4.486601291500D+02 E-N=-2.064829456878D+03  KE= 4.921274329874D+02
 PrsmSu:  requested number of processors reduced to:  13 ShMem   1 Linda.
 Calling FoFJK, ICntrl=      2127 FMM=F ISym2X=0 I1Cent= 0 IOpClX= 0 NMat=1 NMatS=1 NMatT=0.
 ***** Axes restored to original set *****
 -------------------------------------------------------------------
 Center     Atomic                   Forces (Hartrees/Bohr)
 Number     Number              X              Y              Z
 -------------------------------------------------------------------
      1        6          -0.006134791    0.005070640    0.003561663
      2        6          -0.004403422   -0.010176611   -0.007169746
      3        6           0.004967880   -0.002041016    0.006885714
      4        6           0.004965492    0.005770782   -0.004254597
      5        6          -0.000094130   -0.000199370   -0.000149830
      6        9           0.003589997   -0.005504796    0.004608494
      7        9           0.003583000    0.002473262   -0.006732229
      8        9          -0.007721845    0.001757553    0.001234374
      9        1           0.003145835    0.000551302    0.000387355
     10        1           0.000564181   -0.000873559    0.000475570
     11        1           0.000568560    0.000159525   -0.000977624
     12        1          -0.000732607    0.003035090   -0.000768454
     13        1           0.000335989    0.000297637   -0.001050092
     14        1          -0.001119119    0.000212330   -0.000023579
     15        1          -0.000729404    0.000303933    0.003122496
     16        1          -0.001119685    0.000050540    0.000207988
     17        1           0.000334070   -0.000887242    0.000642495
 -------------------------------------------------------------------
 Cartesian Forces:  Max     0.010176611 RMS     0.003527528

 GradGradGradGradGradGradGradGradGradGradGradGradGradGradGradGradGradGrad
 Berny optimization.
 FormGI is forming the generalized inverse of G from B-inverse, IUseBI=4.
 Internal  Forces:  Max     0.007656055 RMS     0.002111509
 Search for a local minimum.
 Step number   1 out of a maximum of   92
 All quantities printed in internal units (Hartrees-Bohrs-Radians)
 Mixed Optimization -- RFO/linear search
 Second derivative matrix not updated -- first step.
 ITU=  0
     Eigenvalues ---    0.00289   0.00289   0.00289   0.00360   0.04768
     Eigenvalues ---    0.04768   0.04854   0.05426   0.05426   0.05426
     Eigenvalues ---    0.05437   0.05437   0.05437   0.08363   0.08363
     Eigenvalues ---    0.14417   0.14417   0.16000   0.16000   0.16000
     Eigenvalues ---    0.16000   0.16000   0.16000   0.16000   0.16000
     Eigenvalues ---    0.16000   0.25000   0.25000   0.25000   0.28871
     Eigenvalues ---    0.28871   0.28871   0.29359   0.34140   0.34141
     Eigenvalues ---    0.34141   0.34158   0.34159   0.34159   0.34160
     Eigenvalues ---    0.34160   0.34160   0.54611   0.54611   0.54612
 RFO step:  Lambda=-1.89034577D-03 EMin= 2.88952967D-03
 Linear search not attempted -- first point.
 Iteration  1 RMS(Cart)=  0.01465917 RMS(Int)=  0.00024745
 Iteration  2 RMS(Cart)=  0.00035189 RMS(Int)=  0.00018488
 Iteration  3 RMS(Cart)=  0.00000004 RMS(Int)=  0.00018488
 Variable       Old X    -DE/DX   Delta X   Delta X   Delta X     New X
                                 (Linear)    (Quad)   (Total)
    R1        2.90273   0.00184   0.00000   0.00632   0.00632   2.90905
    R2        2.07094  -0.00176   0.00000  -0.00512  -0.00512   2.06582
    R3        2.07063  -0.00113   0.00000  -0.00329  -0.00329   2.06734
    R4        2.07062  -0.00113   0.00000  -0.00328  -0.00328   2.06734
    R5        2.90273   0.00184   0.00000   0.00635   0.00635   2.90907
    R6        2.90273   0.00183   0.00000   0.00631   0.00631   2.90904
    R7        2.89259  -0.00191   0.00000  -0.00648  -0.00648   2.88612
    R8        2.07093  -0.00175   0.00000  -0.00510  -0.00510   2.06583
    R9        2.07064  -0.00113   0.00000  -0.00329  -0.00329   2.06735
   R10        2.07062  -0.00113   0.00000  -0.00328  -0.00328   2.06734
   R11        2.07094  -0.00176   0.00000  -0.00512  -0.00512   2.06582
   R12        2.07062  -0.00113   0.00000  -0.00328  -0.00328   2.06734
   R13        2.07063  -0.00113   0.00000  -0.00329  -0.00329   2.06734
   R14        2.55479  -0.00766   0.00000  -0.01397  -0.01397   2.54082
   R15        2.55479  -0.00765   0.00000  -0.01395  -0.01395   2.54084
   R16        2.55478  -0.00764   0.00000  -0.01395  -0.01395   2.54084
    A1        1.94044  -0.00394   0.00000  -0.02703  -0.02706   1.91338
    A2        1.94147   0.00050   0.00000   0.00443   0.00439   1.94586
    A3        1.94148   0.00049   0.00000   0.00437   0.00433   1.94581
    A4        1.87879   0.00155   0.00000   0.00699   0.00696   1.88575
    A5        1.87880   0.00155   0.00000   0.00703   0.00700   1.88580
    A6        1.87994   0.00004   0.00000   0.00531   0.00527   1.88521
    A7        1.90715   0.00114   0.00000   0.02250   0.02167   1.92883
    A8        1.90716   0.00113   0.00000   0.02250   0.02167   1.92883
    A9        1.91410  -0.00113   0.00000  -0.02234  -0.02203   1.89207
   A10        1.90715   0.00113   0.00000   0.02248   0.02165   1.92880
   A11        1.91410  -0.00113   0.00000  -0.02236  -0.02204   1.89206
   A12        1.91410  -0.00112   0.00000  -0.02230  -0.02199   1.89210
   A13        1.94043  -0.00395   0.00000  -0.02710  -0.02713   1.91331
   A14        1.94147   0.00051   0.00000   0.00451   0.00447   1.94594
   A15        1.94148   0.00049   0.00000   0.00441   0.00437   1.94586
   A16        1.87879   0.00154   0.00000   0.00698   0.00695   1.88574
   A17        1.87880   0.00155   0.00000   0.00698   0.00695   1.88576
   A18        1.87993   0.00003   0.00000   0.00532   0.00528   1.88520
   A19        1.94043  -0.00394   0.00000  -0.02708  -0.02711   1.91332
   A20        1.94147   0.00050   0.00000   0.00443   0.00439   1.94586
   A21        1.94148   0.00049   0.00000   0.00441   0.00437   1.94585
   A22        1.87880   0.00155   0.00000   0.00701   0.00698   1.88578
   A23        1.87879   0.00155   0.00000   0.00702   0.00699   1.88579
   A24        1.87994   0.00004   0.00000   0.00532   0.00527   1.88521
   A25        1.94489   0.00288   0.00000   0.01144   0.01138   1.95627
   A26        1.94489   0.00287   0.00000   0.01139   0.01133   1.95622
   A27        1.94489   0.00287   0.00000   0.01140   0.01134   1.95623
   A28        1.87516  -0.00308   0.00000  -0.01223  -0.01229   1.86288
   A29        1.87517  -0.00307   0.00000  -0.01220  -0.01226   1.86291
   A30        1.87517  -0.00307   0.00000  -0.01219  -0.01225   1.86292
    D1       -1.04297  -0.00137   0.00000  -0.02694  -0.02709  -1.07006
    D2        1.04296   0.00137   0.00000   0.02742   0.02756   1.07052
    D3        3.14159   0.00000   0.00000   0.00027   0.00027  -3.14133
    D4       -3.13664  -0.00101   0.00000  -0.02061  -0.02075   3.12580
    D5       -1.05071   0.00173   0.00000   0.03375   0.03390  -1.01680
    D6        1.04792   0.00036   0.00000   0.00661   0.00661   1.05453
    D7        1.05072  -0.00173   0.00000  -0.03327  -0.03342   1.01730
    D8        3.13665   0.00102   0.00000   0.02109   0.02123  -3.12530
    D9       -1.04791  -0.00035   0.00000  -0.00606  -0.00606  -1.05397
   D10        1.04296   0.00137   0.00000   0.02726   0.02740   1.07036
   D11       -1.05071   0.00173   0.00000   0.03361   0.03376  -1.01696
   D12        3.13665   0.00101   0.00000   0.02085   0.02100  -3.12554
   D13       -1.04297  -0.00137   0.00000  -0.02712  -0.02726  -1.07024
   D14       -3.13665  -0.00101   0.00000  -0.02077  -0.02091   3.12563
   D15        1.05072  -0.00173   0.00000  -0.03352  -0.03367   1.01705
   D16        3.14159   0.00000   0.00000   0.00006   0.00006  -3.14154
   D17        1.04791   0.00036   0.00000   0.00640   0.00641   1.05432
   D18       -1.04790  -0.00036   0.00000  -0.00635  -0.00635  -1.05426
   D19       -1.04296  -0.00137   0.00000  -0.02736  -0.02751  -1.07047
   D20       -3.13664  -0.00102   0.00000  -0.02101  -0.02115   3.12540
   D21        1.05071  -0.00173   0.00000  -0.03370  -0.03385   1.01686
   D22        1.04297   0.00137   0.00000   0.02702   0.02716   1.07013
   D23       -1.05071   0.00173   0.00000   0.03337   0.03352  -1.01719
   D24        3.13665   0.00101   0.00000   0.02067   0.02081  -3.12573
   D25       -3.14159  -0.00000   0.00000  -0.00019  -0.00019   3.14141
   D26        1.04792   0.00036   0.00000   0.00616   0.00617   1.05409
   D27       -1.04791  -0.00036   0.00000  -0.00653  -0.00653  -1.05445
   D28       -1.04720   0.00000   0.00000  -0.00004  -0.00004  -1.04723
   D29        1.04719  -0.00000   0.00000  -0.00006  -0.00006   1.04713
   D30        3.14159  -0.00000   0.00000  -0.00006  -0.00006   3.14153
   D31       -3.14159   0.00000   0.00000  -0.00003  -0.00003   3.14156
   D32       -1.04720  -0.00000   0.00000  -0.00005  -0.00005  -1.04726
   D33        1.04719  -0.00000   0.00000  -0.00005  -0.00005   1.04714
   D34        1.04720   0.00000   0.00000  -0.00002  -0.00002   1.04718
   D35        3.14159  -0.00000   0.00000  -0.00004  -0.00004   3.14155
   D36       -1.04720  -0.00000   0.00000  -0.00004  -0.00004  -1.04724
         Item               Value     Threshold  Converged?
 Maximum Force            0.007656     0.000450     NO 
 RMS     Force            0.002112     0.000300     NO 
 Maximum Displacement     0.041218     0.001800     NO 
 RMS     Displacement     0.014525     0.001200     NO 
 Predicted change in Energy=-9.840111D-04
 GradGradGradGradGradGradGradGradGradGradGradGradGradGradGradGradGradGrad

                          Input orientation:                          
 ---------------------------------------------------------------------
 Center     Atomic      Atomic             Coordinates (Angstroms)
 Number     Number       Type             X           Y           Z
 ---------------------------------------------------------------------
      1          6           0        0.920998    0.067396    0.064939
      2          6           0        2.460135    0.044021    0.048497
      3          6           0        2.986657   -1.257635    0.679580
      4          6           0        2.986648    0.197567   -1.389889
      5          6           0        2.969229    1.221868    0.876775
      6          9           0        2.550466    2.402259    0.387776
      7          9           0        2.550329    1.160941    2.152956
      8          9           0        4.312384    1.271950    0.912091
      9          1           0        0.534725   -0.769294   -0.523104
     10          1           0        0.529631    0.993681   -0.365927
     11          1           0        0.529695   -0.024218    1.082434
     12          1           0        2.633330   -2.115263    0.101045
     13          1           0        2.634847   -1.375015    1.708791
     14          1           0        4.080275   -1.283780    0.690811
     15          1           0        2.633418   -0.637027   -2.001225
     16          1           0        4.080266    0.199436   -1.418287
     17          1           0        2.634708    1.126362   -1.848463
 ---------------------------------------------------------------------
                    Distance matrix (angstroms):
                    1          2          3          4          5
     1  C    0.000000
     2  C    1.539402   0.000000
     3  C    2.529908   1.539415   0.000000
     4  C    2.529897   1.539398   2.529884   0.000000
     5  C    2.487394   1.527267   2.487393   2.487420   0.000000
     6  F    2.865479   2.384230   3.697327   2.865486   1.344546
     7  F    2.865375   2.384197   2.865437   3.697325   1.344555
     8  F    3.697312   2.384205   2.865382   2.865481   1.344553
     9  H    1.093185   2.166890   2.774328   2.774539   3.442557
    10  H    1.093992   2.190992   3.492633   2.778350   2.747365
    11  H    1.093987   2.190954   2.778537   3.492591   2.747062
    12  H    2.774416   2.166856   1.093192   2.774329   3.442532
    13  H    2.778502   2.191065   1.093994   3.492649   2.747338
    14  H    3.492624   2.191000   1.093989   2.778439   2.747232
    15  H    2.774460   2.166844   2.774284   1.093184   3.442549
    16  H    3.492616   2.190989   2.778504   1.093988   2.747194
    17  H    2.778366   2.190980   3.492608   1.093989   2.747352
                    6          7          8          9         10
     6  F    0.000000
     7  F    2.157946   0.000000
     8  F    2.157976   2.157987   0.000000
     9  H    3.866738   3.866493   4.527381   0.000000
    10  H    2.576031   3.233570   4.002498   1.769975   0.000000
    11  H    3.233242   2.575574   4.002225   1.770005   1.770274
    12  H    4.527370   3.866619   3.866553   2.570085   3.782743
    13  H    4.002498   2.575946   3.233464   3.123903   3.787758
    14  H    4.002378   3.233461   2.575771   3.782752   4.348632
    15  H    3.866712   4.527341   3.866592   2.570380   3.123992
    16  H    3.233354   4.002371   2.575815   3.782942   3.787518
    17  H    2.575999   4.002458   3.233643   3.124103   2.578152
                   11         12         13         14         15
    11  H    0.000000
    12  H    3.124240   0.000000
    13  H    2.578495   1.769977   0.000000
    14  H    3.787676   1.769983   1.770275   0.000000
    15  H    3.782875   2.569965   3.782704   3.123899   0.000000
    16  H    4.348584   3.124072   3.787710   2.578415   1.769988
    17  H    3.787489   3.782686   4.348671   3.787659   1.769994
                   16         17
    16  H    0.000000
    17  H    1.770277   0.000000
 Stoichiometry    C5H9F3
 Framework group  C1[X(C5H9F3)]
 Deg. of freedom    45
 Full point group                 C1      NOp   1
 Largest Abelian subgroup         C1      NOp   1
 Largest concise Abelian subgroup C1      NOp   1
                         Standard orientation:                         
 ---------------------------------------------------------------------
 Center     Atomic      Atomic             Coordinates (Angstroms)
 Number     Number       Type             X           Y           Z
 ---------------------------------------------------------------------
      1          6           0        1.239817    1.452398   -0.155203
      2          6           0        0.753747    0.000021    0.000014
      3          6           0        1.239856   -0.860574   -1.180187
      4          6           0        1.239916   -0.591754    1.335375
      5          6           0       -0.773520   -0.000017    0.000016
      6          9           0       -1.279082    0.734005    1.006705
      7          9           0       -1.279020    0.504819   -1.139036
      8          9           0       -1.278989   -1.238894    0.132332
      9          1           0        2.332754    1.475554   -0.157947
     10          1           0        0.889569    2.082346    0.667786
     11          1           0        0.889080    1.894336   -1.092476
     12          1           0        2.332802   -0.874275   -1.198926
     13          1           0        0.889472   -0.463005   -2.137263
     14          1           0        0.889412   -1.893339   -1.094182
     15          1           0        2.332854   -0.601295    1.356500
     16          1           0        0.889358   -1.619321    1.469631
     17          1           0        0.889616   -0.000809    2.186777
 ---------------------------------------------------------------------
 Rotational constants (GHZ):           2.5161876           1.7909083           1.7908897
 Standard basis: 6-31G(2df,p) (6D, 7F)
 There are   293 symmetry adapted cartesian basis functions of A   symmetry.
 There are   269 symmetry adapted basis functions of A   symmetry.
   269 basis functions,   415 primitive gaussians,   293 cartesian basis functions
    33 alpha electrons       33 beta electrons
       nuclear repulsion energy       450.1858686672 Hartrees.
 NAtoms=   17 NActive=   17 NUniq=   17 SFac= 1.00D+00 NAtFMM=   60 NAOKFM=F Big=F
 Integral buffers will be    131072 words long.
 Raffenetti 2 integral format.
 Two-electron integral symmetry is turned on.
 One-electron integrals computed using PRISM.
 PrsmSu:  requested number of processors reduced to:  13 ShMem   1 Linda.
 NBasis=   269 RedAO= T EigKep=  7.01D-04  NBF=   269
 NBsUse=   269 1.00D-06 EigRej= -1.00D+00 NBFU=   269
 Initial guess from the checkpoint file:  "CCqCrqCrCqFrqFrF.chk"
 B after Tr=    -0.000000   -0.000000    0.000000
         Rot=    0.873076   -0.074446   -0.481331    0.022740 Ang= -58.36 deg.
 ExpMin= 1.61D-01 ExpMax= 7.00D+03 ExpMxC= 1.05D+03 IAcc=2 IRadAn=         4 AccDes= 0.00D+00
 Harris functional with IExCor=  402 and IRadAn=       4 diagonalized for initial guess.
 HarFok:  IExCor=  402 AccDes= 0.00D+00 IRadAn=         4 IDoV= 1 UseB2=F ITyADJ=14
 ICtDFT=  3500011 ScaDFX=  1.000000  1.000000  1.000000  1.000000
 FoFCou: FMM=F IPFlag=           0 FMFlag=      100000 FMFlg1=           0
         NFxFlg=           0 DoJE=T BraDBF=F KetDBF=T FulRan=T
         wScrn=  0.000000 ICntrl=       500 IOpCl=  0 I1Cent=   200000004 NGrid=           0
         NMat0=    1 NMatS0=      1 NMatT0=    0 NMatD0=    1 NMtDS0=    0 NMtDT0=    0
 Petite list used in FoFCou.
 Requested convergence on RMS density matrix=1.00D-08 within 128 cycles.
 Requested convergence on MAX density matrix=1.00D-06.
 Requested convergence on             energy=1.00D-06.
 No special actions if energy rises.
 Integral accuracy reduced to 1.0D-05 until final iterations.
 Initial convergence to 1.0D-05 achieved.  Increase integral accuracy.
 SCF Done:  E(RB3LYP) =  -495.531850354     A.U. after    9 cycles
            NFock=  9  Conv=0.94D-08     -V/T= 2.0067
 PrsmSu:  requested number of processors reduced to:  13 ShMem   1 Linda.
 Calling FoFJK, ICntrl=      2127 FMM=F ISym2X=0 I1Cent= 0 IOpClX= 0 NMat=1 NMatS=1 NMatT=0.
 ***** Axes restored to original set *****
 -------------------------------------------------------------------
 Center     Atomic                   Forces (Hartrees/Bohr)
 Number     Number              X              Y              Z
 -------------------------------------------------------------------
      1        6          -0.001083279    0.000105824    0.000067363
      2        6          -0.000143611   -0.000320331   -0.000219328
      3        6           0.000416187   -0.000870157    0.000513619
      4        6           0.000420311    0.000196994   -0.000985306
      5        6           0.001371970    0.003163059    0.002233143
      6        9          -0.000772078    0.000303510   -0.001081931
      7        9          -0.000766900   -0.000902326    0.000650317
      8        9           0.000927866   -0.000788773   -0.000555149
      9        1          -0.000127353   -0.000375895   -0.000263773
     10        1           0.000739297   -0.000298127    0.000053903
     11        1           0.000751085   -0.000056444   -0.000297594
     12        1          -0.000168605   -0.000344818   -0.000272858
     13        1          -0.000179843    0.000543064   -0.000574338
     14        1          -0.000522812    0.000514796   -0.000324806
     15        1          -0.000171505   -0.000377339   -0.000238129
     16        1          -0.000516795   -0.000136935    0.000589396
     17        1          -0.000173936   -0.000356100    0.000705470
 -------------------------------------------------------------------
 Cartesian Forces:  Max     0.003163059 RMS     0.000775243

 GradGradGradGradGradGradGradGradGradGradGradGradGradGradGradGradGradGrad
 Berny optimization.
 Using GEDIIS/GDIIS optimizer.
 FormGI is forming the generalized inverse of G from B-inverse, IUseBI=4.
 Internal  Forces:  Max     0.002298831 RMS     0.000551140
 Search for a local minimum.
 Step number   2 out of a maximum of   92
 All quantities printed in internal units (Hartrees-Bohrs-Radians)
 Mixed Optimization -- En-DIIS/RFO-DIIS
 Update second derivatives using D2CorX and points    1    2
 DE= -8.21D-04 DEPred=-9.84D-04 R= 8.35D-01
 TightC=F SS=  1.41D+00  RLast= 1.46D-01 DXNew= 5.0454D-01 4.3946D-01
 Trust test= 8.35D-01 RLast= 1.46D-01 DXMaxT set to 4.39D-01
 ITU=  1  0
 Use linear search instead of GDIIS.
     Eigenvalues ---    0.00289   0.00289   0.00289   0.00360   0.04755
     Eigenvalues ---    0.05000   0.05000   0.05388   0.05388   0.05432
     Eigenvalues ---    0.05600   0.05600   0.05600   0.08176   0.08177
     Eigenvalues ---    0.14410   0.14411   0.15049   0.16000   0.16000
     Eigenvalues ---    0.16000   0.16000   0.16000   0.16000   0.16000
     Eigenvalues ---    0.16664   0.25000   0.25000   0.26580   0.28821
     Eigenvalues ---    0.28871   0.28871   0.30527   0.33780   0.34141
     Eigenvalues ---    0.34141   0.34158   0.34159   0.34159   0.34160
     Eigenvalues ---    0.34160   0.34545   0.54611   0.54612   0.55665
 RFO step:  Lambda=-6.01362915D-05 EMin= 2.88953909D-03
 Quartic linear search produced a step of -0.11324.
 Iteration  1 RMS(Cart)=  0.00271607 RMS(Int)=  0.00002084
 Iteration  2 RMS(Cart)=  0.00000631 RMS(Int)=  0.00002008
 Iteration  3 RMS(Cart)=  0.00000000 RMS(Int)=  0.00002008
 Variable       Old X    -DE/DX   Delta X   Delta X   Delta X     New X
                                 (Linear)    (Quad)   (Total)
    R1        2.90905  -0.00029  -0.00072   0.00001  -0.00071   2.90834
    R2        2.06582   0.00047   0.00058   0.00050   0.00107   2.06689
    R3        2.06734  -0.00054   0.00037  -0.00187  -0.00150   2.06585
    R4        2.06734  -0.00054   0.00037  -0.00187  -0.00150   2.06583
    R5        2.90907  -0.00029  -0.00072   0.00001  -0.00070   2.90837
    R6        2.90904  -0.00029  -0.00071   0.00003  -0.00068   2.90836
    R7        2.88612   0.00230   0.00073   0.00601   0.00675   2.89286
    R8        2.06583   0.00047   0.00058   0.00049   0.00106   2.06690
    R9        2.06735  -0.00054   0.00037  -0.00188  -0.00151   2.06584
   R10        2.06734  -0.00054   0.00037  -0.00187  -0.00150   2.06584
   R11        2.06582   0.00048   0.00058   0.00050   0.00108   2.06690
   R12        2.06734  -0.00053   0.00037  -0.00185  -0.00148   2.06585
   R13        2.06734  -0.00054   0.00037  -0.00188  -0.00151   2.06583
   R14        2.54082   0.00090   0.00158  -0.00055   0.00104   2.54186
   R15        2.54084   0.00090   0.00158  -0.00055   0.00103   2.54187
   R16        2.54084   0.00088   0.00158  -0.00057   0.00101   2.54185
    A1        1.91338   0.00022   0.00306  -0.00230   0.00077   1.91414
    A2        1.94586  -0.00070  -0.00050  -0.00342  -0.00392   1.94194
    A3        1.94581  -0.00072  -0.00049  -0.00358  -0.00407   1.94174
    A4        1.88575   0.00029  -0.00079   0.00300   0.00221   1.88796
    A5        1.88580   0.00029  -0.00079   0.00297   0.00218   1.88799
    A6        1.88521   0.00068  -0.00060   0.00380   0.00320   1.88841
    A7        1.92883  -0.00010  -0.00245   0.00128  -0.00109   1.92774
    A8        1.92883  -0.00009  -0.00245   0.00135  -0.00101   1.92782
    A9        1.89207   0.00010   0.00249  -0.00142   0.00104   1.89311
   A10        1.92880  -0.00010  -0.00245   0.00135  -0.00102   1.92779
   A11        1.89206   0.00011   0.00250  -0.00132   0.00114   1.89320
   A12        1.89210   0.00010   0.00249  -0.00140   0.00105   1.89316
   A13        1.91331   0.00022   0.00307  -0.00227   0.00080   1.91411
   A14        1.94594  -0.00072  -0.00051  -0.00355  -0.00406   1.94188
   A15        1.94586  -0.00071  -0.00050  -0.00347  -0.00397   1.94189
   A16        1.88574   0.00029  -0.00079   0.00297   0.00219   1.88793
   A17        1.88576   0.00029  -0.00079   0.00297   0.00219   1.88795
   A18        1.88520   0.00068  -0.00060   0.00382   0.00321   1.88842
   A19        1.91332   0.00023   0.00307  -0.00226   0.00081   1.91413
   A20        1.94586  -0.00070  -0.00050  -0.00344  -0.00394   1.94193
   A21        1.94585  -0.00072  -0.00050  -0.00356  -0.00405   1.94180
   A22        1.88578   0.00028  -0.00079   0.00295   0.00216   1.88794
   A23        1.88579   0.00029  -0.00079   0.00298   0.00219   1.88797
   A24        1.88521   0.00068  -0.00060   0.00380   0.00319   1.88841
   A25        1.95627  -0.00119  -0.00129  -0.00262  -0.00390   1.95237
   A26        1.95622  -0.00117  -0.00128  -0.00250  -0.00379   1.95243
   A27        1.95623  -0.00116  -0.00128  -0.00251  -0.00380   1.95243
   A28        1.86288   0.00129   0.00139   0.00282   0.00421   1.86709
   A29        1.86291   0.00128   0.00139   0.00275   0.00414   1.86705
   A30        1.86292   0.00127   0.00139   0.00276   0.00414   1.86706
    D1       -1.07006   0.00013   0.00307  -0.00206   0.00102  -1.06904
    D2        1.07052  -0.00013  -0.00312   0.00144  -0.00169   1.06883
    D3       -3.14133  -0.00000  -0.00003  -0.00034  -0.00037   3.14149
    D4        3.12580   0.00007   0.00235  -0.00212   0.00024   3.12604
    D5       -1.01680  -0.00019  -0.00384   0.00138  -0.00247  -1.01927
    D6        1.05453  -0.00006  -0.00075  -0.00040  -0.00114   1.05338
    D7        1.01730   0.00018   0.00378  -0.00213   0.00166   1.01897
    D8       -3.12530  -0.00007  -0.00240   0.00137  -0.00105  -3.12635
    D9       -1.05397   0.00005   0.00069  -0.00041   0.00028  -1.05369
   D10        1.07036  -0.00013  -0.00310   0.00197  -0.00115   1.06922
   D11       -1.01696  -0.00018  -0.00382   0.00200  -0.00183  -1.01879
   D12       -3.12554  -0.00007  -0.00238   0.00199  -0.00041  -3.12594
   D13       -1.07024   0.00013   0.00309  -0.00154   0.00156  -1.06867
   D14        3.12563   0.00007   0.00237  -0.00151   0.00088   3.12650
   D15        1.01705   0.00018   0.00381  -0.00152   0.00230   1.01935
   D16       -3.14154  -0.00000  -0.00001   0.00019   0.00018  -3.14136
   D17        1.05432  -0.00006  -0.00073   0.00022  -0.00051   1.05381
   D18       -1.05426   0.00006   0.00072   0.00020   0.00092  -1.05334
   D19       -1.07047   0.00013   0.00311  -0.00115   0.00198  -1.06848
   D20        3.12540   0.00007   0.00240  -0.00117   0.00125   3.12664
   D21        1.01686   0.00019   0.00383  -0.00117   0.00268   1.01954
   D22        1.07013  -0.00013  -0.00308   0.00232  -0.00077   1.06936
   D23       -1.01719  -0.00019  -0.00380   0.00230  -0.00151  -1.01870
   D24       -3.12573  -0.00007  -0.00236   0.00230  -0.00008  -3.12580
   D25        3.14141   0.00001   0.00002   0.00064   0.00066  -3.14111
   D26        1.05409  -0.00005  -0.00070   0.00062  -0.00007   1.05402
   D27       -1.05445   0.00006   0.00074   0.00062   0.00136  -1.05309
   D28       -1.04723  -0.00001   0.00000  -0.00016  -0.00015  -1.04739
   D29        1.04713  -0.00000   0.00001  -0.00012  -0.00012   1.04701
   D30        3.14153  -0.00000   0.00001  -0.00010  -0.00009   3.14144
   D31        3.14156  -0.00000   0.00000  -0.00011  -0.00011   3.14145
   D32       -1.04726   0.00000   0.00001  -0.00008  -0.00007  -1.04733
   D33        1.04714   0.00000   0.00001  -0.00005  -0.00004   1.04709
   D34        1.04718  -0.00000   0.00000  -0.00016  -0.00016   1.04703
   D35        3.14155   0.00000   0.00000  -0.00012  -0.00012   3.14143
   D36       -1.04724   0.00000   0.00000  -0.00010  -0.00009  -1.04733
         Item               Value     Threshold  Converged?
 Maximum Force            0.002299     0.000450     NO 
 RMS     Force            0.000551     0.000300     NO 
 Maximum Displacement     0.008429     0.001800     NO 
 RMS     Displacement     0.002718     0.001200     NO 
 Predicted change in Energy=-4.348815D-05
 GradGradGradGradGradGradGradGradGradGradGradGradGradGradGradGradGradGrad

                          Input orientation:                          
 ---------------------------------------------------------------------
 Center     Atomic      Atomic             Coordinates (Angstroms)
 Number     Number       Type             X           Y           Z
 ---------------------------------------------------------------------
      1          6           0        0.921524    0.066325    0.064283
      2          6           0        2.460315    0.044365    0.048750
      3          6           0        2.985930   -1.257844    0.678538
      4          6           0        2.985921    0.196461   -1.389736
      5          6           0        2.970533    1.225042    0.878895
      6          9           0        2.549125    2.403361    0.385685
      7          9           0        2.548892    1.159875    2.154539
      8          9           0        4.314443    1.270996    0.911363
      9          1           0        0.535378   -0.770727   -0.524387
     10          1           0        0.533863    0.993408   -0.366206
     11          1           0        0.534155   -0.025461    1.082413
     12          1           0        2.632443   -2.115729    0.099416
     13          1           0        2.632571   -1.371712    1.706765
     14          1           0        4.078848   -1.280343    0.688652
     15          1           0        2.631867   -0.638367   -2.001301
     16          1           0        4.078844    0.197711   -1.414446
     17          1           0        2.633087    1.125888   -1.844423
 ---------------------------------------------------------------------
                    Distance matrix (angstroms):
                    1          2          3          4          5
     1  C    0.000000
     2  C    1.539026   0.000000
     3  C    2.528340   1.539042   0.000000
     4  C    2.528407   1.539037   2.528390   0.000000
     5  C    2.490914   1.530837   2.491004   2.490963   0.000000
     6  F    2.866029   2.384591   3.698781   2.865888   1.345093
     7  F    2.865894   2.384651   2.866173   3.698789   1.345101
     8  F    3.698739   2.384641   2.866039   2.866121   1.345087
     9  H    1.093754   2.167543   2.772998   2.772984   3.447067
    10  H    1.093200   2.187257   3.488877   2.774045   2.746141
    11  H    1.093192   2.187105   2.773641   3.488828   2.746109
    12  H    2.773056   2.167533   1.093756   2.772858   3.447121
    13  H    2.773695   2.187227   1.093198   3.488888   2.746401
    14  H    3.488846   2.187230   1.093196   2.774011   2.746181
    15  H    2.772815   2.167547   2.773202   1.093757   3.447102
    16  H    3.488921   2.187257   2.773749   1.093203   2.746484
    17  H    2.774037   2.187155   3.488840   1.093191   2.745935
                    6          7          8          9         10
     6  F    0.000000
     7  F    2.162198   0.000000
     8  F    2.162160   2.162175   0.000000
     9  H    3.867588   3.867571   4.528944   0.000000
    10  H    2.571884   3.231441   4.000253   1.771213   0.000000
    11  H    3.231828   2.571700   4.000079   1.771223   1.771043
    12  H    4.528914   3.867828   3.867594   2.568237   3.779891
    13  H    4.000424   2.572244   3.231913   3.120488   3.780950
    14  H    4.000189   3.231757   2.571854   3.779861   4.341612
    15  H    3.867383   4.528970   3.867860   2.567891   3.120553
    16  H    3.231934   4.000521   2.572321   3.779712   3.781380
    17  H    2.571452   3.999992   3.231465   3.120901   2.570879
                   11         12         13         14         15
    11  H    0.000000
    12  H    3.120627   0.000000
    13  H    2.570128   1.771195   0.000000
    14  H    3.780823   1.771202   1.771050   0.000000
    15  H    3.779596   2.568193   3.779888   3.121176   0.000000
    16  H    4.341535   3.120234   3.781105   2.570539   1.771205
    17  H    3.781202   3.779761   4.341537   3.781090   1.771216
                   16         17
    16  H    0.000000
    17  H    1.771046   0.000000
 Stoichiometry    C5H9F3
 Framework group  C1[X(C5H9F3)]
 Deg. of freedom    45
 Full point group                 C1      NOp   1
 Largest Abelian subgroup         C1      NOp   1
 Largest concise Abelian subgroup C1      NOp   1
                         Standard orientation:                         
 ---------------------------------------------------------------------
 Center     Atomic      Atomic             Coordinates (Angstroms)
 Number     Number       Type             X           Y           Z
 ---------------------------------------------------------------------
      1          6           0        1.240690    0.706942    1.277179
      2          6           0        0.753203   -0.000020    0.000009
      3          6           0        1.240889    0.752587   -1.250749
      4          6           0        1.240751   -1.459553   -0.026332
      5          6           0       -0.777634    0.000011   -0.000032
      6          9           0       -1.278558   -0.643755    1.069509
      7          9           0       -1.278578    1.248143    0.022693
      8          9           0       -1.278582   -0.604371   -1.092292
      9          1           0        2.334202    0.717964    1.297385
     10          1           0        0.888283    0.191737    2.174653
     11          1           0        0.888495    1.741091    1.316693
     12          1           0        2.334407    0.764152   -1.270437
     13          1           0        0.888916    1.787570   -1.253014
     14          1           0        0.888510    0.270132   -2.166251
     15          1           0        2.334267   -1.482521   -0.026220
     16          1           0        0.888937   -1.978984   -0.921603
     17          1           0        0.888050   -2.011094    0.849151
 ---------------------------------------------------------------------
 Rotational constants (GHZ):           2.5143984           1.7898664           1.7898363
 Standard basis: 6-31G(2df,p) (6D, 7F)
 There are   293 symmetry adapted cartesian basis functions of A   symmetry.
 There are   269 symmetry adapted basis functions of A   symmetry.
   269 basis functions,   415 primitive gaussians,   293 cartesian basis functions
    33 alpha electrons       33 beta electrons
       nuclear repulsion energy       450.0458117456 Hartrees.
 NAtoms=   17 NActive=   17 NUniq=   17 SFac= 1.00D+00 NAtFMM=   60 NAOKFM=F Big=F
 Integral buffers will be    131072 words long.
 Raffenetti 2 integral format.
 Two-electron integral symmetry is turned on.
 One-electron integrals computed using PRISM.
 PrsmSu:  requested number of processors reduced to:  13 ShMem   1 Linda.
 NBasis=   269 RedAO= T EigKep=  7.04D-04  NBF=   269
 NBsUse=   269 1.00D-06 EigRej= -1.00D+00 NBFU=   269
 Initial guess from the checkpoint file:  "CCqCrqCrCqFrqFrF.chk"
 B after Tr=    -0.000000    0.000000   -0.000000
         Rot=    0.833228   -0.552929    0.000020    0.000005 Ang= -67.14 deg.
 Requested convergence on RMS density matrix=1.00D-08 within 128 cycles.
 Requested convergence on MAX density matrix=1.00D-06.
 Requested convergence on             energy=1.00D-06.
 No special actions if energy rises.
 SCF Done:  E(RB3LYP) =  -495.531895099     A.U. after    8 cycles
            NFock=  8  Conv=0.31D-08     -V/T= 2.0068
 PrsmSu:  requested number of processors reduced to:  13 ShMem   1 Linda.
 Calling FoFJK, ICntrl=      2127 FMM=F ISym2X=0 I1Cent= 0 IOpClX= 0 NMat=1 NMatS=1 NMatT=0.
 ***** Axes restored to original set *****
 -------------------------------------------------------------------
 Center     Atomic                   Forces (Hartrees/Bohr)
 Number     Number              X              Y              Z
 -------------------------------------------------------------------
      1        6          -0.000310678   -0.000012693   -0.000008542
      2        6          -0.000082959   -0.000207952   -0.000131421
      3        6           0.000095545   -0.000272932    0.000114419
      4        6           0.000103337    0.000020807   -0.000293466
      5        6           0.000161123    0.000365181    0.000253234
      6        9           0.000121804   -0.000052081    0.000189614
      7        9           0.000131388    0.000148061   -0.000125910
      8        9          -0.000159306    0.000125632    0.000098349
      9        1          -0.000025871   -0.000021927   -0.000013545
     10        1           0.000096518   -0.000020177   -0.000042593
     11        1           0.000077933   -0.000048001   -0.000009963
     12        1          -0.000002542   -0.000032827   -0.000009430
     13        1          -0.000065690    0.000055934   -0.000053803
     14        1          -0.000031610    0.000059921   -0.000080196
     15        1          -0.000004432   -0.000016978   -0.000023982
     16        1          -0.000034870   -0.000054493    0.000079978
     17        1          -0.000069690   -0.000035473    0.000057256
 -------------------------------------------------------------------
 Cartesian Forces:  Max     0.000365181 RMS     0.000125687

 GradGradGradGradGradGradGradGradGradGradGradGradGradGradGradGradGradGrad
 Berny optimization.
 Using GEDIIS/GDIIS optimizer.
 FormGI is forming the generalized inverse of G from B-inverse, IUseBI=4.
 Internal  Forces:  Max     0.000762766 RMS     0.000116463
 Search for a local minimum.
 Step number   3 out of a maximum of   92
 All quantities printed in internal units (Hartrees-Bohrs-Radians)
 Mixed Optimization -- En-DIIS/RFO-DIIS
 Swapping is turned off.
 Update second derivatives using D2CorX and points    1    2    3
 DE= -4.47D-05 DEPred=-4.35D-05 R= 1.03D+00
 TightC=F SS=  1.41D+00  RLast= 1.94D-02 DXNew= 7.3908D-01 5.8105D-02
 Trust test= 1.03D+00 RLast= 1.94D-02 DXMaxT set to 4.39D-01
 ITU=  1  1  0
     Eigenvalues ---    0.00289   0.00289   0.00289   0.00360   0.04774
     Eigenvalues ---    0.04988   0.04989   0.05428   0.05428   0.05471
     Eigenvalues ---    0.05611   0.05611   0.05611   0.08239   0.08240
     Eigenvalues ---    0.13898   0.14411   0.14416   0.15996   0.16000
     Eigenvalues ---    0.16000   0.16000   0.16000   0.16000   0.16000
     Eigenvalues ---    0.16042   0.25000   0.25000   0.26581   0.28284
     Eigenvalues ---    0.28871   0.28871   0.31408   0.33990   0.34140
     Eigenvalues ---    0.34141   0.34158   0.34159   0.34159   0.34160
     Eigenvalues ---    0.34160   0.34947   0.54611   0.54612   0.57017
 En-DIIS/RFO-DIIS/Sim-DIIS IScMMF=       -3 using points:     3    2
 RFO step:  Lambda=-4.95016416D-06.
 DidBck=F Rises=F RFO-DIIS coefs:    1.13296   -0.13296
 Iteration  1 RMS(Cart)=  0.00115748 RMS(Int)=  0.00000063
 Iteration  2 RMS(Cart)=  0.00000034 RMS(Int)=  0.00000056
 Variable       Old X    -DE/DX   Delta X   Delta X   Delta X     New X
                                 (Linear)    (Quad)   (Total)
    R1        2.90834   0.00016  -0.00009   0.00068   0.00058   2.90892
    R2        2.06689   0.00003   0.00014  -0.00001   0.00014   2.06703
    R3        2.06585  -0.00003  -0.00020  -0.00002  -0.00022   2.06563
    R4        2.06583  -0.00003  -0.00020  -0.00001  -0.00021   2.06562
    R5        2.90837   0.00015  -0.00009   0.00063   0.00054   2.90890
    R6        2.90836   0.00016  -0.00009   0.00067   0.00058   2.90893
    R7        2.89286   0.00076   0.00090   0.00223   0.00313   2.89599
    R8        2.06690   0.00003   0.00014  -0.00001   0.00013   2.06703
    R9        2.06584  -0.00004  -0.00020  -0.00002  -0.00022   2.06562
   R10        2.06584  -0.00003  -0.00020  -0.00002  -0.00021   2.06563
   R11        2.06690   0.00003   0.00014  -0.00002   0.00012   2.06703
   R12        2.06585  -0.00004  -0.00020  -0.00003  -0.00022   2.06563
   R13        2.06583  -0.00003  -0.00020  -0.00001  -0.00021   2.06562
   R14        2.54186  -0.00015   0.00014  -0.00045  -0.00032   2.54154
   R15        2.54187  -0.00017   0.00014  -0.00048  -0.00035   2.54153
   R16        2.54185  -0.00015   0.00013  -0.00045  -0.00032   2.54153
    A1        1.91414   0.00005   0.00010   0.00009   0.00019   1.91434
    A2        1.94194  -0.00011  -0.00052  -0.00044  -0.00096   1.94098
    A3        1.94174  -0.00008  -0.00054  -0.00019  -0.00074   1.94100
    A4        1.88796   0.00002   0.00029  -0.00002   0.00028   1.88824
    A5        1.88799   0.00001   0.00029  -0.00005   0.00024   1.88823
    A6        1.88841   0.00011   0.00043   0.00062   0.00105   1.88945
    A7        1.92774  -0.00001  -0.00014  -0.00018  -0.00033   1.92741
    A8        1.92782  -0.00003  -0.00013  -0.00031  -0.00045   1.92737
    A9        1.89311   0.00002   0.00014   0.00030   0.00043   1.89355
   A10        1.92779  -0.00002  -0.00014  -0.00029  -0.00043   1.92736
   A11        1.89320   0.00001   0.00015   0.00019   0.00035   1.89354
   A12        1.89316   0.00003   0.00014   0.00033   0.00047   1.89362
   A13        1.91411   0.00005   0.00011   0.00009   0.00020   1.91431
   A14        1.94188  -0.00010  -0.00054  -0.00032  -0.00086   1.94102
   A15        1.94189  -0.00011  -0.00053  -0.00039  -0.00092   1.94097
   A16        1.88793   0.00002   0.00029   0.00001   0.00031   1.88824
   A17        1.88795   0.00002   0.00029  -0.00001   0.00028   1.88823
   A18        1.88842   0.00012   0.00043   0.00064   0.00107   1.88948
   A19        1.91413   0.00004   0.00011  -0.00002   0.00009   1.91423
   A20        1.94193  -0.00010  -0.00052  -0.00032  -0.00085   1.94108
   A21        1.94180  -0.00009  -0.00054  -0.00021  -0.00075   1.94104
   A22        1.88794   0.00002   0.00029  -0.00002   0.00026   1.88820
   A23        1.88797   0.00002   0.00029  -0.00008   0.00021   1.88819
   A24        1.88841   0.00011   0.00042   0.00067   0.00109   1.88950
   A25        1.95237   0.00021  -0.00052   0.00125   0.00073   1.95309
   A26        1.95243   0.00019  -0.00050   0.00110   0.00059   1.95303
   A27        1.95243   0.00019  -0.00050   0.00117   0.00067   1.95310
   A28        1.86709  -0.00022   0.00056  -0.00132  -0.00077   1.86632
   A29        1.86705  -0.00021   0.00055  -0.00119  -0.00064   1.86641
   A30        1.86706  -0.00021   0.00055  -0.00130  -0.00075   1.86632
    D1       -1.06904   0.00002   0.00014   0.00036   0.00050  -1.06854
    D2        1.06883  -0.00003  -0.00023  -0.00034  -0.00057   1.06826
    D3        3.14149   0.00000  -0.00005   0.00005   0.00000   3.14149
    D4        3.12604   0.00003   0.00003   0.00060   0.00063   3.12667
    D5       -1.01927  -0.00002  -0.00033  -0.00010  -0.00043  -1.01971
    D6        1.05338   0.00001  -0.00015   0.00029   0.00014   1.05352
    D7        1.01897   0.00002   0.00022   0.00024   0.00046   1.01942
    D8       -3.12635  -0.00003  -0.00014  -0.00047  -0.00061  -3.12695
    D9       -1.05369  -0.00000   0.00004  -0.00007  -0.00003  -1.05373
   D10        1.06922  -0.00003  -0.00015  -0.00053  -0.00069   1.06853
   D11       -1.01879  -0.00002  -0.00024  -0.00041  -0.00065  -1.01944
   D12       -3.12594  -0.00003  -0.00005  -0.00074  -0.00079  -3.12673
   D13       -1.06867   0.00003   0.00021   0.00018   0.00039  -1.06828
   D14        3.12650   0.00003   0.00012   0.00031   0.00043   3.12693
   D15        1.01935   0.00002   0.00031  -0.00002   0.00029   1.01964
   D16       -3.14136  -0.00000   0.00002  -0.00016  -0.00014  -3.14150
   D17        1.05381   0.00000  -0.00007  -0.00004  -0.00010   1.05371
   D18       -1.05334  -0.00001   0.00012  -0.00036  -0.00024  -1.05358
   D19       -1.06848   0.00002   0.00026  -0.00023   0.00003  -1.06845
   D20        3.12664   0.00003   0.00017   0.00002   0.00018   3.12683
   D21        1.01954   0.00001   0.00036  -0.00047  -0.00012   1.01942
   D22        1.06936  -0.00002  -0.00010  -0.00087  -0.00097   1.06839
   D23       -1.01870  -0.00001  -0.00020  -0.00063  -0.00082  -1.01952
   D24       -3.12580  -0.00003  -0.00001  -0.00111  -0.00112  -3.12693
   D25       -3.14111  -0.00000   0.00009  -0.00061  -0.00052   3.14156
   D26        1.05402   0.00000  -0.00001  -0.00036  -0.00037   1.05365
   D27       -1.05309  -0.00001   0.00018  -0.00085  -0.00067  -1.05376
   D28       -1.04739   0.00001  -0.00002   0.00039   0.00037  -1.04702
   D29        1.04701   0.00001  -0.00002   0.00032   0.00031   1.04732
   D30        3.14144  -0.00000  -0.00001   0.00023   0.00022  -3.14153
   D31        3.14145   0.00000  -0.00001   0.00032   0.00031  -3.14142
   D32       -1.04733  -0.00000  -0.00001   0.00026   0.00025  -1.04708
   D33        1.04709  -0.00001  -0.00001   0.00017   0.00016   1.04726
   D34        1.04703   0.00001  -0.00002   0.00037   0.00035   1.04738
   D35        3.14143   0.00000  -0.00002   0.00031   0.00029  -3.14146
   D36       -1.04733  -0.00001  -0.00001   0.00022   0.00021  -1.04712
         Item               Value     Threshold  Converged?
 Maximum Force            0.000763     0.000450     NO 
 RMS     Force            0.000116     0.000300     YES
 Maximum Displacement     0.003762     0.001800     NO 
 RMS     Displacement     0.001157     0.001200     YES
 Predicted change in Energy=-2.475016D-06
 GradGradGradGradGradGradGradGradGradGradGradGradGradGradGradGradGradGrad

                          Input orientation:                          
 ---------------------------------------------------------------------
 Center     Atomic      Atomic             Coordinates (Angstroms)
 Number     Number       Type             X           Y           Z
 ---------------------------------------------------------------------
      1          6           0        0.921177    0.065855    0.063820
      2          6           0        2.460286    0.044334    0.048727
      3          6           0        2.985706   -1.258446    0.678187
      4          6           0        2.985710    0.195871   -1.390209
      5          6           0        2.971103    1.226227    0.879824
      6          9           0        2.549949    2.404889    0.387675
      7          9           0        2.550167    1.161540    2.155532
      8          9           0        4.314811    1.272974    0.912629
      9          1           0        0.535217   -0.771286   -0.524979
     10          1           0        0.534394    0.993013   -0.367008
     11          1           0        0.534331   -0.026137    1.082010
     12          1           0        2.631968   -2.116253    0.098970
     13          1           0        2.632003   -1.371691    1.706242
     14          1           0        4.078528   -1.280410    0.687610
     15          1           0        2.631842   -0.639399   -2.001396
     16          1           0        4.078530    0.197201   -1.414194
     17          1           0        2.632019    1.124968   -1.844640
 ---------------------------------------------------------------------
                    Distance matrix (angstroms):
                    1          2          3          4          5
     1  C    0.000000
     2  C    1.539334   0.000000
     3  C    2.528538   1.539325   0.000000
     4  C    2.528517   1.539341   2.528498   0.000000
[...]
 1\1\GINC-LEWIS4-R630-HPC4-NODE233\Freq\RB3LYP\6-31G(2df,p)\C5H9F3\LINJ
 IAN\27-May-2023\0\\#N Geom=AllCheck Guess=TCheck SCRF=Check GenChk RB3
 LYP/6-31G(2df,p) Freq\\Title Card Required\\0,1\C,0.9211769626,0.06585
 53734,0.0638197622\C,2.4602862497,0.0443340212,0.0487272013\C,2.985706
 0654,-1.2584464011,0.6781874299\C,2.985709844,0.1958709076,-1.39020907
 55\C,2.9711034819,1.2262270201,0.8798240698\F,2.5499486428,2.404889016
 ,0.3876753412\F,2.5501668337,1.1615403612,2.1555321977\F,4.3148108041,
 1.272973624,0.9126286893\H,0.535217383,-0.7712862259,-0.5249790574\H,0
 .5343942636,0.9930125598,-0.3670079141\H,0.534331003,-0.0261365521,1.0
 820104728\H,2.6319681608,-2.1162526938,0.098969615\H,2.6320027428,-1.3
 716908621,1.7062421566\H,4.0785276818,-1.2804096801,0.6876095806\H,2.6
 318417098,-0.6393987826,-2.0013961869\H,4.078529581,0.1972006841,-1.41
 41941363\H,2.6320185902,1.1249676305,-1.8446401461\\Version=ES64L-G16R
 evA.03\State=1-A\HF=-495.5318975\RMSD=1.092e-09\RMSF=4.684e-05\ZeroPoi
 nt=0.1363706\Thermal=0.1452654\Dipole=-0.2662659,-0.6161186,-0.4333078
 \DipoleDeriv=0.0147536,0.0067251,0.0047311,0.0093657,0.047089,0.002303
 ,0.0065796,0.0022914,0.0453887,0.0801275,-0.0425003,-0.0298893,-0.0425
 42,0.0001146,-0.0691566,-0.0299337,-0.0691371,0.049916,0.0385914,0.012
 6836,-0.0062698,0.0108152,0.0325102,0.0143461,-0.0064781,0.0169698,0.0
 36165,0.0385784,-0.0016446,0.0140503,-0.0024306,0.0457173,0.0121998,0.
 0123714,0.0095386,0.0229378,1.364499,0.0393815,0.0277072,0.0393699,1.4
 386323,0.0640961,0.0277791,0.0640436,1.3924684,-0.3178245,0.0825574,-0
 .0714015,0.1402405,-0.8292517,0.148234,-0.0662472,0.0663144,-0.3503743
 ,-0.3177766,-0.0392933,0.1017395,-0.0149172,-0.3368753,-0.1105871,0.15
 42825,-0.0286261,-0.8427702,-0.851556,-0.0551398,-0.0387242,-0.1371855
 ,-0.3434623,-0.0570423,-0.0964817,-0.0570536,-0.3024449,0.0151813,-0.0
 279,-0.0196351,-0.0659479,-0.0520266,-0.0836581,-0.0463793,-0.0836508,
 0.0080926,0.0108456,0.0457901,-0.013494,0.0779091,-0.0589348,0.0655259
 ,-0.0302794,0.0679937,0.0366205,0.0108144,0.0027957,0.0476818,-0.00216
 11,0.068204,0.0223282,0.0835756,0.0198531,-0.0904908,0.0396957,-0.0550
 966,-0.0435864,-0.0283518,-0.0687758,-0.0524218,-0.0411891,-0.0903973,
 0.0003174,0.0397077,-0.0007159,0.0623933,0.0118016,0.0496043,0.022541,
 0.0428243,0.0504497,-0.100789,-0.122538,0.0340409,-0.0128026,0.0024579
 ,0.0518723,0.0171746,0.0051008,0.016375,0.0591887,0.0396726,-0.0596843
 ,-0.0371145,-0.0483672,-0.0530695,-0.0960584,-0.0127467,-0.0580631,-0.
 0153793,-0.1224958,-0.0005006,0.0363817,0.0056492,0.0690285,0.0102027,
 0.0006079,0.0110079,0.0420131,0.0397236,0.0585013,-0.0217674,0.0442944
 ,-0.0603763,0.0899728,-0.0033862,0.0620907,0.0091402\Polar=56.8103381,
 -0.1971698,56.4394441,-0.1384917,-0.3202111,56.6699526\Quadrupole=0.05
 56236,-0.0654243,0.0098007,-0.0642171,-0.0452596,-0.1045414\PG=C01 [X(
 C5H9F3)]\NImag=0\\0.45303820,0.00053986,0.57993635,0.00033954,-0.00065
 642,0.58044338,-0.16837465,-0.00022886,-0.00008925,0.49292968,0.001657
 29,-0.07861465,-0.00202101,-0.00011227,0.49274774,0.00119252,-0.002024
 57,-0.07720744,-0.00010543,-0.00008430,0.49291017,-0.01878958,0.032779
 08,-0.01483207,-0.08725684,0.02488846,-0.01411366,0.56615412,0.0067266
 4,-0.00251225,0.00166999,0.02621625,-0.14385993,0.03113501,0.03624968,
 0.48759361,-0.00306611,0.00187159,-0.00022358,-0.01401276,0.02925868,-
 0.09305728,-0.01766664,0.04310066,0.55969869,-0.01876664,-0.00287149,0
 .03581808,-0.08733774,-0.00485865,0.02824410,0.00412569,0.00045285,-0.
 00958625,0.56623600,-0.00061074,0.00064007,0.00073561,-0.00429245,-0.0
 7962079,0.00616340,-0.00886670,-0.00561522,0.03179428,-0.00436609,0.57
 885451,0.00736012,0.00053627,-0.00336938,0.02942858,0.00803502,-0.1572
 8132,0.00366692,0.00826581,-0.02002260,0.04006194,0.01028715,0.4683541
 8,-0.02088849,-0.02613020,-0.01837319,-0.07764326,-0.02564274,-0.01803
 442,0.00700233,0.00693137,0.00744623,0.00699195,0.00934822,0.00400231,
 0.52540484,-0.01097992,0.00291776,0.00050940,-0.02564110,-0.12589951,-
 0.04171972,-0.00374071,-0.03442657,-0.00859128,0.00484694,0.00603766,-
 0.00798580,0.01559089,0.55467286,-0.00771509,0.00051269,0.00254904,-0.
 01803254,-0.04172803,-0.09592695,0.00649404,0.00655944,0.01199582,-0.0
 0569902,-0.02312569,-0.02844342,0.01095516,0.02541153,0.53643505,-0.00
 095973,0.00044785,-0.00122966,0.00590991,-0.00267106,-0.00026001,0.000
 14868,-0.00063389,-0.00078209,-0.00000433,0.00015392,-0.00055466,-0.08
 537417,0.04214713,-0.01220021,0.11140106,0.00236134,-0.00064499,0.0005
 6450,0.01680928,-0.04205551,0.01954763,-0.00550581,-0.00440544,-0.0082
 7093,-0.00014549,-0.00080950,0.00242470,0.03659964,-0.23970786,0.03710
 727,-0.08506641,0.31000490,-0.00069787,0.00023206,-0.00057489,0.001475
 54,-0.00811125,0.00729410,-0.00121970,-0.00135477,-0.00119306,-0.00094
 301,0.00046217,-0.00136717,-0.01272804,0.04495760,-0.08795389,0.035534
 37,-0.10022879,0.12223867,-0.00094761,-0.00099382,0.00084755,0.0059127
 3,-0.00115697,-0.00245236,-0.00000349,-0.00046798,0.00033578,0.0001487
 0,-0.00095222,-0.00033194,-0.08529495,0.00275940,0.04376773,0.01451984
 ,-0.00184445,-0.00466054,0.11128837,0.00014604,-0.00032705,0.00012597,
 0.00707667,0.00530145,-0.02510949,-0.00093216,-0.00036865,0.00030755,-
 0.00301011,-0.00462362,-0.00127558,0.00041980,-0.07926665,-0.01267260,
 -0.00498873,-0.01350855,0.05782980,0.00464832,0.08001851,0.00245585,0.
 00045185,-0.00088952,0.01529795,0.00254574,-0.04007543,0.00017808,0.00
 225903,-0.00179866,-0.00476880,-0.00819292,-0.00097350,0.03874107,-0.0
 2053038,-0.24851278,-0.00018751,0.04196326,-0.04936655,-0.09202958,-0.
 01762254,0.35242505,0.00135874,-0.00663190,-0.00466445,-0.03671899,-0.
 00073979,-0.00050582,-0.00200051,0.00215940,-0.00024982,-0.00200654,0.
 00048311,0.00209844,-0.25229747,-0.03353945,-0.02354733,-0.04858398,0.
 03836835,-0.01867999,-0.04860131,-0.00461453,0.04243887,0.38439251,0.0
 0029755,-0.00477888,-0.00382388,-0.02844950,0.00326236,-0.00187082,0.0
 0049121,-0.00009235,-0.00080643,-0.00010520,-0.00024147,0.00034093,-0.
 02567353,-0.08251917,-0.00599768,0.05460043,-0.00695481,0.01215025,-0.
 00223424,0.01242936,0.00247317,0.00727846,0.07920093,0.00020955,-0.003
 82469,-0.00202861,-0.01998187,-0.00186069,0.00461423,-0.00028730,0.000
 28337,-0.00007339,0.00055395,-0.00074774,0.00009392,-0.01802732,-0.005
 97729,-0.07831104,-0.02198747,0.00943808,0.00717936,0.05883570,0.00518
 410,-0.01224350,0.00503033,-0.00116325,0.08018929,-0.07561555,-0.06859
 180,-0.04824121,-0.01429633,-0.02689259,-0.01893288,0.00164270,-0.0014
 3086,-0.00000018,0.00165038,-0.00048035,-0.00134268,-0.00514835,0.0041
 9102,0.00294628,0.00064864,-0.00052989,0.00004863,0.00064840,-0.000133
 37,-0.00051502,-0.00267987,-0.00209155,-0.00147070,0.08559580,-0.07023
 437,-0.20331275,-0.11055723,0.00068600,-0.00032387,0.00059991,0.000507
 32,0.00070842,0.00042876,0.00029497,-0.00006583,-0.00012123,0.00143166
 ,-0.00057811,0.00099851,-0.00086192,0.00048346,-0.00041411,0.00014073,
 0.00021808,-0.00008643,-0.00019065,0.00034373,0.00006825,0.07629755,0.
 21864156,-0.04939248,-0.11056170,-0.12389300,0.00046784,0.00059010,-0.
 00077019,0.00012806,-0.00040178,-0.00017823,0.00043518,0.00071032,0.00
 059563,0.00100639,0.00099893,-0.00129458,0.00045812,-0.00018152,0.0003
 9713,-0.00096515,-0.00031864,0.00066306,-0.00013383,0.00006818,0.00029
 465,0.05366799,0.12160544,0.13132812,-0.07762701,0.07589899,-0.0344826
 6,-0.01094828,0.02841512,-0.01310915,-0.00693828,-0.00164463,0.0005471
 5,0.00153615,0.00073899,-0.00126855,-0.00060869,0.00408757,-0.00125128
 ,0.00094573,-0.00208885,0.00078433,0.00005798,-0.00054853,0.00010979,0
 .00063627,-0.00042650,0.00029595,0.00362996,-0.00959638,0.00545766,0.0
 8618811,0.07884238,-0.24035510,0.09035423,-0.00029946,0.00027299,-0.00
 016372,0.00028347,0.00081149,-0.00043043,-0.00035871,0.00010389,0.0000
 2030,0.00037513,-0.00056987,-0.00034778,-0.00185758,-0.00057554,-0.000
 63719,0.00005475,0.00006082,0.00005912,0.00030964,0.00018102,0.0002022
 9,0.00825266,-0.01973623,0.01060830,-0.08548452,0.26012291,-0.03566073
 ,0.08986989,-0.08960969,-0.00015727,-0.00094650,-0.00162807,-0.0001018
 7,-0.00044724,0.00026979,0.00027934,-0.00086804,0.00054615,-0.00119744
 ,0.00265499,-0.00056734,0.00089714,-0.00105211,0.00040950,-0.00005752,
 -0.00055629,0.00009472,0.00033542,-0.00036226,0.00001157,0.00708852,-0
 .01562567,0.00739600,0.03909508,-0.09927747,0.09268841,-0.07761933,-0.
 00679269,0.08309850,-0.01099128,-0.00270765,0.03118833,0.00154106,-0.0
 0094446,0.00112368,-0.00693867,-0.00004102,-0.00173237,-0.00061226,0.0
 0020990,0.00426330,0.00005776,-0.00008796,-0.00054587,0.00099628,0.000
 04660,-0.00224723,0.00063477,0.00013344,-0.00050124,0.00363019,0.00189
 198,-0.01087663,0.00366577,-0.00001814,-0.01080452,0.08617849,-0.00689
 673,-0.04950779,0.02129190,-0.00024803,-0.00176685,-0.00020812,0.00013
 864,0.00022654,-0.00090826,0.00000090,0.00005300,-0.00017485,-0.001004
 55,0.00017231,0.00238677,-0.00004089,-0.00007810,-0.00049763,0.0002405
 9,-0.00022374,-0.00119347,0.00041910,-0.00001978,-0.00028980,0.0094646
 6,0.00269596,-0.02367947,-0.01017289,-0.00133021,0.02631287,0.00786258
 ,0.04865189,0.08627382,0.02178856,-0.28046339,-0.00022890,0.00056365,0
 .00040756,-0.00042842,-0.00002167,0.00042639,0.00030041,-0.00015749,0.
 00102921,0.00076024,-0.00060960,-0.00130194,0.00007430,0.00010709,0.00
 022348,-0.00205999,-0.00076636,0.00006533,0.00017814,0.00027425,0.0002
 1209,0.00537412,0.00254720,-0.01503564,0.00363458,-0.00021370,-0.01070
 996,-0.09368674,-0.02329109,0.30416478,0.00094066,0.00053336,0.0007726
 9,0.00267294,0.01003881,0.00636967,-0.07492807,-0.06889522,-0.04708634
 ,-0.00003898,-0.00045609,0.00023493,-0.00295611,0.00123927,-0.00124947
 ,0.00039201,0.00121506,0.00031515,0.00027514,0.00036475,-0.00016827,0.
 00115475,-0.00080610,0.00015267,-0.00009328,0.00003150,-0.00034224,0.0
 0011834,-0.00021224,0.00003832,-0.00005982,0.00005749,0.00005983,0.078
 29255,-0.00147412,0.00100960,-0.00078670,-0.00934685,-0.02456128,-0.01
 535920,-0.06774303,-0.20500679,-0.11042046,-0.00035693,0.00101666,-0.0
 0165423,0.00317855,-0.00070713,0.00462891,-0.00012085,-0.00308575,-0.0
 0047066,-0.00008392,0.00019543,-0.00044617,-0.00031756,0.00010356,-0.0
 0022269,0.00097715,0.00039430,0.00038727,-0.00011335,0.00036477,0.0002
 9300,0.00009758,-0.00001875,0.00003596,0.07302176,0.22587536,0.0004928
 7,-0.00018682,0.00021925,0.00464611,0.01218945,0.00651873,-0.04697640,
 -0.11206682,-0.12288036,0.00034154,0.00045992,0.00119055,-0.00107582,0
 .00187499,-0.00335799,0.00019537,0.00142706,0.00065234,-0.00009443,-0.
 00080110,0.00105837,0.00008229,0.00007432,0.00027206,0.00007778,-0.000
 16477,0.00021359,0.00025893,0.00006266,0.00001891,-0.00010869,-0.00012
 076,-0.00006784,0.05273804,0.11979776,0.13134884,0.00104330,-0.0002966
 1,-0.00095207,0.00236413,-0.00007742,-0.01107835,-0.07730799,-0.008271
 74,0.08303755,-0.00063496,0.00193639,-0.00082207,0.00014066,-0.0003871
 6,0.00146558,-0.00010557,-0.00005350,-0.00021962,-0.00004362,0.0005501
 3,-0.00051063,0.00010497,-0.00019262,-0.00029059,-0.00005318,0.0000013
 0,-0.00006825,0.00008372,-0.00013205,0.00017319,-0.00021354,0.00028484
 ,0.00012504,0.00321754,0.00164842,-0.01112502,0.07959501,-0.00129624,0
 .00093297,-0.00010175,-0.00994223,-0.00273352,0.02654544,-0.00717342,-
 0.04851781,0.02134387,0.00242384,-0.00536340,0.00116495,-0.00140092,0.
 00049470,0.00421665,0.00009095,0.00061586,-0.00070991,0.00059660,-0.00
 037622,-0.00235919,0.00018170,-0.00016447,-0.00061219,0.00014104,-0.00
 001282,-0.00011977,-0.00018456,-0.00002519,-0.00024903,0.00069606,0.00
 015133,-0.00021867,0.00951436,0.00298931,-0.02358783,0.00691497,0.0526
 0160,0.00079461,-0.00070812,0.00021300,0.00438361,0.00093721,-0.011938
 38,0.08198250,0.02416762,-0.28178283,-0.00171480,0.00292654,0.00014170
 ,0.00016913,-0.00027252,-0.00238032,0.00002931,0.00017233,0.00031822,-
 0.00018087,-0.00197818,0.00124848,-0.00003253,0.00014994,0.00026923,-0
 .00002068,0.00006103,-0.00007904,-0.00007640,-0.00002668,0.00037355,-0
 .00073995,0.00021545,0.00041283,0.00590743,0.00205402,-0.01491639,-0.0
 9019809,-0.02710632,0.30676362,0.00061031,0.00269348,-0.00124847,-0.01
 064669,0.00020134,0.00067639,-0.31309411,0.00324450,-0.00080915,0.0003
 8117,-0.00065277,0.00061292,-0.00295870,-0.00036294,-0.00083723,0.0003
 7639,0.00014809,0.00020579,0.00038091,0.00024846,0.00007560,0.00169382
 ,-0.00190698,0.00020300,0.00029443,-0.00010709,0.00011735,-0.00071738,
 0.00001523,-0.00004241,0.00024568,-0.00015370,-0.00000956,-0.00912377,
 0.00032231,0.00069933,-0.00915060,-0.00036823,-0.00077739,0.34086102,0
 .00082113,-0.00542160,0.00232265,0.02852709,-0.00022441,-0.00037828,0.
 00015590,-0.04638199,0.00039393,0.00035402,0.00101677,-0.00119247,0.00
 411400,0.00084858,0.00005885,-0.00071448,0.00057633,-0.00009479,-0.000
 56522,-0.00017891,-0.00004903,-0.00227618,-0.00069878,-0.00023575,0.00
 001587,0.00014209,0.00025486,0.00201398,0.00016178,0.00021311,-0.00022
 386,-0.00005242,-0.00006600,-0.02541423,0.00075031,0.00120459,-0.00246
 358,-0.00076305,-0.00055928,-0.00360000,0.05019343,-0.00047850,0.00252
 675,-0.00104483,-0.01314155,-0.00095432,-0.00141016,0.00005049,0.00039
 483,-0.04812302,-0.00112307,-0.00060227,0.00078883,0.00077254,-0.00038
 942,0.00035719,-0.00010739,0.00004258,-0.00012315,-0.00021296,-0.00015
 754,0.00000303,-0.00017097,-0.00016488,-0.00012111,0.00038890,0.000103
 31,0.00006551,-0.00092942,0.00018722,0.00055162,-0.00029900,0.00009446
 ,0.00023829,-0.01792606,0.00094121,-0.00033717,0.03101317,-0.00002785,
 0.00155667,0.00163950,-0.00228174,0.04783751,0.00094707,0.00090306,0.0
 0023205,0.00268078,0.00940752,0.00730754,-0.00004078,0.00006726,-0.000
 50946,-0.07493848,-0.06764674,-0.04892365,-0.00295511,-0.00075685,0.00
 158886,0.00027538,-0.00003513,0.00039989,0.00039204,0.00070740,0.00103
 648,0.00115312,-0.00012913,-0.00081007,-0.00009431,-0.00030211,0.00015
 723,-0.00005878,0.00007586,0.00003366,0.00011842,-0.00003574,-0.000212
 92,0.00027286,0.00003726,-0.00021627,-0.00009784,0.00021463,0.00000703
 ,-0.00004006,-0.00015635,-0.00008093,0.07829835,-0.00003733,-0.0000004
 6,0.00018275,0.00121648,0.00192484,0.00262777,0.00020123,0.00079004,0.
 00054607,-0.06715451,-0.20311803,-0.11272976,0.00006314,-0.00098306,0.
 00197450,-0.00011669,0.00056310,-0.00093209,0.00014297,0.00052871,0.00
 012736,-0.00002948,0.00020529,0.00003739,0.00041405,0.00030722,-0.0001
 3793,-0.00007312,-0.00008628,-0.00009160,0.00020542,0.00017197,0.00013
 206,-0.00018536,0.00030647,-0.00001342,0.00009801,0.00016916,-0.000082
 02,0.00005533,-0.00002824,0.00001658,0.07434480,0.21850548,-0.00155800
 ,-0.00042359,0.00123770,-0.01037295,-0.02488974,-0.01998870,-0.0004521
 1,-0.00156848,0.00141541,-0.04786880,-0.11110039,-0.12475596,0.0033562
 1,0.00472793,-0.00308219,-0.00004661,-0.00057908,0.00069166,-0.0001803
 4,-0.00176947,-0.00296275,-0.00032667,-0.00025943,0.00016952,0.0009073
 4,0.00040986,0.00027871,0.00012712,0.00006217,0.00000300,-0.00019429,0
 .00036269,0.00021215,0.00010582,0.00110478,-0.00005463,0.00025710,0.00
 010616,0.00043110,-0.00002332,0.00009520,-0.00007854,0.05088259,0.1224
 5559,0.13874386,0.00061072,-0.00026398,0.00295531,-0.01064900,0.000707
 22,-0.00004825,0.00038028,0.00035927,-0.00082184,-0.31309466,0.0003660
 1,0.00337837,-0.00294644,-0.00091536,-0.00007414,0.00038211,0.00015435
 ,0.00020547,0.00037620,0.00024385,0.00006964,0.00166032,-0.00045073,-0
 .00184160,0.00029417,0.00007428,-0.00014030,0.00024634,-0.00006095,-0.
 00014150,-0.00071701,-0.00003457,0.00002859,-0.00003890,-0.00000145,0.
 00005893,0.00032067,0.00004242,0.00003464,0.00056685,-0.00042924,0.000
 35003,-0.00912785,0.00076476,0.00006891,0.34088542,-0.00017360,-0.0000
 0198,0.00057795,-0.00273884,-0.00170338,-0.00041901,-0.00093993,0.0002
 4232,-0.00032315,0.00014225,-0.04768484,0.00082895,0.00210986,0.000309
 05,-0.00017197,-0.00039886,-0.00008146,-0.00019033,-0.00034311,-0.0000
 6002,0.00027203,-0.00088992,-0.00032972,-0.00034617,0.00037139,0.00018
 813,0.00008681,-0.00035825,0.00021405,-0.00000099,-0.00019314,0.000634
 58,0.00001752,-0.00012643,-0.00003517,0.00001896,0.00018624,-0.0000146
 4,-0.00012041,0.00017600,0.00007359,0.00039193,-0.02547270,0.00046917,
 0.00104323,0.00029904,0.04668113,0.00093436,0.00037409,-0.00646445,0.0
 3127479,0.00013852,0.00008694,0.00071728,-0.00091960,0.00156284,0.0001
 5088,0.00083617,-0.04687619,0.00359593,0.00025939,0.00092890,-0.000463
 57,-0.00008217,-0.00009480,-0.00063679,0.00013380,0.00051298,-0.002025
 64,-0.00039106,-0.00056544,-0.00011660,0.00023821,0.00001930,-0.000110
 57,-0.00016155,-0.00002832,0.00220962,0.00004311,0.00007918,-0.0001217
 5,0.00009711,-0.00006980,-0.00023613,-0.00026499,0.00012550,-0.0005102
 4,0.00057878,-0.00028476,-0.01784602,0.00130735,-0.00005463,-0.0040030
 8,-0.00095467,0.05143827,0.00103958,-0.00099433,0.00004931,0.00239290,
 -0.01045661,0.00366180,-0.00063523,-0.00011845,0.00210025,-0.07730903,
 0.07533853,-0.03586860,0.00014421,0.00125138,-0.00087463,-0.00002973,-
 0.00029864,0.00072546,-0.00010560,-0.00022460,0.00002368,0.00009939,-0
 .00033501,-0.00008299,-0.00005380,-0.00006476,0.00002305,-0.00020994,0
 .00021456,0.00022258,0.00008350,0.00011829,-0.00018256,-0.00009787,0.0
 0027503,0.00000546,0.00073730,-0.00045097,0.00043244,0.00032072,-0.000
 15885,0.00025522,0.00321517,-0.00990969,0.00531800,-0.00914922,0.02835
 000,-0.01281246,0.07955763,0.00031082,0.00004076,-0.00038797,0.0007678
 1,-0.00214569,0.00071807,-0.00079319,0.00081459,0.00070555,0.07471139,
 -0.24057987,0.09322985,-0.00031033,-0.00079498,0.00018863,0.00003109,-
 0.00033614,-0.00199036,0.00005857,0.00018104,0.00032856,0.00002970,0.0
 0007317,0.00006677,0.00002502,-0.00009333,0.00009061,-0.00046308,0.000
 38469,0.00013332,-0.00013462,0.00024005,-0.00012173,0.00007930,0.00040
 911,-0.00016820,0.00025436,0.00001620,0.00016940,0.00004696,-0.0000134
 8,-0.00012084,0.00877697,-0.01972539,0.01022255,-0.00085490,0.00109920
 ,-0.00123249,-0.08253589,0.26043007,-0.00148447,0.00022217,0.00110639,
 -0.01085189,0.02633745,-0.01254783,0.00286080,-0.00105540,-0.00603594,
 -0.03448167,0.09041897,-0.08965066,-0.00136898,0.00468124,-0.00113357,
 0.00063057,-0.00239990,0.00126903,0.00007572,-0.00055343,0.00075168,0.
 00017357,-0.00069136,0.00003716,0.00014039,-0.00009104,-0.00000101,0.0
 0091744,-0.00029777,0.00018016,-0.00014690,-0.00034382,0.00010748,0.00
 019956,0.00002008,0.00019152,-0.00057080,0.00198045,-0.00075693,0.0000
 2788,-0.00026462,0.00012408,0.00695398,-0.01542062,0.00779429,-0.00007
 918,-0.00071067,-0.00031553,0.03700398,-0.10183172,0.09887967\\-0.0000
 4406,-0.00004823,-0.00002728,0.00001218,0.00001629,0.00001818,-0.00001
 341,-0.00006180,-0.00002310,-0.00000868,-0.00003774,-0.00005288,-0.000
 03254,-0.00008921,-0.00007674,0.00006674,0.00007180,0.00011958,0.00007
 609,0.00012337,0.00002173,-0.00001114,0.00011462,0.00009255,-0.0000172
 8,-0.00002093,-0.00001681,0.00002481,-0.00002628,0.00001137,0.00003830
 ,0.00000602,-0.00003242,-0.00000787,-0.00003125,-0.00001431,0.00000095
 ,0.00002140,-0.00003806,-0.00004194,0.00002056,-0.00000573,-0.00000483
 ,-0.00002112,-0.00002202,-0.00003641,-0.00000507,0.00000881,-0.0000009
 1,-0.00003244,0.00003713\\\@


      HUMANKIND PERIODICALLY GOES THROUGH A SPEEDUP OF ITS AFFAIRS, 
      THEREBY EXPERIENCING THE RACE BETWEEN THE RENEWABLE VITALITY
      OF THE LIVING, AND THE BECKONING VITIATION OF DECADENCE.
      IN THIS PERIODIC RACE, ANY PAUSE BECOMES A LUXURY.
      ONLY THEN CAN ONE REFLECT THAT ALL IS PERMITTED;
      ALL IS POSSIBLE.

                              -- THE APOCRYPHA OF MUAD'DIB
                                 CHILDREN OF DUNE, BY FRANK HERBERT
 Job cpu time:       0 days  1 hours 47 minutes 44.9 seconds.
 Elapsed time:       0 days  0 hours 27 minutes 52.5 seconds.
 File lengths (MBytes):  RWF=    108 Int=      0 D2E=      0 Chk=      7 Scr=      1
 Normal termination of Gaussian 16 at Sat May 27 19:38:44 2023.
### All Done ###
