### Starting Gaussian ###
 Entering Gaussian System, Link 0=g16
 Initial command:
 /cluster/software/gaussian/gaussian-16-A.03/avx2/g16/l1.exe "/local/scratch/linjian/Gau-21263.inp" -scrdir="/local/scratch/linjian/"
 Entering Link 1 = /cluster/software/gaussian/gaussian-16-A.03/avx2/g16/l1.exe PID=     21264.
  
 Copyright (c) 1988,1990,1992,1993,1995,1998,2003,2009,2016,
            Gaussian, Inc.  All Rights Reserved.
  
 This is part of the Gaussian(R) 16 program.  It is based on
 the Gaussian(R) 09 system (copyright 2009, Gaussian, Inc.),
 the Gaussian(R) 03 system (copyright 2003, Gaussian, Inc.),
 the Gaussian(R) 98 system (copyright 1998, Gaussian, Inc.),
 the Gaussian(R) 94 system (copyright 1995, Gaussian, Inc.),
 the Gaussian 92(TM) system (copyright 1992, Gaussian, Inc.),
 the Gaussian 90(TM) system (copyright 1990, Gaussian, Inc.),
 the Gaussian 88(TM) system (copyright 1988, Gaussian, Inc.),
 the Gaussian 86(TM) system (copyright 1986, Carnegie Mellon
 University), and the Gaussian 82(TM) system (copyright 1983,
 Carnegie Mellon University). Gaussian is a federally registered
 trademark of Gaussian, Inc.
  
 This software contains proprietary and confidential information,
 including trade secrets, belonging to Gaussian, Inc.
  
 This software is provided under written license and may be
 used, copied, transmitted, or stored only in accord with that
 written license.
  
 The following legend is applicable only to US Government
 contracts under FAR:
  
                    RESTRICTED RIGHTS LEGEND
  
 Use, reproduction and disclosure by the US Government is
 subject to restrictions as set forth in subparagraphs (a)
 and (c) of the Commercial Computer Software - Restricted
 Rights clause in FAR 52.227-19.
  
 Gaussian, Inc.
 340 Quinnipiac St., Bldg. 40, Wallingford CT 06492
  
  
 ---------------------------------------------------------------
 Warning -- This program may not be used in any manner that
 competes with the business of Gaussian, Inc. or will provide
 assistance to any competitor of Gaussian, Inc.  The licensee
 of this program is prohibited from giving any competitor of
 Gaussian, Inc. access to this program.  By using this program,
 the user acknowledges that Gaussian, Inc. is engaged in the
 business of creating and licensing software in the field of
 computational chemistry and represents and warrants to the
 licensee that it is not a competitor of Gaussian, Inc. and that
 it will not use this program in any manner prohibited above.
 ---------------------------------------------------------------
  

 Cite this work as:
 Gaussian 16, Revision A.03,
 M. J. Frisch, G. W. Trucks, H. B. Schlegel, G. E. Scuseria, 
 M. A. Robb, J. R. Cheeseman, G. Scalmani, V. Barone, 
 G. A. Petersson, H. Nakatsuji, X. Li, M. Caricato, A. V. Marenich, 
 J. Bloino, B. G. Janesko, R. Gomperts, B. Mennucci, H. P. Hratchian, 
 J. V. Ortiz, A. F. Izmaylov, J. L. Sonnenberg, D. Williams-Young, 
 F. Ding, F. Lipparini, F. Egidi, J. Goings, B. Peng, A. Petrone, 
 T. Henderson, D. Ranasinghe, V. G. Zakrzewski, J. Gao, N. Rega, 
 G. Zheng, W. Liang, M. Hada, M. Ehara, K. Toyota, R. Fukuda, 
 J. Hasegawa, M. Ishida, T. Nakajima, Y. Honda, O. Kitao, H. Nakai, 
 T. Vreven, K. Throssell, J. A. Montgomery, Jr., J. E. Peralta, 
 F. Ogliaro, M. J. Bearpark, J. J. Heyd, E. N. Brothers, K. N. Kudin, 
 V. N. Staroverov, T. A. Keith, R. Kobayashi, J. Normand, 
 K. Raghavachari, A. P. Rendell, J. C. Burant, S. S. Iyengar, 
 J. Tomasi, M. Cossi, J. M. Millam, M. Klene, C. Adamo, R. Cammi, 
 J. W. Ochterski, R. L. Martin, K. Morokuma, O. Farkas, 
 J. B. Foresman, and D. J. Fox, Gaussian, Inc., Wallingford CT, 2016.
 
 ******************************************
 Gaussian 16:  ES64L-G16RevA.03 25-Dec-2016
                28-May-2023 
 ******************************************
 %chk=CCqCrCCqCrCqCrC.chk
 %NProcShared=20
 Will use up to   20 processors via shared memory.
 -----------------------------
 # opt freq b3lyp/6-31g(2df,p)
 -----------------------------
 1/18=20,19=15,26=3,38=1/1,3;
 2/9=110,12=2,17=6,18=5,40=1/2;
 3/5=1,6=6,7=104,11=2,25=1,30=1,71=1,74=-5/1,2,3;
 4//1;
 5/5=2,38=5/2;
 6/7=2,8=2,9=2,10=2,28=1/1;
 7//1,2,3,16;
 1/18=20,19=15,26=3/3(2);
 2/9=110/2;
 99//99;
 2/9=110/2;
 3/5=1,6=6,7=104,11=2,25=1,30=1,71=1,74=-5/1,2,3;
 4/5=5,16=3,69=1/1;
 5/5=2,38=5/2;
 7//1,2,3,16;
 1/18=20,19=15,26=3/3(-5);
 2/9=110/2;
 6/7=2,8=2,9=2,10=2,19=2,28=1/1;
 99/9=1/99;
 -------------------
 Title Card Required
 -------------------
 Symbolic Z-matrix:
 Charge =  0 Multiplicity = 1
 C                     0.88068   0.03552   0.12031 
 C                     2.40885   0.01937  -0.02787 
 C                     2.70586   0.13558  -1.52169 
 C                     3.02787   1.13351   0.85467 
 C                     4.58233   1.20094   0.94211 
 C                     5.22337   1.4924   -0.42254 
 C                     5.05856   2.28601   1.96541 
 C                     4.52293   2.05294   3.3833 
 C                     6.59383   2.34822   2.05513 
 H                     0.43027  -0.76     -0.48522 
 H                     0.46575   0.98955  -0.22111 
 H                     0.57392  -0.12432   1.15813 
 H                     2.77412  -0.94872   0.33168 
 H                     2.59423   1.16628  -1.86927 
 H                     2.03986  -0.50128  -2.1117 
 H                     3.70195  -0.22854  -1.76674 
 H                     2.63719   0.9567    1.86635 
 H                     2.63531   2.11065   0.55096 
 H                     4.93891   0.22506   1.28973 
 H                     4.74867   2.3479   -0.9087 
 H                     5.18881   0.62474  -1.07494 
 H                     6.29409   1.6855   -0.3696 
 H                     4.69825   3.26407   1.62601 
 H                     4.82963   1.07442   3.76427 
 H                     3.43284   2.11871   3.42972 
 H                     4.90929   2.81807   4.06709 
 H                     7.00649   1.37148   2.32582 
 H                     6.91608   3.08227   2.79967 
 H                     7.05621   2.66576   1.1171 
 

 GradGradGradGradGradGradGradGradGradGradGradGradGradGradGradGradGradGrad
 Berny optimization.
 Initialization pass.
                           ----------------------------
                           !    Initial Parameters    !
                           ! (Angstroms and Degrees)  !
 --------------------------                            --------------------------
 ! Name  Definition              Value          Derivative Info.                !
 --------------------------------------------------------------------------------
 ! R1    R(1,2)                  1.5354         estimate D2E/DX2                !
 ! R2    R(1,10)                 1.0965         estimate D2E/DX2                !
 ! R3    R(1,11)                 1.0949         estimate D2E/DX2                !
 ! R4    R(1,12)                 1.0939         estimate D2E/DX2                !
 ! R5    R(2,3)                  1.5275         estimate D2E/DX2                !
 ! R6    R(2,4)                  1.5503         estimate D2E/DX2                !
 ! R7    R(2,13)                 1.0954         estimate D2E/DX2                !
 ! R8    R(3,14)                 1.0934         estimate D2E/DX2                !
 ! R9    R(3,15)                 1.0942         estimate D2E/DX2                !
 ! R10   R(3,16)                 1.0885         estimate D2E/DX2                !
 ! R11   R(4,5)                  1.5584         estimate D2E/DX2                !
 ! R12   R(4,17)                 1.0988         estimate D2E/DX2                !
 ! R13   R(4,18)                 1.096          estimate D2E/DX2                !
 ! R14   R(5,6)                  1.5356         estimate D2E/DX2                !
 ! R15   R(5,7)                  1.5657         estimate D2E/DX2                !
 ! R16   R(5,19)                 1.0956         estimate D2E/DX2                !
 ! R17   R(6,20)                 1.0925         estimate D2E/DX2                !
 ! R18   R(6,21)                 1.0861         estimate D2E/DX2                !
 ! R19   R(6,22)                 1.0893         estimate D2E/DX2                !
 ! R20   R(7,8)                  1.5335         estimate D2E/DX2                !
 ! R21   R(7,9)                  1.5391         estimate D2E/DX2                !
 ! R22   R(7,23)                 1.0962         estimate D2E/DX2                !
 ! R23   R(8,24)                 1.0939         estimate D2E/DX2                !
 ! R24   R(8,25)                 1.0931         estimate D2E/DX2                !
 ! R25   R(8,26)                 1.0965         estimate D2E/DX2                !
 ! R26   R(9,27)                 1.0943         estimate D2E/DX2                !
 ! R27   R(9,28)                 1.0941         estimate D2E/DX2                !
 ! R28   R(9,29)                 1.0929         estimate D2E/DX2                !
 ! A1    A(2,1,10)             110.3585         estimate D2E/DX2                !
 ! A2    A(2,1,11)             110.869          estimate D2E/DX2                !
 ! A3    A(2,1,12)             111.6608         estimate D2E/DX2                !
 ! A4    A(10,1,11)            107.7143         estimate D2E/DX2                !
 ! A5    A(10,1,12)            107.62           estimate D2E/DX2                !
 ! A6    A(11,1,12)            108.4732         estimate D2E/DX2                !
 ! A7    A(1,2,3)              106.6847         estimate D2E/DX2                !
 ! A8    A(1,2,4)              109.5671         estimate D2E/DX2                !
 ! A9    A(1,2,13)             108.0292         estimate D2E/DX2                !
 ! A10   A(3,2,4)              115.1136         estimate D2E/DX2                !
 ! A11   A(3,2,13)             108.8687         estimate D2E/DX2                !
 ! A12   A(4,2,13)             108.3692         estimate D2E/DX2                !
 ! A13   A(2,3,14)             111.2682         estimate D2E/DX2                !
 ! A14   A(2,3,15)             111.3892         estimate D2E/DX2                !
 ! A15   A(2,3,16)             111.8792         estimate D2E/DX2                !
 ! A16   A(14,3,15)            108.3665         estimate D2E/DX2                !
 ! A17   A(14,3,16)            109.7053         estimate D2E/DX2                !
 ! A18   A(15,3,16)            103.9398         estimate D2E/DX2                !
 ! A19   A(2,4,5)              117.473          estimate D2E/DX2                !
 ! A20   A(2,4,17)             105.4576         estimate D2E/DX2                !
 ! A21   A(2,4,18)             109.8752         estimate D2E/DX2                !
 ! A22   A(5,4,17)             108.0566         estimate D2E/DX2                !
 ! A23   A(5,4,18)             109.5273         estimate D2E/DX2                !
 ! A24   A(17,4,18)            105.7388         estimate D2E/DX2                !
 ! A25   A(4,5,6)              112.0086         estimate D2E/DX2                !
 ! A26   A(4,5,7)              111.7197         estimate D2E/DX2                !
 ! A27   A(4,5,19)             107.6926         estimate D2E/DX2                !
 ! A28   A(6,5,7)              108.8023         estimate D2E/DX2                !
 ! A29   A(6,5,19)             108.3703         estimate D2E/DX2                !
 ! A30   A(7,5,19)             108.1158         estimate D2E/DX2                !
 ! A31   A(5,6,20)             111.2655         estimate D2E/DX2                !
 ! A32   A(5,6,21)             111.6469         estimate D2E/DX2                !
 ! A33   A(5,6,22)             113.6275         estimate D2E/DX2                !
 ! A34   A(20,6,21)            110.1474         estimate D2E/DX2                !
 ! A35   A(20,6,22)            108.054          estimate D2E/DX2                !
 ! A36   A(21,6,22)            101.6591         estimate D2E/DX2                !
 ! A37   A(5,7,8)              113.125          estimate D2E/DX2                !
 ! A38   A(5,7,9)              111.6857         estimate D2E/DX2                !
 ! A39   A(5,7,23)             108.4222         estimate D2E/DX2                !
 ! A40   A(8,7,9)              107.4967         estimate D2E/DX2                !
 ! A41   A(8,7,23)             107.8831         estimate D2E/DX2                !
 ! A42   A(9,7,23)             108.0503         estimate D2E/DX2                !
 ! A43   A(7,8,24)             111.1016         estimate D2E/DX2                !
 ! A44   A(7,8,25)             112.2382         estimate D2E/DX2                !
 ! A45   A(7,8,26)             110.333          estimate D2E/DX2                !
 ! A46   A(24,8,25)            108.5803         estimate D2E/DX2                !
 ! A47   A(24,8,26)            107.9515         estimate D2E/DX2                !
 ! A48   A(25,8,26)            106.4355         estimate D2E/DX2                !
 ! A49   A(7,9,27)             110.7615         estimate D2E/DX2                !
 ! A50   A(7,9,28)             111.1361         estimate D2E/DX2                !
 ! A51   A(7,9,29)             112.5635         estimate D2E/DX2                !
 ! A52   A(27,9,28)            108.6286         estimate D2E/DX2                !
 ! A53   A(27,9,29)            108.1846         estimate D2E/DX2                !
 ! A54   A(28,9,29)            105.3386         estimate D2E/DX2                !
 ! D1    D(10,1,2,3)            55.7937         estimate D2E/DX2                !
 ! D2    D(10,1,2,4)          -178.9836         estimate D2E/DX2                !
 ! D3    D(10,1,2,13)          -61.1172         estimate D2E/DX2                !
 ! D4    D(11,1,2,3)           -63.4679         estimate D2E/DX2                !
 ! D5    D(11,1,2,4)            61.7548         estimate D2E/DX2                !
 ! D6    D(11,1,2,13)          179.6213         estimate D2E/DX2                !
 ! D7    D(12,1,2,3)           175.4487         estimate D2E/DX2                !
 ! D8    D(12,1,2,4)           -59.3286         estimate D2E/DX2                !
 ! D9    D(12,1,2,13)           58.5378         estimate D2E/DX2                !
 ! D10   D(1,2,3,14)            78.0398         estimate D2E/DX2                !
 ! D11   D(1,2,3,15)           -42.9973         estimate D2E/DX2                !
 ! D12   D(1,2,3,16)          -158.8521         estimate D2E/DX2                !
 ! D13   D(4,2,3,14)           -43.7376         estimate D2E/DX2                !
 ! D14   D(4,2,3,15)          -164.7746         estimate D2E/DX2                !
 ! D15   D(4,2,3,16)            79.3705         estimate D2E/DX2                !
 ! D16   D(13,2,3,14)         -165.6079         estimate D2E/DX2                !
 ! D17   D(13,2,3,15)           73.355          estimate D2E/DX2                !
 ! D18   D(13,2,3,16)          -42.4998         estimate D2E/DX2                !
 ! D19   D(1,2,4,5)            174.6879         estimate D2E/DX2                !
 ! D20   D(1,2,4,17)            54.2736         estimate D2E/DX2                !
 ! D21   D(1,2,4,18)           -59.2561         estimate D2E/DX2                !
 ! D22   D(3,2,4,5)            -65.1058         estimate D2E/DX2                !
 ! D23   D(3,2,4,17)           174.4798         estimate D2E/DX2                !
 ! D24   D(3,2,4,18)            60.9501         estimate D2E/DX2                !
 ! D25   D(13,2,4,5)            57.0338         estimate D2E/DX2                !
 ! D26   D(13,2,4,17)          -63.3806         estimate D2E/DX2                !
 ! D27   D(13,2,4,18)         -176.9103         estimate D2E/DX2                !
 ! D28   D(2,4,5,6)             62.8241         estimate D2E/DX2                !
 ! D29   D(2,4,5,7)           -174.8174         estimate D2E/DX2                !
 ! D30   D(2,4,5,19)           -56.2371         estimate D2E/DX2                !
 ! D31   D(17,4,5,6)          -178.132          estimate D2E/DX2                !
 ! D32   D(17,4,5,7)           -55.7735         estimate D2E/DX2                !
 ! D33   D(17,4,5,19)           62.8067         estimate D2E/DX2                !
 ! D34   D(18,4,5,6)           -63.4024         estimate D2E/DX2                !
 ! D35   D(18,4,5,7)            58.9562         estimate D2E/DX2                !
 ! D36   D(18,4,5,19)          177.5364         estimate D2E/DX2                !
 ! D37   D(4,5,6,20)            49.5616         estimate D2E/DX2                !
 ! D38   D(4,5,6,21)           -73.9502         estimate D2E/DX2                !
 ! D39   D(4,5,6,22)           171.7863         estimate D2E/DX2                !
 ! D40   D(7,5,6,20)           -74.444          estimate D2E/DX2                !
 ! D41   D(7,5,6,21)           162.0442         estimate D2E/DX2                !
 ! D42   D(7,5,6,22)            47.7808         estimate D2E/DX2                !
 ! D43   D(19,5,6,20)          168.2226         estimate D2E/DX2                !
 ! D44   D(19,5,6,21)           44.7108         estimate D2E/DX2                !
 ! D45   D(19,5,6,22)          -69.5527         estimate D2E/DX2                !
 ! D46   D(4,5,7,8)             58.3393         estimate D2E/DX2                !
 ! D47   D(4,5,7,9)            179.7816         estimate D2E/DX2                !
 ! D48   D(4,5,7,23)           -61.2767         estimate D2E/DX2                !
 ! D49   D(6,5,7,8)           -177.4838         estimate D2E/DX2                !
 ! D50   D(6,5,7,9)            -56.0415         estimate D2E/DX2                !
 ! D51   D(6,5,7,23)            62.9002         estimate D2E/DX2                !
 ! D52   D(19,5,7,8)           -59.9886         estimate D2E/DX2                !
 ! D53   D(19,5,7,9)            61.4537         estimate D2E/DX2                !
 ! D54   D(19,5,7,23)         -179.6047         estimate D2E/DX2                !
 ! D55   D(5,7,8,24)            58.4902         estimate D2E/DX2                !
 ! D56   D(5,7,8,25)           -63.2969         estimate D2E/DX2                !
 ! D57   D(5,7,8,26)           178.181          estimate D2E/DX2                !
 ! D58   D(9,7,8,24)           -65.2834         estimate D2E/DX2                !
 ! D59   D(9,7,8,25)           172.9295         estimate D2E/DX2                !
 ! D60   D(9,7,8,26)            54.4074         estimate D2E/DX2                !
 ! D61   D(23,7,8,24)          178.4152         estimate D2E/DX2                !
 ! D62   D(23,7,8,25)           56.6281         estimate D2E/DX2                !
 ! D63   D(23,7,8,26)          -61.894          estimate D2E/DX2                !
 ! D64   D(5,7,9,27)           -57.0035         estimate D2E/DX2                !
 ! D65   D(5,7,9,28)          -177.8548         estimate D2E/DX2                !
 ! D66   D(5,7,9,29)            64.2573         estimate D2E/DX2                !
 ! D67   D(8,7,9,27)            67.6429         estimate D2E/DX2                !
 ! D68   D(8,7,9,28)           -53.2084         estimate D2E/DX2                !
 ! D69   D(8,7,9,29)          -171.0963         estimate D2E/DX2                !
 ! D70   D(23,7,9,27)         -176.1657         estimate D2E/DX2                !
 ! D71   D(23,7,9,28)           62.983          estimate D2E/DX2                !
 ! D72   D(23,7,9,29)          -54.9048         estimate D2E/DX2                !
 --------------------------------------------------------------------------------
 Trust Radius=3.00D-01 FncErr=1.00D-07 GrdErr=1.00D-06 EigMax=2.50D+02 EigMin=1.00D-04
 Number of steps in this run=    164 maximum allowed number of steps=    174.
 GradGradGradGradGradGradGradGradGradGradGradGradGradGradGradGradGradGrad

                          Input orientation:                          
 ---------------------------------------------------------------------
 Center     Atomic      Atomic             Coordinates (Angstroms)
 Number     Number       Type             X           Y           Z
 ---------------------------------------------------------------------
      1          6           0        0.880680    0.035520    0.120310
      2          6           0        2.408850    0.019370   -0.027870
      3          6           0        2.705860    0.135580   -1.521690
      4          6           0        3.027870    1.133510    0.854670
      5          6           0        4.582330    1.200940    0.942110
      6          6           0        5.223370    1.492400   -0.422540
      7          6           0        5.058560    2.286010    1.965410
      8          6           0        4.522930    2.052940    3.383300
      9          6           0        6.593830    2.348220    2.055130
     10          1           0        0.430270   -0.760000   -0.485220
     11          1           0        0.465750    0.989550   -0.221110
     12          1           0        0.573920   -0.124320    1.158130
     13          1           0        2.774120   -0.948720    0.331680
     14          1           0        2.594230    1.166280   -1.869270
     15          1           0        2.039860   -0.501280   -2.111700
     16          1           0        3.701950   -0.228540   -1.766740
     17          1           0        2.637190    0.956700    1.866350
     18          1           0        2.635310    2.110650    0.550960
     19          1           0        4.938910    0.225060    1.289730
     20          1           0        4.748670    2.347900   -0.908700
     21          1           0        5.188810    0.624740   -1.074940
     22          1           0        6.294090    1.685500   -0.369600
     23          1           0        4.698250    3.264070    1.626010
     24          1           0        4.829630    1.074420    3.764270
     25          1           0        3.432840    2.118710    3.429720
     26          1           0        4.909290    2.818070    4.067090
     27          1           0        7.006490    1.371480    2.325820
     28          1           0        6.916080    3.082270    2.799670
     29          1           0        7.056210    2.665760    1.117100
 ---------------------------------------------------------------------
                    Distance matrix (angstroms):
                    1          2          3          4          5
     1  C    0.000000
     2  C    1.535422   0.000000
     3  C    2.457124   1.527487   0.000000
     4  C    2.520970   1.550281   2.597430   0.000000
     5  C    3.966834   2.657251   3.275125   1.558377   0.000000
     6  C    4.612607   3.201110   3.063813   2.565207   1.535627
     7  C    5.091540   4.016439   4.724343   2.585672   1.565668
     8  C    5.289903   4.498980   5.571081   3.078072   2.586279
     9  C    6.460046   5.222690   5.727628   3.953820   2.569280
    10  H    1.096534   2.175170   2.656058   3.482558   4.808551
    11  H    1.094946   2.180419   2.727428   2.782532   4.282989
    12  H    1.093947   2.189569   3.434261   2.774184   4.227331
    13  H    2.144416   1.095398   2.148336   2.161849   2.874593
    14  H    2.858898   2.177274   1.093442   2.758436   3.443487
    15  H    2.571716   2.179353   1.094193   3.528180   4.322900
    16  H    3.404446   2.181109   1.088498   3.030075   3.186903
    17  H    2.642453   2.125746   3.486799   1.098813   2.167358
    18  H    2.751427   2.181692   2.863871   1.095968   2.184367
    19  H    4.227612   2.859997   3.591462   2.160239   1.095596
    20  H    4.622479   3.416529   3.072977   2.746884   2.183732
    21  H    4.509522   3.031667   2.569806   2.941412   2.183647
    22  H    5.680445   4.241210   4.074918   3.531533   2.210318
    23  H    5.221543   4.301715   4.864677   2.815035   2.176617
    24  H    5.472839   4.620999   5.773491   3.422806   2.835798
    25  H    4.669625   4.172615   5.383100   2.786665   2.889954
    26  H    6.288828   5.554603   6.579158   4.086212   3.533767
    27  H    6.646398   5.339134   5.901373   4.248568   2.796478
    28  H    7.272394   6.139337   6.714394   4.764333   3.526517
    29  H    6.785936   5.469213   5.682479   4.317891   2.880347
                    6          7          8          9         10
     6  C    0.000000
     7  C    2.521762   0.000000
     8  C    3.910146   1.533504   0.000000
     9  C    2.957945   1.539147   2.477873   0.000000
    10  H    5.296323   6.058451   6.295073   7.355534   0.000000
    11  H    4.788359   5.249341   5.530215   6.676872   1.769728
    12  H    5.170076   5.154938   5.028571   6.569428   1.767858
    13  H    3.539314   4.283832   4.623925   5.332005   2.489292
    14  H    3.018569   4.693771   5.665293   5.726665   3.210743
    15  H    4.118587   5.788295   6.548641   6.798586   2.302858
    16  H    2.661433   4.700244   5.692282   5.441448   3.553679
    17  H    3.494899   2.764039   2.656858   4.198448   3.653414
    18  H    2.833371   2.811327   3.404202   4.241326   3.765170
    19  H    2.149171   2.172182   2.810199   2.798644   4.944555
    20  H    1.092507   2.891431   4.308042   3.491261   5.337317
    21  H    1.086119   3.467061   4.728536   3.839506   4.990889
    22  H    1.089280   2.709136   4.166087   2.531473   6.354386
    23  H    2.758826   1.096183   2.141411   2.148522   6.234267
    24  H    4.226005   2.180884   1.093940   2.766971   6.385736
    25  H    4.293969   2.194347   1.093058   3.454567   5.712193
    26  H    4.691783   2.173115   1.096479   2.665786   7.320364
    27  H    3.278356   2.181901   2.784012   1.094341   7.462695
    28  H    3.971850   2.186413   2.669702   1.094081   8.223094
    29  H    2.665815   2.203281   3.453798   1.092944   7.629308
                   11         12         13         14         15
    11  H    0.000000
    12  H    1.776150   0.000000
    13  H    3.064480   2.490690   0.000000
    14  H    2.697794   3.861664   3.057739   0.000000
    15  H    2.876583   3.603175   2.590260   1.773938   0.000000
    16  H    3.787573   4.283725   2.404765   1.784119   1.719281
    17  H    3.012262   2.434597   2.450426   3.741741   4.278714
    18  H    2.561240   3.100496   3.070358   2.598275   3.777102
    19  H    4.782912   4.380927   2.642335   4.045083   4.527890
    20  H    4.545470   5.273727   4.037957   2.638282   4.111288
    21  H    4.813461   5.181207   3.207037   2.766961   3.501240
    22  H    5.871622   6.191103   4.452089   4.025862   5.090716
    23  H    5.147752   5.358190   4.808863   4.587440   5.934254
    24  H    5.910491   5.132252   4.483402   6.061536   6.692733
    25  H    4.838097   4.285409   4.409183   5.448824   6.285863
    26  H    6.440279   5.992924   5.718474   6.582422   7.578203
    27  H    7.029509   6.706629   5.222344   6.091710   6.918542
    28  H    7.423702   7.293824   6.284559   6.644427   7.793645
    29  H    6.930703   7.057359   5.658414   5.574595   6.754188
                   16         17         18         19         20
    16  H    0.000000
    17  H    3.967096   0.000000
    18  H    3.461396   1.749816   0.000000
    19  H    3.328338   2.483083   3.067214   0.000000
    20  H    2.910309   3.754289   2.579377   3.061982   0.000000
    21  H    1.848628   3.907960   3.372216   2.411194   1.786236
    22  H    3.512085   4.347820   3.796690   2.592831   1.765708
    23  H    4.970080   3.103174   2.596504   3.067015   2.695675
    24  H    5.793224   2.902198   4.026683   2.618531   4.844064
    25  H    5.708345   2.104151   2.987202   3.230126   4.539364
    26  H    6.691269   3.670203   4.246716   3.799777   5.000534
    27  H    5.498099   4.412928   4.775324   2.581211   4.063652
    28  H    6.491856   4.868063   4.932113   3.788505   4.357634
    29  H    5.286262   4.796874   4.491438   3.235703   3.087012
                   21         22         23         24         25
    21  H    0.000000
    22  H    1.686523   0.000000
    23  H    3.808129   3.003506   0.000000
    24  H    4.873313   4.427973   3.063329   0.000000
    25  H    5.060369   4.775904   2.483240   1.775806   0.000000
    26  H    5.597258   4.783786   2.490447   1.771542   1.753639
    27  H    3.927690   2.805604   3.065877   2.626043   3.814174
    28  H    4.902603   3.518822   2.515810   3.052079   3.668565
    29  H    3.529587   1.937011   2.485345   3.807562   4.333161
                   26         27         28         29
    26  H    0.000000
    27  H    3.085918   0.000000
    28  H    2.388171   1.777501   0.000000
    29  H    3.651699   1.771620   1.739011   0.000000
 Stoichiometry    C9H20
 Framework group  C1[X(C9H20)]
 Deg. of freedom    81
 Full point group                 C1      NOp   1
 Largest Abelian subgroup         C1      NOp   1
 Largest concise Abelian subgroup C1      NOp   1
                         Standard orientation:                         
 ---------------------------------------------------------------------
 Center     Atomic      Atomic             Coordinates (Angstroms)
 Number     Number       Type             X           Y           Z
 ---------------------------------------------------------------------
      1          6           0       -3.059545   -1.222489    0.097267
      2          6           0       -2.020742   -0.195927   -0.376634
      3          6           0       -2.557180    1.181133    0.009576
      4          6           0       -0.632524   -0.550944    0.215131
      5          6           0        0.586642    0.300703   -0.250563
      6          6           0        0.444978    1.776107    0.151015
      7          6           0        1.933434   -0.252021    0.325598
      8          6           0        2.205329   -1.708339   -0.070439
      9          6           0        3.137551    0.586457   -0.139193
     10          1           0       -4.043724   -0.993808   -0.328742
     11          1           0       -3.156238   -1.204618    1.187789
     12          1           0       -2.793314   -2.237924   -0.210523
     13          1           0       -1.956646   -0.257710   -1.468408
     14          1           0       -2.402359    1.383156    1.072982
     15          1           0       -3.626501    1.267592   -0.205679
     16          1           0       -2.105261    1.973640   -0.584166
     17          1           0       -0.449106   -1.594973   -0.074264
     18          1           0       -0.682978   -0.550394    1.309937
     19          1           0        0.634724    0.243447   -1.343604
     20          1           0        0.185970    1.876055    1.207659
     21          1           0       -0.287895    2.290156   -0.464050
     22          1           0        1.341132    2.366969   -0.034247
     23          1           0        1.887920   -0.203618    1.419766
     24          1           0        2.233528   -1.822010   -1.158091
     25          1           0        1.454765   -2.393514    0.332009
     26          1           0        3.171920   -2.037678    0.328943
     27          1           0        3.185220    0.624405   -1.231836
     28          1           0        4.076813    0.170521    0.237368
     29          1           0        3.104374    1.612228    0.236600
 ---------------------------------------------------------------------
 Rotational constants (GHZ):           2.6995330           0.8209875           0.6638375
 Standard basis: 6-31G(2df,p) (6D, 7F)
 There are   379 symmetry adapted cartesian basis functions of A   symmetry.
 There are   352 symmetry adapted basis functions of A   symmetry.
   352 basis functions,   536 primitive gaussians,   379 cartesian basis functions
    37 alpha electrons       37 beta electrons
       nuclear repulsion energy       494.2039273954 Hartrees.
 NAtoms=   29 NActive=   29 NUniq=   29 SFac= 1.00D+00 NAtFMM=   60 NAOKFM=F Big=F
 Integral buffers will be    131072 words long.
 Raffenetti 2 integral format.
 Two-electron integral symmetry is turned on.
 One-electron integrals computed using PRISM.
 PrsmSu:  requested number of processors reduced to:  13 ShMem   1 Linda.
 NBasis=   352 RedAO= T EigKep=  5.97D-04  NBF=   352
 NBsUse=   352 1.00D-06 EigRej= -1.00D+00 NBFU=   352
 ExpMin= 1.61D-01 ExpMax= 3.05D+03 ExpMxC= 4.57D+02 IAcc=3 IRadAn=         5 AccDes= 0.00D+00
 Harris functional with IExCor=  402 and IRadAn=       5 diagonalized for initial guess.
 HarFok:  IExCor=  402 AccDes= 0.00D+00 IRadAn=         5 IDoV= 1 UseB2=F ITyADJ=14
 ICtDFT=  3500011 ScaDFX=  1.000000  1.000000  1.000000  1.000000
 FoFCou: FMM=F IPFlag=           0 FMFlag=      100000 FMFlg1=           0
         NFxFlg=           0 DoJE=T BraDBF=F KetDBF=T FulRan=T
         wScrn=  0.000000 ICntrl=       500 IOpCl=  0 I1Cent=   200000004 NGrid=           0
         NMat0=    1 NMatS0=      1 NMatT0=    0 NMatD0=    1 NMtDS0=    0 NMtDT0=    0
 Petite list used in FoFCou.
 Requested convergence on RMS density matrix=1.00D-08 within 128 cycles.
 Requested convergence on MAX density matrix=1.00D-06.
 Requested convergence on             energy=1.00D-06.
 No special actions if energy rises.
 Integral accuracy reduced to 1.0D-05 until final iterations.
 Initial convergence to 1.0D-05 achieved.  Increase integral accuracy.
 SCF Done:  E(RB3LYP) =  -355.039928654     A.U. after   12 cycles
            NFock= 12  Conv=0.23D-08     -V/T= 2.0091

 **********************************************************************

            Population analysis using the SCF density.

 **********************************************************************

 Orbital symmetries:
       Occupied  (A) (A) (A) (A) (A) (A) (A) (A) (A) (A) (A) (A)
                 (A) (A) (A) (A) (A) (A) (A) (A) (A) (A) (A) (A)
                 (A) (A) (A) (A) (A) (A) (A) (A) (A) (A) (A) (A)
                 (A)
       Virtual   (A) (A) (A) (A) (A) (A) (A) (A) (A) (A) (A) (A)
                 (A) (A) (A) (A) (A) (A) (A) (A) (A) (A) (A) (A)
                 (A) (A) (A) (A) (A) (A) (A) (A) (A) (A) (A) (A)
                 (A) (A) (A) (A) (A) (A) (A) (A) (A) (A) (A) (A)
                 (A) (A) (A) (A) (A) (A) (A) (A) (A) (A) (A) (A)
                 (A) (A) (A) (A) (A) (A) (A) (A) (A) (A) (A) (A)
                 (A) (A) (A) (A) (A) (A) (A) (A) (A) (A) (A) (A)
                 (A) (A) (A) (A) (A) (A) (A) (A) (A) (A) (A) (A)
                 (A) (A) (A) (A) (A) (A) (A) (A) (A) (A) (A) (A)
                 (A) (A) (A) (A) (A) (A) (A) (A) (A) (A) (A) (A)
                 (A) (A) (A) (A) (A) (A) (A) (A) (A) (A) (A) (A)
                 (A) (A) (A) (A) (A) (A) (A) (A) (A) (A) (A) (A)
                 (A) (A) (A) (A) (A) (A) (A) (A) (A) (A) (A) (A)
                 (A) (A) (A) (A) (A) (A) (A) (A) (A) (A) (A) (A)
                 (A) (A) (A) (A) (A) (A) (A) (A) (A) (A) (A) (A)
                 (A) (A) (A) (A) (A) (A) (A) (A) (A) (A) (A) (A)
                 (A) (A) (A) (A) (A) (A) (A) (A) (A) (A) (A) (A)
                 (A) (A) (A) (A) (A) (A) (A) (A) (A) (A) (A) (A)
                 (A) (A) (A) (A) (A) (A) (A) (A) (A) (A) (A) (A)
                 (A) (A) (A) (A) (A) (A) (A) (A) (A) (A) (A) (A)
                 (A) (A) (A) (A) (A) (A) (A) (A) (A) (A) (A) (A)
                 (A) (A) (A) (A) (A) (A) (A) (A) (A) (A) (A) (A)
                 (A) (A) (A) (A) (A) (A) (A) (A) (A) (A) (A) (A)
                 (A) (A) (A) (A) (A) (A) (A) (A) (A) (A) (A) (A)
                 (A) (A) (A) (A) (A) (A) (A) (A) (A) (A) (A) (A)
                 (A) (A) (A) (A) (A) (A) (A) (A) (A) (A) (A) (A)
                 (A) (A) (A)
 The electronic state is 1-A.
 Alpha  occ. eigenvalues --  -10.18091 -10.18073 -10.18035 -10.17123 -10.16543
 Alpha  occ. eigenvalues --  -10.16510 -10.16465 -10.16222 -10.15995  -0.81847
 Alpha  occ. eigenvalues --   -0.78776  -0.73161  -0.68760  -0.67347  -0.66017
 Alpha  occ. eigenvalues --   -0.60454  -0.55320  -0.54566  -0.45945  -0.45395
 Alpha  occ. eigenvalues --   -0.45015  -0.42663  -0.41560  -0.40487  -0.39555
 Alpha  occ. eigenvalues --   -0.38200  -0.37571  -0.37163  -0.35589  -0.34433
 Alpha  occ. eigenvalues --   -0.34002  -0.33596  -0.32047  -0.31769  -0.31347
 Alpha  occ. eigenvalues --   -0.29815  -0.28487
 Alpha virt. eigenvalues --    0.08119   0.10149   0.10686   0.11878   0.13495
 Alpha virt. eigenvalues --    0.13660   0.14794   0.14921   0.15233   0.15982
 Alpha virt. eigenvalues --    0.16983   0.17674   0.18244   0.19240   0.19604
 Alpha virt. eigenvalues --    0.19762   0.20886   0.21713   0.22926   0.23132
 Alpha virt. eigenvalues --    0.23781   0.24927   0.26118   0.26657   0.28136
 Alpha virt. eigenvalues --    0.28304   0.29130   0.31676   0.45128   0.45456
 Alpha virt. eigenvalues --    0.45802   0.46979   0.47306   0.48323   0.48994
 Alpha virt. eigenvalues --    0.50501   0.53828   0.55021   0.55780   0.57051
 Alpha virt. eigenvalues --    0.58722   0.59776   0.61895   0.63484   0.64437
 Alpha virt. eigenvalues --    0.65001   0.65778   0.67517   0.69816   0.70401
 Alpha virt. eigenvalues --    0.71141   0.71807   0.72954   0.73457   0.74068
 Alpha virt. eigenvalues --    0.74116   0.75040   0.75417   0.76263   0.76528
 Alpha virt. eigenvalues --    0.77157   0.78390   0.79096   0.79866   0.80159
 Alpha virt. eigenvalues --    0.81998   0.82658   0.83347   0.84330   0.86318
 Alpha virt. eigenvalues --    0.86972   0.87686   0.89629   0.90065   0.90884
 Alpha virt. eigenvalues --    0.92839   0.94535   0.99089   1.03976   1.05477
 Alpha virt. eigenvalues --    1.07237   1.10099   1.12230   1.14144   1.16348
 Alpha virt. eigenvalues --    1.19362   1.20246   1.23925   1.26449   1.29351
 Alpha virt. eigenvalues --    1.30528   1.33865   1.35112   1.37818   1.39611
 Alpha virt. eigenvalues --    1.40353   1.41957   1.43913   1.46032   1.48315
 Alpha virt. eigenvalues --    1.49753   1.50056   1.51481   1.52177   1.53353
 Alpha virt. eigenvalues --    1.56132   1.57171   1.57689   1.60605   1.61919
 Alpha virt. eigenvalues --    1.65555   1.69002   1.71706   1.72944   1.74997
 Alpha virt. eigenvalues --    1.78661   1.80934   1.81766   1.84212   1.85896
 Alpha virt. eigenvalues --    1.87224   1.87493   1.88381   1.91592   1.92307
 Alpha virt. eigenvalues --    1.94284   1.96512   1.98062   1.98366   1.99037
 Alpha virt. eigenvalues --    1.99779   2.00413   2.02256   2.05500   2.20960
 Alpha virt. eigenvalues --    2.21871   2.23213   2.24461   2.25529   2.27365
 Alpha virt. eigenvalues --    2.28879   2.31410   2.31816   2.33496   2.35912
 Alpha virt. eigenvalues --    2.38803   2.40896   2.42665   2.44844   2.46215
 Alpha virt. eigenvalues --    2.47440   2.49078   2.51570   2.55641   2.59125
 Alpha virt. eigenvalues --    2.60263   2.63857   2.66040   2.70921   2.73669
 Alpha virt. eigenvalues --    2.75575   2.76738   2.77235   2.78065   2.80854
 Alpha virt. eigenvalues --    2.82616   2.82916   2.83196   2.84190   2.85617
 Alpha virt. eigenvalues --    2.86656   2.87942   2.89537   2.90122   2.91509
 Alpha virt. eigenvalues --    2.92227   2.93884   2.94226   2.94628   2.96252
 Alpha virt. eigenvalues --    2.96833   2.98797   2.99633   3.00250   3.01360
 Alpha virt. eigenvalues --    3.02548   3.02815   3.05512   3.07929   3.11598
 Alpha virt. eigenvalues --    3.13823   3.14712   3.16185   3.18750   3.20631
 Alpha virt. eigenvalues --    3.21435   3.22514   3.25080   3.33569   3.35610
 Alpha virt. eigenvalues --    3.36620   3.38792   3.40205   3.41478   3.43310
 Alpha virt. eigenvalues --    3.44231   3.46630   3.49195   3.50068   3.51952
 Alpha virt. eigenvalues --    3.53131   3.56000   3.59630   3.60416   3.61083
 Alpha virt. eigenvalues --    3.63392   3.63742   3.65356   3.67042   3.67735
 Alpha virt. eigenvalues --    3.69371   3.70514   3.72229   3.74531   3.77041
 Alpha virt. eigenvalues --    3.78610   3.80657   3.84941   3.86482   3.87809
 Alpha virt. eigenvalues --    3.89344   3.91847   3.97200   3.97493   4.01116
 Alpha virt. eigenvalues --    4.02929   4.03806   4.07141   4.13373   4.15611
 Alpha virt. eigenvalues --    4.17080   4.26138   4.32187   4.36301   4.38332
 Alpha virt. eigenvalues --    4.40095   4.43004   4.43785   4.45070   4.47436
 Alpha virt. eigenvalues --    4.48682   4.49599   4.51951   4.52742   4.53958
 Alpha virt. eigenvalues --    4.55729   4.57303   4.57927   4.58242   4.61136
 Alpha virt. eigenvalues --    4.61858   4.63573   4.64688   4.67156   4.67925
 Alpha virt. eigenvalues --    4.69763   4.71285   4.73862   4.74681   4.75561
 Alpha virt. eigenvalues --    4.76285   4.77409   4.77945   4.79253   4.80567
 Alpha virt. eigenvalues --    4.83047   4.83709   4.85625   4.86841   4.87675
 Alpha virt. eigenvalues --    4.88429   4.89343   4.91679   4.92682   4.94356
 Alpha virt. eigenvalues --    4.96462   4.97456   5.00338   5.02572   5.07956
 Alpha virt. eigenvalues --    5.23800   5.25673   5.32122   5.33711   5.35544
 Alpha virt. eigenvalues --    5.39525   5.41560   5.44256   5.48545   5.49674
 Alpha virt. eigenvalues --    5.53337   5.56253   5.61852   5.75906   6.11483
 Alpha virt. eigenvalues --    6.24101  11.22774  11.44591  11.75900  11.85524
 Alpha virt. eigenvalues --   11.91671  12.03979  12.45007  12.66616  12.80143
          Condensed to atoms (all electrons):
               1          2          3          4          5          6
     1  C    5.002990   0.404591  -0.049446  -0.035170   0.001784   0.000167
     2  C    0.404591   4.584597   0.415279   0.426959  -0.017429  -0.003777
     3  C   -0.049446   0.415279   4.993338  -0.030844  -0.003593  -0.005327
     4  C   -0.035170   0.426959  -0.030844   4.883668   0.422616  -0.032655
     5  C    0.001784  -0.017429  -0.003593   0.422616   4.632547   0.398039
     6  C    0.000167  -0.003777  -0.005327  -0.032655   0.398039   5.030163
     7  C   -0.000131   0.001680   0.000105  -0.028010   0.425679  -0.035852
     8  C    0.000007   0.000398  -0.000005  -0.003753  -0.027675   0.003376
     9  C    0.000001  -0.000098  -0.000000   0.002171  -0.027117  -0.008044
    10  H    0.369111  -0.021092  -0.005294   0.003465  -0.000117   0.000001
    11  H    0.374653  -0.027433  -0.004843  -0.006519   0.000175  -0.000007
    12  H    0.366938  -0.024087   0.005515  -0.003438   0.000132   0.000004
    13  H   -0.039924   0.364323  -0.048393  -0.044849  -0.003614  -0.000337
    14  H   -0.002104  -0.024050   0.373656  -0.008950  -0.000777   0.000256
    15  H   -0.011866  -0.026709   0.367003   0.003973   0.000111   0.000299
    16  H    0.005151  -0.022463   0.371813   0.000517  -0.000094  -0.006167
    17  H   -0.004463  -0.029934   0.005485   0.349672  -0.026059   0.005541
    18  H   -0.003871  -0.032036  -0.008675   0.350477  -0.029819  -0.008055
    19  H    0.000042  -0.004683  -0.000451  -0.042949   0.348200  -0.047463
    20  H   -0.000035  -0.000937   0.000271  -0.007283  -0.023049   0.372786
    21  H    0.000002  -0.000392  -0.004416  -0.000577  -0.018949   0.369500
    22  H    0.000002   0.000161   0.000172   0.004025  -0.024434   0.368049
    23  H    0.000000   0.000095  -0.000012  -0.006248  -0.041342  -0.004627
    24  H   -0.000000  -0.000031   0.000000  -0.000593  -0.006909   0.000131
    25  H    0.000007  -0.000106  -0.000001  -0.001116  -0.003418   0.000042
    26  H   -0.000000  -0.000005   0.000000   0.000184   0.003467  -0.000173
    27  H    0.000000   0.000002  -0.000000   0.000161  -0.006670  -0.000310
    28  H   -0.000000   0.000001   0.000000  -0.000107   0.003156   0.000442
    29  H    0.000000   0.000001   0.000000   0.000032  -0.003542  -0.003255
               7          8          9         10         11         12
     1  C   -0.000131   0.000007   0.000001   0.369111   0.374653   0.366938
     2  C    0.001680   0.000398  -0.000098  -0.021092  -0.027433  -0.024087
     3  C    0.000105  -0.000005  -0.000000  -0.005294  -0.004843   0.005515
     4  C   -0.028010  -0.003753   0.002171   0.003465  -0.006519  -0.003438
     5  C    0.425679  -0.027675  -0.027117  -0.000117   0.000175   0.000132
     6  C   -0.035852   0.003376  -0.008044   0.000001  -0.000007   0.000004
     7  C    4.607507   0.403253   0.399349   0.000001   0.000002   0.000010
     8  C    0.403253   5.012771  -0.047152   0.000000  -0.000000  -0.000013
     9  C    0.399349  -0.047152   5.022117  -0.000000   0.000000   0.000000
    10  H    0.000001   0.000000  -0.000000   0.609323  -0.033357  -0.031641
    11  H    0.000002  -0.000000   0.000000  -0.033357   0.604706  -0.032540
    12  H    0.000010  -0.000013   0.000000  -0.031641  -0.032540   0.614383
    13  H    0.000119  -0.000024   0.000002  -0.002909   0.006209  -0.003168
    14  H   -0.000031  -0.000000   0.000001  -0.000124   0.003601  -0.000134
    15  H    0.000002  -0.000000  -0.000000   0.005865   0.000195   0.000199
    16  H   -0.000016   0.000000  -0.000000   0.000045  -0.000048  -0.000261
    17  H   -0.006032   0.000401   0.000166  -0.000035  -0.000219   0.005353
    18  H   -0.003423  -0.000625   0.000055  -0.000080   0.005090  -0.000239
    19  H   -0.033265  -0.005835  -0.006541   0.000003   0.000010  -0.000003
    20  H   -0.002674   0.000041  -0.000355   0.000001  -0.000001  -0.000000
    21  H    0.003639  -0.000170   0.000449   0.000001  -0.000001  -0.000000
    22  H   -0.010825   0.000283  -0.000489  -0.000000  -0.000000  -0.000000
    23  H    0.358660  -0.045295  -0.045296   0.000000  -0.000000   0.000000
    24  H   -0.025570   0.372379  -0.004677  -0.000000  -0.000000   0.000000
    25  H   -0.021027   0.368995   0.005151  -0.000000   0.000002  -0.000002
    26  H   -0.021734   0.367998  -0.005635   0.000000  -0.000000   0.000000
    27  H   -0.025764  -0.004276   0.371732   0.000000  -0.000000   0.000000
    28  H   -0.021629  -0.005494   0.368331   0.000000   0.000000   0.000000
    29  H   -0.020787   0.005043   0.370543   0.000000  -0.000000  -0.000000
              13         14         15         16         17         18
     1  C   -0.039924  -0.002104  -0.011866   0.005151  -0.004463  -0.003871
     2  C    0.364323  -0.024050  -0.026709  -0.022463  -0.029934  -0.032036
     3  C   -0.048393   0.373656   0.367003   0.371813   0.005485  -0.008675
     4  C   -0.044849  -0.008950   0.003973   0.000517   0.349672   0.350477
     5  C   -0.003614  -0.000777   0.000111  -0.000094  -0.026059  -0.029819
     6  C   -0.000337   0.000256   0.000299  -0.006167   0.005541  -0.008055
     7  C    0.000119  -0.000031   0.000002  -0.000016  -0.006032  -0.003423
     8  C   -0.000024  -0.000000  -0.000000   0.000000   0.000401  -0.000625
     9  C    0.000002   0.000001  -0.000000  -0.000000   0.000166   0.000055
    10  H   -0.002909  -0.000124   0.005865   0.000045  -0.000035  -0.000080
    11  H    0.006209   0.003601   0.000195  -0.000048  -0.000219   0.005090
    12  H   -0.003168  -0.000134   0.000199  -0.000261   0.005353  -0.000239
    13  H    0.697097   0.006263  -0.000313  -0.006227  -0.004237   0.006703
    14  H    0.006263   0.602644  -0.032610  -0.033706  -0.000003   0.005580
    15  H   -0.000313  -0.032610   0.627842  -0.033310  -0.000179  -0.000033
    16  H   -0.006227  -0.033706  -0.033310   0.605617  -0.000156  -0.000076
    17  H   -0.004237  -0.000003  -0.000179  -0.000156   0.650739  -0.040906
    18  H    0.006703   0.005580  -0.000033  -0.000076  -0.040906   0.655231
    19  H    0.004817   0.000095   0.000003   0.000101  -0.003617   0.006750
    20  H    0.000091   0.001266   0.000035   0.000074  -0.000003   0.005671
    21  H    0.000134   0.000063   0.000220   0.004928  -0.000139  -0.000061
    22  H    0.000003   0.000036  -0.000015   0.000220  -0.000175  -0.000035
    23  H    0.000011  -0.000001  -0.000000  -0.000000   0.000064   0.005459
    24  H    0.000009   0.000000  -0.000000  -0.000000   0.001160   0.000096
    25  H    0.000017   0.000000  -0.000000  -0.000000   0.004016   0.000863
    26  H   -0.000000  -0.000000  -0.000000  -0.000000  -0.000203  -0.000040
    27  H   -0.000000  -0.000000  -0.000000   0.000000  -0.000002   0.000012
    28  H    0.000000  -0.000000   0.000000   0.000000  -0.000003   0.000002
    29  H   -0.000000   0.000000   0.000000   0.000001  -0.000001  -0.000003
              19         20         21         22         23         24
     1  C    0.000042  -0.000035   0.000002   0.000002   0.000000  -0.000000
     2  C   -0.004683  -0.000937  -0.000392   0.000161   0.000095  -0.000031
     3  C   -0.000451   0.000271  -0.004416   0.000172  -0.000012   0.000000
     4  C   -0.042949  -0.007283  -0.000577   0.004025  -0.006248  -0.000593
     5  C    0.348200  -0.023049  -0.018949  -0.024434  -0.041342  -0.006909
     6  C   -0.047463   0.372786   0.369500   0.368049  -0.004627   0.000131
     7  C   -0.033265  -0.002674   0.003639  -0.010825   0.358660  -0.025570
     8  C   -0.005835   0.000041  -0.000170   0.000283  -0.045295   0.372379
     9  C   -0.006541  -0.000355   0.000449  -0.000489  -0.045296  -0.004677
    10  H    0.000003   0.000001   0.000001  -0.000000   0.000000  -0.000000
    11  H    0.000010  -0.000001  -0.000001  -0.000000  -0.000000  -0.000000
    12  H   -0.000003  -0.000000  -0.000000  -0.000000   0.000000   0.000000
    13  H    0.004817   0.000091   0.000134   0.000003   0.000011   0.000009
    14  H    0.000095   0.001266   0.000063   0.000036  -0.000001   0.000000
    15  H    0.000003   0.000035   0.000220  -0.000015  -0.000000  -0.000000
    16  H    0.000101   0.000074   0.004928   0.000220  -0.000000  -0.000000
    17  H   -0.003617  -0.000003  -0.000139  -0.000175   0.000064   0.001160
    18  H    0.006750   0.005671  -0.000061  -0.000035   0.005459   0.000096
    19  H    0.703347   0.006260  -0.005789  -0.000812   0.007297   0.005264
    20  H    0.006260   0.605035  -0.033841  -0.035006   0.004134   0.000008
    21  H   -0.005789  -0.033841   0.606610  -0.034119  -0.000090   0.000001
    22  H   -0.000812  -0.035006  -0.034119   0.620243   0.000182  -0.000003
    23  H    0.007297   0.004134  -0.000090   0.000182   0.698888   0.006344
    24  H    0.005264   0.000008   0.000001  -0.000003   0.006344   0.606576
    25  H    0.000033  -0.000004   0.000000  -0.000003  -0.003255  -0.033911
    26  H   -0.000086   0.000003   0.000003  -0.000010  -0.002735  -0.033057
    27  H    0.005602   0.000081  -0.000091   0.001392   0.006236   0.004474
    28  H   -0.000081  -0.000036  -0.000003  -0.000272  -0.002104  -0.000069
    29  H    0.000037   0.000768  -0.000201   0.004070  -0.003470  -0.000046
              25         26         27         28         29
     1  C    0.000007  -0.000000   0.000000  -0.000000   0.000000
     2  C   -0.000106  -0.000005   0.000002   0.000001   0.000001
     3  C   -0.000001   0.000000  -0.000000   0.000000   0.000000
     4  C   -0.001116   0.000184   0.000161  -0.000107   0.000032
     5  C   -0.003418   0.003467  -0.006670   0.003156  -0.003542
     6  C    0.000042  -0.000173  -0.000310   0.000442  -0.003255
     7  C   -0.021027  -0.021734  -0.025764  -0.021629  -0.020787
     8  C    0.368995   0.367998  -0.004276  -0.005494   0.005043
     9  C    0.005151  -0.005635   0.371732   0.368331   0.370543
    10  H   -0.000000   0.000000   0.000000   0.000000   0.000000
    11  H    0.000002  -0.000000  -0.000000   0.000000  -0.000000
    12  H   -0.000002   0.000000   0.000000   0.000000  -0.000000
    13  H    0.000017  -0.000000  -0.000000   0.000000  -0.000000
    14  H    0.000000  -0.000000  -0.000000  -0.000000   0.000000
    15  H   -0.000000  -0.000000  -0.000000   0.000000   0.000000
    16  H   -0.000000  -0.000000   0.000000   0.000000   0.000001
    17  H    0.004016  -0.000203  -0.000002  -0.000003  -0.000001
    18  H    0.000863  -0.000040   0.000012   0.000002  -0.000003
    19  H    0.000033  -0.000086   0.005602  -0.000081   0.000037
    20  H   -0.000004   0.000003   0.000081  -0.000036   0.000768
    21  H    0.000000   0.000003  -0.000091  -0.000003  -0.000201
    22  H   -0.000003  -0.000010   0.001392  -0.000272   0.004070
    23  H   -0.003255  -0.002735   0.006236  -0.002104  -0.003470
    24  H   -0.033911  -0.033057   0.004474  -0.000069  -0.000046
    25  H    0.603284  -0.031360  -0.000060   0.000015  -0.000228
    26  H   -0.031360   0.612724  -0.000133   0.004796  -0.000003
    27  H   -0.000060  -0.000133   0.605473  -0.032099  -0.034625
    28  H    0.000015   0.004796  -0.032099   0.611698  -0.032076
    29  H   -0.000228  -0.000003  -0.034625  -0.032076   0.603238
 Mulliken charges:
               1
     1  C   -0.378439
     2  C    0.037173
     3  C   -0.371338
     4  C   -0.194855
     5  C    0.028698
     6  C   -0.392748
     7  C    0.056763
     8  C   -0.394626
     9  C   -0.394663
    10  H    0.106834
    11  H    0.110325
    12  H    0.102990
    13  H    0.068201
    14  H    0.109029
    15  H    0.099290
    16  H    0.114059
    17  H    0.093768
    18  H    0.085987
    19  H    0.063714
    20  H    0.106699
    21  H    0.113288
    22  H    0.107360
    23  H    0.067106
    24  H    0.108424
    25  H    0.112065
    26  H    0.105998
    27  H    0.108864
    28  H    0.105533
    29  H    0.114506
 Sum of Mulliken charges =  -0.00000
 Mulliken charges with hydrogens summed into heavy atoms:
               1
     1  C   -0.058290
     2  C    0.105374
     3  C   -0.048961
     4  C   -0.015101
     5  C    0.092412
     6  C   -0.065402
     7  C    0.123868
     8  C   -0.068140
     9  C   -0.065760
 Electronic spatial extent (au):  <R**2>=           1862.7894
 Charge=             -0.0000 electrons
 Dipole moment (field-independent basis, Debye):
    X=              0.0256    Y=              0.0154    Z=             -0.0715  Tot=              0.0775
 Quadrupole moment (field-independent basis, Debye-Ang):
   XX=            -62.4782   YY=            -62.4127   ZZ=            -60.3498
   XY=             -0.1031   XZ=              0.5821   YZ=             -0.1878
 Traceless Quadrupole moment (field-independent basis, Debye-Ang):
   XX=             -0.7313   YY=             -0.6658   ZZ=              1.3971
   XY=             -0.1031   XZ=              0.5821   YZ=             -0.1878
 Octapole moment (field-independent basis, Debye-Ang**2):
  XXX=              0.3975  YYY=              0.3587  ZZZ=              0.1680  XYY=              0.8395
  XXY=              0.6522  XXZ=              0.0610  XZZ=             -0.2615  YZZ=              0.4578
  YYZ=             -1.0053  XYZ=             -0.1306
 Hexadecapole moment (field-independent basis, Debye-Ang**3):
 XXXX=          -1852.1736 YYYY=           -602.4366 ZZZZ=           -143.1799 XXXY=            -12.8389
 XXXZ=             17.4674 YYYX=              5.9655 YYYZ=             -2.7610 ZZZX=             -3.6914
 ZZZY=              1.0804 XXYY=           -417.6026 XXZZ=           -329.7997 YYZZ=           -123.8067
 XXYZ=             -1.4389 YYXZ=              3.9705 ZZXY=             -1.1686
 N-N= 4.942039273954D+02 E-N=-1.808202974444D+03  KE= 3.518208080985D+02
 PrsmSu:  requested number of processors reduced to:  13 ShMem   1 Linda.
 Calling FoFJK, ICntrl=      2127 FMM=F ISym2X=0 I1Cent= 0 IOpClX= 0 NMat=1 NMatS=1 NMatT=0.
 ***** Axes restored to original set *****
 -------------------------------------------------------------------
 Center     Atomic                   Forces (Hartrees/Bohr)
 Number     Number              X              Y              Z
 -------------------------------------------------------------------
      1        6          -0.000941430   -0.004373098    0.005194996
      2        6          -0.006596053    0.006938691   -0.001550230
      3        6           0.005108754   -0.007850289   -0.006107439
      4        6           0.006377584   -0.008692204    0.003974559
      5        6          -0.002924928    0.012101694   -0.001026488
      6        6           0.006750251   -0.006930528   -0.002729073
      7        6           0.003064211   -0.008246020    0.004320475
      8        6          -0.004846015    0.004451266    0.000691640
      9        6           0.001101233    0.005381347   -0.004312862
     10        1          -0.000314222    0.001032009    0.000952574
     11        1          -0.000534263    0.000706382    0.000263376
     12        1          -0.001449119    0.001441923    0.001136347
     13        1           0.001281420   -0.001457847    0.000873489
     14        1           0.000884521   -0.000029129   -0.001858386
     15        1          -0.004728878    0.001359647    0.001215994
     16        1           0.001666730    0.003953412   -0.001975930
     17        1           0.001042730    0.001627010   -0.001508388
     18        1          -0.000108940    0.001624268   -0.002948716
     19        1           0.001592468   -0.001576037    0.002387518
     20        1          -0.000545193   -0.000121366   -0.002482032
     21        1          -0.005867449    0.000833559   -0.003459160
     22        1           0.000673678    0.004640914    0.005059465
     23        1          -0.001325905    0.001073873   -0.002335653
     24        1          -0.000076668   -0.001339769    0.000828547
     25        1          -0.000239788   -0.001631145    0.000773685
     26        1           0.000656159   -0.001412363   -0.000082854
     27        1           0.001214433   -0.000479353    0.000989673
     28        1          -0.001246869   -0.001486288    0.003067164
     29        1           0.000331549   -0.001540558    0.000647707
 -------------------------------------------------------------------
 Cartesian Forces:  Max     0.012101694 RMS     0.003512807

 GradGradGradGradGradGradGradGradGradGradGradGradGradGradGradGradGradGrad
 Berny optimization.
 FormGI is forming the generalized inverse of G from B-inverse, IUseBI=4.
 Internal  Forces:  Max     0.021991121 RMS     0.003320359
 Search for a local minimum.
 Step number   1 out of a maximum of  164
 All quantities printed in internal units (Hartrees-Bohrs-Radians)
 Mixed Optimization -- RFO/linear search
 Second derivative matrix not updated -- first step.
 ITU=  0
     Eigenvalues ---    0.00230   0.00230   0.00230   0.00248   0.00295
     Eigenvalues ---    0.00297   0.00323   0.00402   0.02949   0.03483
     Eigenvalues ---    0.03502   0.03575   0.04394   0.04433   0.04574
     Eigenvalues ---    0.04657   0.04882   0.05060   0.05119   0.05186
     Eigenvalues ---    0.05288   0.05325   0.05334   0.05380   0.05401
     Eigenvalues ---    0.05418   0.05565   0.05567   0.05573   0.09092
     Eigenvalues ---    0.12773   0.15783   0.16000   0.16000   0.16000
     Eigenvalues ---    0.16000   0.16000   0.16000   0.16000   0.16000
     Eigenvalues ---    0.16000   0.16000   0.16000   0.16000   0.16000
     Eigenvalues ---    0.16000   0.16000   0.16163   0.16400   0.16993
     Eigenvalues ---    0.17153   0.17240   0.21984   0.26361   0.26951
     Eigenvalues ---    0.27627   0.28595   0.28910   0.28928   0.29102
     Eigenvalues ---    0.29657   0.33814   0.34068   0.34074   0.34108
     Eigenvalues ---    0.34132   0.34174   0.34196   0.34247   0.34316
     Eigenvalues ---    0.34333   0.34345   0.34360   0.34361   0.34418
     Eigenvalues ---    0.34462   0.34475   0.34525   0.34896   0.34987
     Eigenvalues ---    0.35265
 RFO step:  Lambda=-1.32074593D-02 EMin= 2.30000000D-03
 Linear search not attempted -- first point.
 Iteration  1 RMS(Cart)=  0.19809477 RMS(Int)=  0.00885254
 Iteration  2 RMS(Cart)=  0.02533705 RMS(Int)=  0.00055432
 Iteration  3 RMS(Cart)=  0.00025514 RMS(Int)=  0.00054696
 Iteration  4 RMS(Cart)=  0.00000017 RMS(Int)=  0.00054696
 Variable       Old X    -DE/DX   Delta X   Delta X   Delta X     New X
                                 (Linear)    (Quad)   (Total)
    R1        2.90153   0.00394   0.00000   0.01303   0.01303   2.91455
    R2        2.07215  -0.00115   0.00000  -0.00324  -0.00324   2.06891
    R3        2.06915   0.00074   0.00000   0.00207   0.00207   2.07122
    R4        2.06726   0.00127   0.00000   0.00357   0.00357   2.07083
    R5        2.88653   0.00891   0.00000   0.02875   0.02875   2.91529
    R6        2.92961   0.00206   0.00000   0.00713   0.00713   2.93673
    R7        2.07000   0.00200   0.00000   0.00564   0.00564   2.07564
    R8        2.06631   0.00047   0.00000   0.00132   0.00132   2.06763
    R9        2.06773   0.00143   0.00000   0.00401   0.00401   2.07174
   R10        2.05696   0.00065   0.00000   0.00178   0.00178   2.05875
   R11        2.94491  -0.00139   0.00000  -0.00492  -0.00492   2.93998
   R12        2.07645  -0.00202   0.00000  -0.00575  -0.00575   2.07070
   R13        2.07108   0.00230   0.00000   0.00650   0.00650   2.07758
   R14        2.90191   0.00333   0.00000   0.01102   0.01102   2.91293
   R15        2.95868  -0.00104   0.00000  -0.00376  -0.00376   2.95492
   R16        2.07038   0.00268   0.00000   0.00755   0.00755   2.07793
   R17        2.06454   0.00125   0.00000   0.00348   0.00348   2.06801
   R18        2.05247   0.00160   0.00000   0.00437   0.00437   2.05684
   R19        2.05844   0.00173   0.00000   0.00478   0.00478   2.06322
   R20        2.89790   0.00361   0.00000   0.01186   0.01186   2.90976
   R21        2.90857   0.00150   0.00000   0.00500   0.00500   2.91357
   R22        2.07149   0.00212   0.00000   0.00598   0.00598   2.07746
   R23        2.06725   0.00146   0.00000   0.00411   0.00411   2.07135
   R24        2.06558   0.00017   0.00000   0.00049   0.00049   2.06607
   R25        2.07205  -0.00081   0.00000  -0.00228  -0.00228   2.06977
   R26        2.06800   0.00113   0.00000   0.00317   0.00317   2.07118
   R27        2.06751   0.00072   0.00000   0.00203   0.00203   2.06954
   R28        2.06537  -0.00086   0.00000  -0.00241  -0.00241   2.06295
    A1        1.92612   0.00121   0.00000   0.00972   0.00967   1.93579
    A2        1.93503  -0.00027   0.00000  -0.00412  -0.00411   1.93092
    A3        1.94885   0.00138   0.00000   0.00780   0.00775   1.95660
    A4        1.87997  -0.00044   0.00000  -0.00222  -0.00221   1.87776
    A5        1.87832  -0.00068   0.00000   0.00089   0.00079   1.87912
    A6        1.89321  -0.00131   0.00000  -0.01259  -0.01258   1.88064
    A7        1.86200   0.00284   0.00000   0.02485   0.02540   1.88740
    A8        1.91231  -0.00762   0.00000  -0.04047  -0.04180   1.87051
    A9        1.88547   0.00071   0.00000  -0.02068  -0.02152   1.86394
   A10        2.00911   0.00689   0.00000   0.05349   0.05388   2.06299
   A11        1.90012  -0.00250   0.00000  -0.00256  -0.00222   1.89790
   A12        1.89140  -0.00056   0.00000  -0.01827  -0.01944   1.87196
   A13        1.94200   0.00176   0.00000   0.00222   0.00205   1.94405
   A14        1.94411  -0.00458   0.00000  -0.02549  -0.02560   1.91851
   A15        1.95266   0.00429   0.00000   0.03161   0.03163   1.98429
   A16        1.89135  -0.00036   0.00000  -0.01490  -0.01518   1.87617
   A17        1.91472  -0.00368   0.00000  -0.02298  -0.02301   1.89171
   A18        1.81409   0.00240   0.00000   0.02937   0.02945   1.84354
   A19        2.05029   0.02199   0.00000   0.10077   0.10015   2.15044
   A20        1.84058  -0.00642   0.00000  -0.03954  -0.03772   1.80286
   A21        1.91768  -0.00705   0.00000  -0.01058  -0.01307   1.90461
   A22        1.88594  -0.00792   0.00000  -0.05379  -0.05230   1.83364
   A23        1.91161  -0.00566   0.00000  -0.00281  -0.00513   1.90648
   A24        1.84549   0.00349   0.00000  -0.00686  -0.00776   1.83773
   A25        1.95492   0.00503   0.00000   0.04292   0.04358   1.99850
   A26        1.94988  -0.00936   0.00000  -0.05309  -0.05469   1.89518
   A27        1.87959   0.00116   0.00000  -0.00921  -0.01125   1.86835
   A28        1.89896   0.00576   0.00000   0.04153   0.04241   1.94137
   A29        1.89142  -0.00219   0.00000   0.00824   0.00868   1.90010
   A30        1.88698  -0.00050   0.00000  -0.03225  -0.03351   1.85347
   A31        1.94195   0.00189   0.00000  -0.00082  -0.00098   1.94097
   A32        1.94861   0.00137   0.00000   0.01401   0.01409   1.96269
   A33        1.98317  -0.00595   0.00000  -0.02893  -0.02905   1.95413
   A34        1.92244  -0.00331   0.00000  -0.02914  -0.02910   1.89333
   A35        1.88590   0.00073   0.00000  -0.00621  -0.00655   1.87935
   A36        1.77429   0.00536   0.00000   0.05344   0.05356   1.82784
   A37        1.97440  -0.00333   0.00000  -0.01706  -0.01750   1.95690
   A38        1.94928   0.00470   0.00000   0.03445   0.03457   1.98385
   A39        1.89232  -0.00126   0.00000  -0.01890  -0.01918   1.87315
   A40        1.87617  -0.00023   0.00000   0.00701   0.00711   1.88328
   A41        1.88292   0.00108   0.00000  -0.00622  -0.00653   1.87638
   A42        1.88583  -0.00099   0.00000   0.00028   0.00046   1.88629
   A43        1.93909   0.00000   0.00000  -0.00358  -0.00357   1.93552
   A44        1.95893   0.00154   0.00000   0.01063   0.01059   1.96952
   A45        1.92567   0.00016   0.00000   0.00274   0.00269   1.92836
   A46        1.89508  -0.00130   0.00000  -0.01070  -0.01068   1.88440
   A47        1.88411  -0.00060   0.00000  -0.00699  -0.00699   1.87712
   A48        1.85765   0.00011   0.00000   0.00754   0.00744   1.86509
   A49        1.93315   0.00090   0.00000   0.00063   0.00052   1.93367
   A50        1.93969  -0.00255   0.00000  -0.01614  -0.01621   1.92348
   A51        1.96460   0.00173   0.00000   0.01593   0.01593   1.98053
   A52        1.89593  -0.00072   0.00000  -0.01548  -0.01566   1.88027
   A53        1.88818  -0.00107   0.00000  -0.00346  -0.00350   1.88468
   A54        1.83851   0.00169   0.00000   0.01843   0.01848   1.85698
    D1        0.97378  -0.00225   0.00000  -0.00750  -0.00737   0.96642
    D2       -3.12385   0.00335   0.00000   0.04927   0.04882  -3.07504
    D3       -1.06670  -0.00115   0.00000  -0.00700  -0.00676  -1.07345
    D4       -1.10772  -0.00230   0.00000  -0.00836  -0.00821  -1.11593
    D5        1.07782   0.00329   0.00000   0.04840   0.04798   1.12580
    D6        3.13498  -0.00120   0.00000  -0.00787  -0.00760   3.12738
    D7        3.06216  -0.00139   0.00000   0.00521   0.00539   3.06755
    D8       -1.03548   0.00420   0.00000   0.06197   0.06158  -0.97390
    D9        1.02168  -0.00029   0.00000   0.00571   0.00600   1.02768
   D10        1.36205  -0.00198   0.00000   0.00167   0.00223   1.36428
   D11       -0.75044   0.00042   0.00000   0.03674   0.03714  -0.71331
   D12       -2.77249  -0.00236   0.00000  -0.00361  -0.00308  -2.77558
   D13       -0.76336   0.00123   0.00000   0.00067   0.00036  -0.76301
   D14       -2.87586   0.00364   0.00000   0.03575   0.03527  -2.84059
   D15        1.38528   0.00085   0.00000  -0.00460  -0.00495   1.38032
   D16       -2.89040  -0.00090   0.00000  -0.01066  -0.01071  -2.90111
   D17        1.28029   0.00150   0.00000   0.02441   0.02420   1.30449
   D18       -0.74176  -0.00128   0.00000  -0.01594  -0.01602  -0.75778
   D19        3.04888  -0.00543   0.00000  -0.16752  -0.16738   2.88150
   D20        0.94725  -0.00407   0.00000  -0.13098  -0.13018   0.81707
   D21       -1.03421  -0.00157   0.00000  -0.09783  -0.09727  -1.13148
   D22       -1.13631  -0.00274   0.00000  -0.12896  -0.12953  -1.26584
   D23        3.04525  -0.00138   0.00000  -0.09242  -0.09233   2.95291
   D24        1.06378   0.00112   0.00000  -0.05927  -0.05942   1.00436
   D25        0.99543  -0.00170   0.00000  -0.10948  -0.11013   0.88530
   D26       -1.10620  -0.00033   0.00000  -0.07294  -0.07293  -1.17913
   D27       -3.08767   0.00217   0.00000  -0.03979  -0.04002  -3.12768
   D28        1.09649   0.00126   0.00000   0.11040   0.11149   1.20797
   D29       -3.05114   0.00556   0.00000   0.15687   0.15711  -2.89403
   D30       -0.98152   0.00024   0.00000   0.08085   0.08175  -0.89977
   D31       -3.10899   0.00127   0.00000   0.08367   0.08350  -3.02549
   D32       -0.97343   0.00557   0.00000   0.13014   0.12912  -0.84431
   D33        1.09618   0.00025   0.00000   0.05412   0.05376   1.14995
   D34       -1.10658  -0.00184   0.00000   0.04500   0.04512  -1.06146
   D35        1.02898   0.00246   0.00000   0.09148   0.09075   1.11973
   D36        3.09859  -0.00286   0.00000   0.01546   0.01539   3.11398
   D37        0.86501  -0.00242   0.00000  -0.00665  -0.00623   0.85878
   D38       -1.29067  -0.00050   0.00000   0.02160   0.02210  -1.26857
   D39        2.99824  -0.00441   0.00000  -0.03674  -0.03610   2.96213
   D40       -1.29929   0.00197   0.00000   0.00201   0.00144  -1.29785
   D41        2.82820   0.00389   0.00000   0.03026   0.02977   2.85798
   D42        0.83393  -0.00001   0.00000  -0.02808  -0.02843   0.80550
   D43        2.93604   0.00062   0.00000   0.01300   0.01285   2.94889
   D44        0.78035   0.00254   0.00000   0.04126   0.04118   0.82153
   D45       -1.21392  -0.00136   0.00000  -0.01709  -0.01702  -1.23095
   D46        1.01821  -0.00430   0.00000  -0.09862  -0.09766   0.92055
   D47        3.13778  -0.00352   0.00000  -0.07624  -0.07542   3.06236
   D48       -1.06948  -0.00272   0.00000  -0.06728  -0.06665  -1.13613
   D49       -3.09768  -0.00018   0.00000  -0.05053  -0.05051   3.13500
   D50       -0.97811   0.00060   0.00000  -0.02815  -0.02827  -1.00638
   D51        1.09781   0.00140   0.00000  -0.01918  -0.01949   1.07832
   D52       -1.04700   0.00008   0.00000  -0.03592  -0.03643  -1.08343
   D53        1.07257   0.00086   0.00000  -0.01354  -0.01419   1.05838
   D54       -3.13469   0.00166   0.00000  -0.00458  -0.00541  -3.14011
   D55        1.02085   0.00215   0.00000   0.02330   0.02323   1.04407
   D56       -1.10474   0.00274   0.00000   0.03218   0.03214  -1.07260
   D57        3.10985   0.00151   0.00000   0.01403   0.01394   3.12378
   D58       -1.13941  -0.00146   0.00000  -0.01434  -0.01428  -1.15369
   D59        3.01819  -0.00087   0.00000  -0.00546  -0.00537   3.01282
   D60        0.94959  -0.00211   0.00000  -0.02361  -0.02357   0.92602
   D61        3.11393  -0.00074   0.00000  -0.01511  -0.01511   3.09882
   D62        0.98835  -0.00015   0.00000  -0.00623  -0.00620   0.98215
   D63       -1.08025  -0.00139   0.00000  -0.02438  -0.02440  -1.10465
   D64       -0.99490   0.00005   0.00000   0.00092   0.00087  -0.99403
   D65       -3.10415   0.00207   0.00000   0.03094   0.03080  -3.07335
   D66        1.12150   0.00052   0.00000   0.00800   0.00795   1.12945
   D67        1.18059  -0.00121   0.00000   0.00698   0.00717   1.18776
   D68       -0.92866   0.00081   0.00000   0.03700   0.03710  -0.89157
   D69       -2.98619  -0.00074   0.00000   0.01406   0.01424  -2.97195
   D70       -3.07467  -0.00057   0.00000   0.00349   0.00345  -3.07123
   D71        1.09926   0.00145   0.00000   0.03351   0.03337   1.13263
   D72       -0.95827  -0.00010   0.00000   0.01057   0.01052  -0.94775
         Item               Value     Threshold  Converged?
 Maximum Force            0.021991     0.000450     NO 
 RMS     Force            0.003320     0.000300     NO 
 Maximum Displacement     0.721060     0.001800     NO 
 RMS     Displacement     0.213891     0.001200     NO 
 Predicted change in Energy=-8.361884D-03
 GradGradGradGradGradGradGradGradGradGradGradGradGradGradGradGradGradGrad

                          Input orientation:                          
 ---------------------------------------------------------------------
 Center     Atomic      Atomic             Coordinates (Angstroms)
 Number     Number       Type             X           Y           Z
 ---------------------------------------------------------------------
      1          6           0        0.945131    0.079193    0.351864
      2          6           0        2.427875    0.025984   -0.069294
      3          6           0        2.489768    0.029500   -1.610751
      4          6           0        3.163710    1.159639    0.697813
      5          6           0        4.712674    1.240716    0.818499
      6          6           0        5.440366    1.569678   -0.499963
      7          6           0        5.072104    2.273141    1.936531
      8          6           0        4.348361    1.968907    3.261126
      9          6           0        6.582562    2.364786    2.231899
     10          1           0        0.379849   -0.740315   -0.103651
     11          1           0        0.484928    1.019496    0.027284
     12          1           0        0.822083    0.004494    1.438205
     13          1           0        2.828024   -0.928779    0.297789
     14          1           0        2.334002    1.034621   -2.014007
     15          1           0        1.701585   -0.614734   -2.017742
     16          1           0        3.424304   -0.360821   -2.012220
     17          1           0        2.803731    1.042917    1.726160
     18          1           0        2.775127    2.132112    0.363155
     19          1           0        5.059392    0.262391    1.181495
     20          1           0        4.989471    2.434769   -0.995852
     21          1           0        5.437962    0.732962   -1.196084
     22          1           0        6.496745    1.793391   -0.338519
     23          1           0        4.731302    3.260096    1.592532
     24          1           0        4.616242    0.973328    3.633315
     25          1           0        3.259757    2.013238    3.169935
     26          1           0        4.632719    2.696171    4.029146
     27          1           0        6.984625    1.384092    2.510906
     28          1           0        6.763819    3.049492    3.067175
     29          1           0        7.167932    2.742325    1.391336
 ---------------------------------------------------------------------
                    Distance matrix (angstroms):
                    1          2          3          4          5
     1  C    0.000000
     2  C    1.542315   0.000000
     3  C    2.498046   1.542703   0.000000
     4  C    2.491814   1.554053   2.657232   0.000000
     5  C    3.970046   2.735700   3.508505   1.555772   0.000000
     6  C    4.811891   3.412267   3.508850   2.604988   1.541458
     7  C    4.935229   4.008116   4.928041   2.533037   1.563677
     8  C    4.859711   4.307541   5.563349   2.937496   2.574764
     9  C    6.367032   5.294045   6.080336   3.936286   2.599561
    10  H    1.094821   2.186963   2.704760   3.464398   4.852651
    11  H    1.096042   2.184362   2.771756   2.764981   4.306831
    12  H    1.095836   2.202631   3.475332   2.713993   4.129041
    13  H    2.136404   1.098381   2.162232   2.152718   2.920574
    14  H    2.905022   2.192732   1.094142   2.838664   3.704544
    15  H    2.582400   2.175883   1.096318   3.558152   4.533609
    16  H    3.453810   2.217532   1.089442   3.118330   3.498255
    17  H    2.504365   2.097398   3.501509   1.095768   2.122978
    18  H    2.750180   2.177929   2.898053   1.099408   2.180828
    19  H    4.201071   2.923225   3.801821   2.152351   1.099591
    20  H    4.870499   3.636279   3.523057   2.797831   2.189577
    21  H    4.796779   3.290911   3.059192   2.990171   2.200546
    22  H    5.851113   4.444312   4.559139   3.547498   2.197055
    23  H    5.098283   4.304291   5.071711   2.769438   2.162723
    24  H    5.004443   4.404058   5.736980   3.280508   2.829132
    25  H    4.127898   3.890220   5.232882   2.617106   2.870019
    26  H    5.828316   5.365486   6.596348   3.951796   3.526045
    27  H    6.545205   5.409793   6.247137   4.235219   2.836646
    28  H    7.074794   6.146499   7.019320   4.705976   3.540538
    29  H    6.848067   5.655094   6.185237   4.361154   2.934496
                    6          7          8          9         10
     6  C    0.000000
     7  C    2.562612   0.000000
     8  C    3.936705   1.539778   0.000000
     9  C    3.065922   1.541793   2.491522   0.000000
    10  H    5.576914   5.938057   5.866063   7.319160   0.000000
    11  H    5.013686   5.124357   5.126912   6.622029   1.767801
    12  H    5.247365   4.843322   4.429062   6.275671   1.768512
    13  H    3.701760   4.239536   4.414677   5.355829   2.488018
    14  H    3.496872   4.963656   5.723422   6.152018   3.258616
    15  H    4.588441   5.944451   6.445702   7.124670   2.329485
    16  H    3.174626   5.024503   5.838638   5.951141   3.613220
    17  H    3.490695   2.589059   2.366318   4.035180   3.521836
    18  H    2.857412   2.787741   3.301505   4.247694   3.769099
    19  H    2.163664   2.147873   2.782558   2.800618   4.955315
    20  H    1.094346   2.937996   4.330117   3.600169   5.667962
    21  H    1.088432   3.509883   4.752001   3.965353   5.380378
    22  H    1.091809   2.726832   4.195688   2.634560   6.625047
    23  H    2.781874   1.099345   2.144299   2.153494   6.149429
    24  H    4.256619   2.185498   1.096112   2.786851   5.903264
    25  H    4.291847   2.207586   1.093316   3.470523   5.156772
    26  H    4.736465   2.179690   1.095275   2.672415   6.853930
    27  H    3.388881   2.185876   2.802629   1.096020   7.414316
    28  H    4.082383   2.177838   2.653247   1.095154   8.072909
    29  H    2.817197   2.215822   3.470486   1.091668   7.774435
                   11         12         13         14         15
    11  H    0.000000
    12  H    1.770481   0.000000
    13  H    3.059256   2.489045   0.000000
    14  H    2.754301   3.907024   3.073012   0.000000
    15  H    2.886709   3.619466   2.594065   1.766448   0.000000
    16  H    3.834681   4.337101   2.452401   1.770881   1.741339
    17  H    2.874643   2.255697   2.434835   3.769558   4.240205
    18  H    2.568216   3.081700   3.062046   2.655179   3.790294
    19  H    4.778193   4.252905   2.679333   4.270284   4.720099
    20  H    4.831222   5.403517   4.202239   3.169947   4.599339
    21  H    5.109919   5.364372   3.435814   3.224060   4.056097
    22  H    6.072451   6.209564   4.612441   4.550980   5.622492
    23  H    5.049948   5.089671   4.779697   4.868974   6.101440
    24  H    5.483917   4.489186   4.235737   6.091357   6.553748
    25  H    4.308533   3.602248   4.134135   5.356115   6.020476
    26  H    6.002525   5.336576   5.506378   6.675668   7.491227
    27  H    6.967594   6.405537   5.246388   6.498097   7.239784
    28  H    7.265417   6.872393   6.243926   7.035723   8.056621
    29  H    7.035007   6.911419   5.788579   6.154632   7.264476
                   16         17         18         19         20
    16  H    0.000000
    17  H    4.041173   0.000000
    18  H    3.504076   1.744978   0.000000
    19  H    3.641665   2.448243   3.063235   0.000000
    20  H    3.361260   3.758200   2.615687   3.076517   0.000000
    21  H    2.432542   3.946487   3.388147   2.453087   1.771266
    22  H    4.108747   4.297030   3.802304   2.592371   1.765028
    23  H    5.273853   2.940964   2.571057   3.043490   2.729020
    24  H    5.922224   2.631972   3.927650   2.590991   4.868706
    25  H    5.702452   1.798323   2.850791   3.202818   4.530274
    26  H    6.877758   3.373750   4.148288   3.770206   5.044423
    27  H    6.014921   4.267564   4.784584   2.594623   4.169162
    28  H    6.970140   4.637560   4.905402   3.772107   4.475978
    29  H    5.935357   4.695354   4.552609   3.261908   3.246375
                   21         22         23         24         25
    21  H    0.000000
    22  H    1.726542   0.000000
    23  H    3.829120   2.999495   0.000000
    24  H    4.904702   4.470376   3.067139   0.000000
    25  H    5.044383   4.778668   2.491645   1.770928   0.000000
    26  H    5.639648   4.833849   2.502961   1.767807   1.757744
    27  H    4.069142   2.919722   3.072502   2.652879   3.834682
    28  H    5.029869   3.639762   2.519931   3.040240   3.655521
    29  H    3.704737   2.084074   2.499147   3.829744   4.355320
                   26         27         28         29
    26  H    0.000000
    27  H    3.091612   0.000000
    28  H    2.364701   1.769674   0.000000
    29  H    3.658890   1.769699   1.751027   0.000000
 Stoichiometry    C9H20
 Framework group  C1[X(C9H20)]
 Deg. of freedom    81
 Full point group                 C1      NOp   1
 Largest Abelian subgroup         C1      NOp   1
 Largest concise Abelian subgroup C1      NOp   1
                         Standard orientation:                         
 ---------------------------------------------------------------------
[...]
 00040,-0.00001522,0.00022096,-0.00031953,-0.00021054,-0.00165516,-0.00
 100039,0.00012987,0.00010700,0.00014202,-0.00004909,-0.00005964,0.0000
 9239,0.00006445,0.00000771,-0.00006869,0.06451930,-0.00000500,0.000081
 49,0.00004478,-0.00006764,0.00024559,-0.00044461,-0.00010163,-0.000005
 58,0.00000423,0.00147801,0.00038462,0.00099263,0.00350243,-0.02612708,
 0.01036350,-0.00022536,0.00057204,0.00146605,0.03724188,-0.22915654,0.
 09655368,-0.00008223,-0.00026206,0.00010400,0.00070668,-0.00192658,0.0
 0089472,0.00002407,-0.00000463,-0.00001108,-0.00003560,-0.00000289,-0.
 00000321,0.00002857,0.00001105,-0.00002200,0.00005146,0.00027157,0.000
 14892,-0.00004827,0.00000532,-0.00004364,0.00000476,0.00001816,-0.0000
 2143,0.00002659,-0.00002309,-0.00001847,-0.00005072,0.00000175,-0.0000
 5548,-0.00100605,0.00066711,-0.00063042,-0.00163698,-0.00331138,-0.003
 48408,0.00033616,0.00048506,-0.00110387,-0.00018853,0.00047143,-0.0002
 4677,-0.00002534,0.00004750,-0.00003956,-0.04031649,0.25312646,0.00000
 425,0.00005819,0.00000327,0.00023961,-0.00017686,-0.00011102,-0.000070
 23,0.00004973,0.00002968,0.00085914,-0.00000964,0.00066200,0.00271740,
 -0.01774287,0.00691378,-0.00005303,-0.00045378,0.00166808,-0.02018955,
 0.09582895,-0.09848953,-0.00316762,0.02581897,-0.01611873,-0.00164260,
 0.00559609,-0.00299332,0.00001416,0.00000410,-0.00000108,-0.00001268,-
 0.00000104,0.00000529,0.00000807,-0.00001109,0.00000622,-0.00012028,0.
 00008634,-0.00001092,0.00000132,0.00001074,-0.00002332,0.00000461,-0.0
 0000642,-0.00000068,-0.00000117,-0.00000121,-0.00000263,-0.00013636,-0
 .00000310,-0.00002225,0.00006927,0.00026001,0.00006787,-0.00101358,-0.
 00342209,-0.00160613,-0.00009204,0.00044746,-0.00008987,-0.00012883,0.
 00024012,0.00013712,0.00002897,-0.00010552,-0.00008129,0.02144606,-0.1
 0458609,0.11170177,-0.00001525,0.00004233,-0.00006232,0.00006399,-0.00
 002808,0.00001412,-0.00001412,0.00001538,-0.00000003,0.00006772,-0.000
 01435,-0.00010833,0.00050007,-0.00024694,-0.00088393,-0.00010301,-0.00
 008765,-0.00006797,0.00099978,-0.01511254,0.00717940,-0.04973820,0.019
 90513,-0.01008105,0.00124096,-0.00096529,-0.00008112,0.00000653,-0.000
 00608,0.00002395,0.00001047,-0.00000454,0.00000909,-0.00000984,-0.0000
 3298,0.00002190,0.00001047,-0.00002366,-0.00000639,0.00000575,-0.00000
 294,0.00000403,0.00000545,0.00000029,0.00000325,-0.00000299,-0.0000058
 5,0.00000617,-0.00009277,0.00022252,0.00011851,-0.00007960,-0.00005014
 ,0.00015824,0.00012871,0.00030890,-0.00012222,0.00000671,0.00004683,-0
 .00007452,0.00000006,0.00003531,-0.00003690,-0.00002524,0.00001972,0.0
 0003101,-0.00110758,-0.00007930,0.00306776,0.04933738,0.00000420,-0.00
 001971,0.00006343,-0.00002794,-0.00004905,0.00001731,0.00002405,0.0000
 1597,0.00000232,-0.00000073,0.00020943,0.00021499,-0.00028432,0.000861
 61,-0.00074867,0.00007567,0.00037624,-0.00013295,-0.00001290,-0.000509
 49,0.00051807,0.01997859,-0.24805359,0.10247898,0.00001902,0.00016483,
 -0.00016017,0.00001317,0.00001435,-0.00001140,-0.00000203,0.00000102,-
 0.00000773,0.00000880,0.00002128,-0.00002299,-0.00000585,0.00001204,0.
 00000773,-0.00000387,-0.00000184,-0.00000101,0.00000600,0.00000731,0.0
 0001634,0.00000369,0.00000276,-0.00001660,0.00009199,-0.00011830,0.000
 11498,0.00001359,0.00001050,-0.00010463,0.00013670,0.00057174,0.000471
 58,0.00005443,-0.00013482,-0.00013826,-0.00003964,0.00000951,0.0000935
 5,-0.00000865,-0.00001325,0.00000692,-0.00034269,0.00134422,-0.0003031
 3,-0.02183903,0.26989946,-0.00000734,0.00001856,-0.00007887,-0.0000526
 1,-0.00003357,0.00002578,0.00000324,0.00000581,-0.00000507,-0.00007721
 ,-0.00021996,-0.00018156,-0.00043202,0.00230523,0.00145472,0.00016692,
 -0.00026796,0.00009914,-0.00302370,0.02689868,-0.01547807,-0.01022797,
 0.10235666,-0.09811910,-0.00136956,0.00000263,0.00069437,-0.00000426,-
 0.00000648,0.00002457,0.00000827,-0.00000659,0.00001213,-0.00002396,-0
 .00002806,0.00003142,0.00000197,-0.00003248,-0.00002831,0.00000739,-0.
 00000172,0.00000608,0.00000006,-0.00000276,0.00000368,-0.00000945,-0.0
 0000141,0.00001399,-0.00019458,0.00015293,-0.00002700,0.00016515,-0.00
 007253,0.00024805,0.00012218,-0.00122116,-0.00007128,-0.00008535,-0.00
 013347,0.00028775,0.00002048,-0.00010390,0.00000634,-0.00000843,0.0000
 0526,-0.00000438,0.00366888,-0.00034803,-0.00492897,0.00861785,-0.1145
 3466,0.10881745,0.00006143,0.00002393,0.00000979,0.00051195,0.00017160
 ,-0.00031312,-0.00005635,-0.00019353,-0.00003482,-0.00110569,-0.001164
 36,-0.00050670,-0.00067952,-0.00045256,-0.00030152,0.00016434,0.000154
 18,0.00010425,-0.01410158,0.00268168,-0.00371541,-0.29703523,0.0529011
 8,-0.03216305,-0.00074158,-0.00064840,0.00436397,-0.00001896,-0.000020
 39,-0.00002476,0.00001771,0.00000517,0.00001094,0.00000077,0.00002423,
 -0.00000679,-0.00001450,-0.00016220,-0.00008774,0.00001736,0.00000755,
 0.00001385,-0.00002355,0.00000941,-0.00008279,0.00001077,0.00001724,-0
 .00002621,0.00082050,-0.00051278,-0.00212056,0.00000192,0.00006440,0.0
 0010649,0.00006559,-0.00002229,0.00001982,-0.00002494,-0.00001656,-0.0
 0001142,-0.00001297,0.00004825,0.00013163,0.00011077,-0.00008326,-0.00
 012298,0.00075043,-0.00047308,0.00006304,-0.00165892,-0.00007377,-0.00
 042505,0.32513554,-0.00005325,0.00002427,-0.00004162,-0.00016986,-0.00
 020612,0.00017769,0.00001643,0.00014959,0.00001094,0.00042226,0.000196
 54,-0.00117352,0.00059910,-0.00013787,0.00037043,-0.00021558,0.0000807
 1,-0.00016944,-0.00130161,-0.00150190,0.00039167,0.05242350,-0.0574424
 9,0.00719942,-0.00061221,0.00026349,-0.00002967,0.00002077,0.00002167,
 0.00004418,-0.00001416,-0.00000149,-0.00002046,-0.00000038,-0.00006754
 ,0.00001992,-0.00000563,0.00006459,0.00004559,0.00000569,-0.00000933,-
 0.00000480,0.00002351,-0.00000757,0.00006259,-0.00001232,-0.00001064,0
 .00001264,-0.00101447,-0.00086052,-0.00115533,-0.00004642,-0.00010837,
 0.00018537,0.00000728,0.00008351,-0.00009721,0.00001968,-0.00000868,-0
 .00000960,0.00003110,-0.00002055,-0.00001931,-0.00006828,-0.00000068,0
 .00006965,-0.00034317,0.00035354,-0.00038909,0.02887347,-0.00534352,0.
 00376249,-0.05552798,0.05841867,-0.00003156,0.00000657,0.00003912,-0.0
 0021653,-0.00010738,-0.00005597,0.00003693,0.00008858,-0.00001541,-0.0
 0030500,-0.00076525,-0.00099966,0.00002024,0.00010526,0.00109800,-0.00
 006843,0.00015971,-0.00001083,0.02808581,-0.00586313,0.00621721,-0.034
 26786,0.00796431,-0.05109933,0.00196373,-0.00016374,-0.00555091,0.0000
 2789,0.00002391,0.00000359,-0.00001090,-0.00001143,-0.00000667,-0.0000
 0842,-0.00000739,-0.00000264,0.00002152,0.00009729,0.00004631,-0.00001
 153,-0.00000979,-0.00000709,0.00001087,0.00000402,0.00005128,-0.000006
 56,-0.00001067,0.00000304,-0.00097654,-0.00166729,-0.00170897,-0.00004
 387,0.00015316,-0.00014578,-0.00005358,-0.00004312,-0.00008258,0.00002
 514,0.00000740,-0.00000241,-0.00005415,0.00000534,-0.00000689,-0.00011
 502,0.00007552,0.00011994,-0.00075246,0.00023416,0.00146096,-0.0140399
 3,0.00164388,-0.00267346,0.03717364,-0.00691141,0.05605810,0.00004198,
 -0.00000044,0.00000098,0.00025450,0.00016108,-0.00017354,-0.00003546,-
 0.00015447,-0.00001420,-0.00079845,-0.00051097,0.00025677,-0.00247706,
 -0.00038951,0.00268814,0.00064699,0.00076100,0.00073302,0.00453127,0.0
 1241948,0.01007067,-0.08435733,-0.07099938,-0.06192825,0.00087222,0.00
 117363,0.00131039,-0.00002171,-0.00002603,-0.00002568,0.00001619,0.000
 00668,0.00001327,0.00000407,0.00003370,-0.00001056,-0.00002313,-0.0001
 0273,-0.00006469,0.00000887,0.00001003,0.00000893,-0.00001853,0.000004
 97,-0.00006267,0.00000853,0.00001686,-0.00001876,0.00063461,0.00020294
 ,-0.00063314,0.00006822,0.00003992,-0.00005099,-0.00005123,-0.00018915
 ,-0.00008234,-0.00000589,-0.00003448,0.00001334,-0.00018468,0.00002697
 ,0.00038719,0.00006790,0.00002510,-0.00008324,0.00032003,-0.00018816,-
 0.00071974,0.00057086,0.00293981,0.00239528,-0.01168263,-0.02279761,-0
 .01840232,0.09192101,0.00001534,-0.00003206,0.00001542,-0.00005502,0.0
 0003548,0.00004485,0.00000328,-0.00000563,0.00001590,0.00013547,0.0002
 2255,0.00023721,0.00023742,0.00079860,-0.00020294,-0.00034528,0.000182
 28,-0.00005017,0.00016041,-0.00035920,0.00095253,-0.06968273,-0.174630
 56,-0.11014898,-0.00050760,-0.00007095,0.00028259,-0.00001799,-0.00001
 120,-0.00001616,-0.00000845,0.00001033,-0.00000704,0.00001902,0.000019
 38,-0.00001329,-0.00000024,0.00001873,0.00001620,-0.00000541,0.0000065
 4,-0.00000465,-0.00000891,-0.00001006,-0.00001340,0.00000514,0.0000035
 5,0.00000632,0.00008057,-0.00014300,0.00001755,-0.00001069,0.00000103,
 -0.00012121,-0.00004641,0.00053969,0.00021865,0.00004491,0.00001083,-0
 .00011062,0.00006272,0.00000234,-0.00002278,0.00007569,-0.00002813,0.0
 0000233,0.00040014,0.00052976,-0.00034089,-0.01168414,-0.01970081,-0.0
 1762459,0.00273943,0.00500121,0.00496424,0.07772091,0.18694748,0.00001
 727,-0.00001798,-0.00009653,-0.00000702,0.00009215,0.00007714,0.000007
 20,-0.00003157,0.00000841,0.00064460,-0.00012227,0.00019162,0.00373953
 ,0.00245123,-0.00371601,-0.00107300,-0.00156516,-0.00064751,-0.0106650
 6,-0.02147290,-0.01824704,-0.06043230,-0.10943640,-0.14025738,-0.00198
 838,-0.00055725,0.00075323,-0.00003990,-0.00003342,0.00000273,-0.00001
 278,0.00000755,0.00001115,-0.00000188,-0.00000399,0.00001674,0.0000093
 0,0.00001668,-0.00002085,-0.00002134,0.00000931,0.00000290,-0.00001671
 ,-0.00001434,-0.00003422,0.00000805,-0.00001256,0.00004082,-0.00000570
 ,0.00008153,-0.00002918,-0.00005963,0.00003720,-0.00003120,0.00010910,
 -0.00018546,0.00018842,-0.00003192,0.00008473,-0.00000995,0.00041562,-
 0.00004902,-0.00062338,0.00012552,-0.00002513,0.00002221,-0.00056664,0
 .00052505,0.00067059,0.00647844,0.01045859,0.00930053,-0.00185152,-0.0
 0280836,-0.00311556,0.06429974,0.12155494,0.15451570,0.00000200,-0.000
 00675,-0.00001975,0.00002803,-0.00007893,0.00005184,0.00000114,-0.0000
 0083,0.00000290,-0.00009419,-0.00007829,0.00017974,0.00176296,0.001753
 27,0.00053548,0.00003903,-0.00022003,-0.00012126,-0.00852812,0.0302908
 6,-0.01395014,0.00171608,0.00052710,-0.00102799,-0.06030417,0.05226921
 ,-0.02239323,-0.00000854,-0.00000212,0.00000127,0.00000393,0.00000009,
 0.00000379,-0.00000435,-0.00000123,0.00000699,-0.00001648,-0.00003601,
 -0.00002473,0.00000713,0.00000212,0.00000370,-0.00000353,-0.00000278,-
 0.00000185,-0.00000529,0.00000265,0.00000237,-0.00001235,0.00001169,-0
 .00000905,0.00020978,-0.00018627,0.00013843,-0.00005411,-0.00102857,0.
 00010745,-0.00006625,0.00002162,0.00016806,0.00006133,-0.00000520,-0.0
 0006280,-0.00002694,-0.00002997,-0.00012705,-0.00661763,0.00024017,-0.
 00119587,-0.00016927,-0.00058473,0.00066613,0.00022090,-0.00046619,0.0
 0004537,-0.00009074,-0.00003227,0.00013472,0.06683158,0.,0.00001302,0.
 00003495,0.00007674,-0.00004365,0.00000522,0.00001279,0.00001306,-0.00
 000211,-0.00012510,0.00037613,-0.00005331,-0.00032557,0.00077526,-0.00
 078454,0.00019317,0.00022973,0.00015193,0.00081559,-0.00201743,0.00103
 263,-0.00022577,0.00013722,-0.00002882,0.05229073,-0.24882021,0.089505
 49,0.00001692,0.00001276,0.00000009,0.00000033,0.00000014,-0.00000359,
 0.00000002,-0.00000121,-0.00000857,-0.00000300,-0.00000524,0.00000121,
 -0.00000078,-0.00000218,0.00000282,0.00000775,0.00000655,0.00001383,0.
 00000064,-0.00000282,-0.00001037,0.00000591,-0.00000822,-0.00000014,-0
 .00015938,-0.00009802,-0.00004948,0.00034057,0.00058086,0.00041939,-0.
 00010489,0.00000673,-0.00007519,0.00001925,0.00002405,0.00005118,-0.00
 001417,-0.00009448,0.00017455,0.00039889,0.00133819,-0.00040004,0.0004
 6027,0.00023324,-0.00040652,0.00007764,0.00025807,-0.00023079,0.000016
 76,-0.00006876,0.00009809,-0.05920172,0.27076424,-0.00000089,-0.000015
 06,-0.00000586,-0.00003680,0.00000638,0.00000976,0.00000197,-0.0000132
 4,0.00000028,-0.00004315,-0.00023096,0.00002796,0.00026852,0.00122037,
 0.00025047,-0.00022959,0.00001702,-0.00009998,-0.00237391,0.00639585,-
 0.00426265,0.00024913,-0.00073968,0.00030864,-0.02229202,0.08933020,-0
 .08676645,-0.00000514,-0.00000124,-0.00000090,0.00000821,-0.00000211,0
 .00000103,-0.00000330,0.00000381,0.00000205,0.00000541,-0.00003032,-0.
 00001355,0.00000898,-0.00000097,0.00000338,-0.00000182,0.00000017,-0.0
 0000356,-0.00000029,0.00000764,-0.00000564,0.00004530,0.00001355,-0.00
 000817,0.00012752,-0.00006850,0.00005845,-0.00024785,-0.00050500,0.000
 07816,0.00015681,-0.00011596,0.00024414,0.00004390,-0.00013215,0.00000
 702,0.00021163,0.00015629,-0.00024897,-0.00174062,-0.00020584,0.000610
 92,0.00002617,0.00007819,0.00044354,-0.00009457,-0.00001788,-0.0000476
 3,-0.00004788,-0.00010905,0.00009484,0.02726075,-0.09983042,0.09035062
 ,0.00000107,-0.00012490,-0.00019485,-0.00061479,0.00035990,0.00008724,
 -0.00006122,-0.00012601,0.00004513,0.00008519,-0.00179859,-0.00145571,
 -0.00637571,0.00250716,0.00019902,-0.00054496,0.00051890,0.00078122,-0
 .00956947,-0.02447030,-0.02078769,0.00109118,-0.00128569,-0.00172280,-
 0.06048053,-0.04445725,-0.04124950,-0.00008587,-0.00005610,0.00002178,
 -0.00000704,0.00001438,0.00000068,0.00000912,0.00000139,0.00001582,0.0
 0003706,-0.00000591,0.00002047,-0.00000058,0.00001147,-0.00000564,-0.0
 0000808,-0.00000604,-0.00007405,0.00001876,0.00001992,-0.00001220,0.00
 001125,-0.00004348,0.00009279,-0.00001294,0.00008286,-0.00004610,0.000
 07204,-0.00001116,0.00020930,0.00003990,0.00000900,-0.00007670,0.00028
 411,-0.00004726,-0.00004457,0.00053454,-0.00019961,-0.00004324,0.00120
 197,0.00047228,0.00016846,-0.00002902,0.00007200,0.00017411,0.00047807
 ,0.00031618,-0.00004864,-0.00044559,0.00054060,0.00104172,0.00109950,0
 .00494081,0.00560171,0.06914965,0.00000839,-0.00001108,-0.00003161,0.0
 0000406,0.00004659,0.00008577,0.00000508,0.00000494,0.00000747,0.00025
 064,0.00021325,-0.00022352,0.00007802,0.00080820,-0.00002514,0.0001564
 6,0.00014145,0.00017312,0.00112235,0.00092825,0.00180723,0.00051369,-0
 .00004150,-0.00008542,-0.04583696,-0.17875242,-0.12224183,-0.00001441,
 -0.00001403,-0.00000067,-0.00000640,0.00000680,0.00000096,0.00000453,-
 0.00000162,0.00000262,0.00000600,0.00000653,0.00000266,-0.00000595,0.0
 0000448,-0.00000012,-0.00000551,-0.00001266,-0.00001008,0.00000046,-0.
 00000399,0.00001706,-0.00006639,-0.00000892,0.00005997,-0.00010814,0.0
 0001110,-0.00003112,0.00025064,0.00046899,0.00009502,-0.00010107,0.000
 02423,-0.00009545,0.00002376,0.00001476,-0.00002089,-0.00010546,-0.000
 07093,0.00014339,-0.00055248,0.00057143,0.00005254,-0.00005178,-0.0000
 5617,-0.00010350,0.00013065,0.00022070,0.00033921,-0.00021033,0.000505
 02,0.00044786,-0.00676168,-0.02005337,-0.01972387,0.04949116,0.1914808
 5,0.00000127,-0.00002813,-0.00008304,-0.00017125,0.00005236,0.00009899
 ,0.00001183,-0.00001108,0.00001156,0.00028149,-0.00053220,-0.00006324,
 -0.00074362,0.00125181,0.00005536,0.00014570,-0.00055643,0.00009774,-0
 .00120875,-0.00484093,-0.00549560,0.00150966,0.00045797,0.00046840,-0.
 04265075,-0.12258898,-0.16030983,-0.00003846,-0.00002647,0.00000364,-0
 .00001553,0.00000624,0.00000591,0.00000333,0.00000055,0.00001135,-0.00
 000368,0.00004505,-0.00000056,-0.00002228,0.00000761,0.00000073,-0.000
 01609,-0.00001330,-0.00001933,0.00000642,-0.00001141,0.00004044,-0.000
 12935,0.00001992,0.00006760,0.00002699,0.00002272,-0.00002246,-0.00003
 245,-0.00028076,0.00007173,0.00002494,0.00005189,0.00001752,-0.0002760
 0,0.00000842,-0.00005801,-0.00052245,0.00031833,-0.00000609,0.00004571
 ,0.00017833,-0.00017233,0.00002419,0.00007691,0.00003101,0.00006116,0.
 00032639,0.00003842,0.00028043,0.00012402,0.00065760,0.00368218,0.0099
 0775,0.00908154,0.04643750,0.13547367,0.17287870,0.00000771,-0.0000259
 0,0.00000719,0.00000869,0.00008127,-0.00003189,-0.00005246,-0.00005927
 ,0.00002195,0.00001098,0.00005224,-0.00011888,0.00040759,0.00041511,0.
 00120417,-0.00030946,0.00020403,0.00001409,-0.01510371,-0.00451029,0.0
 2773045,-0.00654082,0.00062624,-0.00317198,-0.12663102,-0.02018918,0.1
 1898461,-0.00000253,-0.00000784,-0.00000992,0.00002248,0.00000059,0.00
 000216,0.00000555,0.00002119,-0.00001795,0.00000693,-0.00007249,-0.000
 00393,0.00002710,0.00000006,-0.00000243,0.00000894,0.00000877,-0.00002
 521,0.00000878,0.00002581,-0.00006554,0.00027019,0.00007977,-0.0000067
 2,-0.00003159,0.00001667,0.00001513,0.00000277,0.00000460,-0.00012297,
 -0.00015446,0.00010721,-0.00025103,0.00054392,0.00012202,-0.00004706,0
 .00074918,-0.00093309,-0.00067483,0.00150597,0.00041732,-0.00014855,0.
 00009088,-0.00021556,-0.00007641,-0.00121165,-0.00010986,0.00200218,0.
 00022522,0.00016406,-0.00025706,0.00401856,0.00048561,-0.00689817,0.00
 412240,0.00178066,-0.00671214,0.13799388,-0.00000214,-0.00001243,0.000
 00530,-0.00002782,0.00000348,0.00001193,-0.00001981,-0.00001201,0.0000
 1940,0.00000770,0.00007899,-0.00025956,-0.00020658,-0.00016323,0.00070
 384,-0.00098846,0.00028174,-0.00049000,0.00179156,-0.00136305,-0.00209
 288,0.00070861,0.00017516,-0.00030840,-0.02032783,-0.05176182,0.030862
 51,0.00000299,0.00000512,0.00000275,0.00000756,0.00000057,-0.00000448,
 0.00000331,0.00000122,-0.00000695,0.00000331,-0.00002635,0.00001039,0.
 00002019,-0.00000128,-0.00000327,0.00001153,0.00000554,0.00000062,0.00
 000477,0.00001799,-0.00003478,0.00009039,-0.00001087,-0.00000164,-0.00
 002559,-0.00001344,0.00000947,-0.00006604,0.00009130,-0.00006791,0.000
 13007,-0.00009639,0.00008300,0.00029471,-0.00007582,0.00007265,-0.0003
 4269,-0.00108734,-0.00137059,-0.00010222,0.00029356,-0.00050040,0.0003
 0515,0.00024503,-0.00035893,0.00029462,0.00059072,-0.00008117,0.000043
 43,0.00022554,0.00047093,-0.01639523,-0.00355366,0.02451276,0.01327428
 ,0.00356913,-0.01944027,0.02151023,0.05259259,-0.00000092,0.00003007,0
 .00002398,0.00005353,-0.00004464,-0.00002448,0.00001644,0.00003016,-0.
 00001484,0.00002513,0.00022164,0.00010615,0.00065806,-0.00027672,0.000
 00710,-0.00023520,-0.00172922,-0.00138599,-0.00431579,-0.00130658,0.00
 675985,-0.00082477,-0.00057962,0.00031064,0.12131018,0.03184292,-0.227
 48665,0.00001708,0.00001444,0.00000348,-0.00000570,-0.00000469,-0.0000
 0160,-0.00000519,-0.00000919,0.00000592,0.00000364,0.00002382,-0.00000
 300,-0.00000699,-0.00000220,0.00000234,0.00000208,0.00000200,0.0000189
 3,-0.00001098,-0.00001593,0.00001494,-0.00003010,-0.00001141,0.0000020
 5,-0.00000226,-0.00000122,-0.00000319,-0.00003479,-0.00004608,-0.00001
 309,0.00005720,0.00010644,-0.00009325,-0.00051308,0.00005607,-0.000013
 98,-0.00179621,-0.00109985,-0.00142532,0.00069969,-0.00024548,0.000714
 53,-0.00021936,-0.00008157,0.00009552,-0.00016958,0.00016873,0.0003958
 3,-0.00014014,0.00033301,0.00027417,0.00594256,0.00048475,-0.01010944,
 0.01086474,0.00388467,-0.01740772,-0.13133927,-0.03174434,0.24924711\\
 0.00000263,0.00000822,-0.00000133,0.00000380,-0.00000616,0.00000227,-0
 .00000163,0.00000592,0.00000136,-0.00000392,-0.00000108,-0.00000591,-0
 .00000127,-0.00000187,0.00000143,0.00000761,-0.00000481,-0.00000469,-0
 .00000614,-0.00000344,-0.00000175,0.00000206,0.00000144,-0.00000308,0.
 00000556,-0.00000007,0.00000333,0.00000249,0.00000295,-0.00000108,-0.0
 0000218,0.00000107,-0.00000008,-0.00000022,0.00000218,-0.00000040,0.00
 000243,0.00000092,0.00000430,-0.00000043,0.00000200,-0.00000203,0.0000
 0048,0.00000116,0.00000068,-0.00000338,-0.00000133,0.00000088,-0.00000
 467,-0.00000250,0.00000066,-0.00000376,-0.00000102,-0.00000150,0.00000
 078,-0.00000084,-0.00000124,0.00000049,-0.00000080,0.00000108,0.000002
 19,0.00000184,0.00000382,-0.00000305,-0.00000152,-0.00000065,0.0000013
 3,0.00000079,0.00000088,0.00000023,-0.00000003,0.00000006,-0.00000033,
 -0.00000082,0.00000102,-0.00000027,0.00000067,-0.00000058,-0.00000027,
 -0.00000100,0.00000038,0.00000031,-0.00000194,0.00000036,-0.00000084,0
 .00000009,0.00000183\\\@


 THERE ARE PEOPLE SO ADDICTED TO EXAGERATING THEY
 CAN'T TELL THE TRUTH WITHOUT LYING. -- FORTUNE COOKIE
 Job cpu time:       0 days  3 hours  6 minutes 11.3 seconds.
 Elapsed time:       0 days  0 hours 46 minutes 36.9 seconds.
 File lengths (MBytes):  RWF=    254 Int=      0 D2E=      0 Chk=     11 Scr=      1
 Normal termination of Gaussian 16 at Sun May 28 16:49:04 2023.
### All Done ###
