### Starting Gaussian ###
 Entering Gaussian System, Link 0=g16
 Initial command:
 /cluster/software/gaussian/gaussian-16-A.03/avx2/g16/l1.exe "/local/scratch/linjian/Gau-7556.inp" -scrdir="/local/scratch/linjian/"
 Entering Link 1 = /cluster/software/gaussian/gaussian-16-A.03/avx2/g16/l1.exe PID=      7557.
  
 Copyright (c) 1988,1990,1992,1993,1995,1998,2003,2009,2016,
            Gaussian, Inc.  All Rights Reserved.
  
 This is part of the Gaussian(R) 16 program.  It is based on
 the Gaussian(R) 09 system (copyright 2009, Gaussian, Inc.),
 the Gaussian(R) 03 system (copyright 2003, Gaussian, Inc.),
 the Gaussian(R) 98 system (copyright 1998, Gaussian, Inc.),
 the Gaussian(R) 94 system (copyright 1995, Gaussian, Inc.),
 the Gaussian 92(TM) system (copyright 1992, Gaussian, Inc.),
 the Gaussian 90(TM) system (copyright 1990, Gaussian, Inc.),
 the Gaussian 88(TM) system (copyright 1988, Gaussian, Inc.),
 the Gaussian 86(TM) system (copyright 1986, Carnegie Mellon
 University), and the Gaussian 82(TM) system (copyright 1983,
 Carnegie Mellon University). Gaussian is a federally registered
 trademark of Gaussian, Inc.
  
 This software contains proprietary and confidential information,
 including trade secrets, belonging to Gaussian, Inc.
  
 This software is provided under written license and may be
 used, copied, transmitted, or stored only in accord with that
 written license.
  
 The following legend is applicable only to US Government
 contracts under FAR:
  
                    RESTRICTED RIGHTS LEGEND
  
 Use, reproduction and disclosure by the US Government is
 subject to restrictions as set forth in subparagraphs (a)
 and (c) of the Commercial Computer Software - Restricted
 Rights clause in FAR 52.227-19.
  
 Gaussian, Inc.
 340 Quinnipiac St., Bldg. 40, Wallingford CT 06492
  
  
 ---------------------------------------------------------------
 Warning -- This program may not be used in any manner that
 competes with the business of Gaussian, Inc. or will provide
 assistance to any competitor of Gaussian, Inc.  The licensee
 of this program is prohibited from giving any competitor of
 Gaussian, Inc. access to this program.  By using this program,
 the user acknowledges that Gaussian, Inc. is engaged in the
 business of creating and licensing software in the field of
 computational chemistry and represents and warrants to the
 licensee that it is not a competitor of Gaussian, Inc. and that
 it will not use this program in any manner prohibited above.
 ---------------------------------------------------------------
  

 Cite this work as:
 Gaussian 16, Revision A.03,
 M. J. Frisch, G. W. Trucks, H. B. Schlegel, G. E. Scuseria, 
 M. A. Robb, J. R. Cheeseman, G. Scalmani, V. Barone, 
 G. A. Petersson, H. Nakatsuji, X. Li, M. Caricato, A. V. Marenich, 
 J. Bloino, B. G. Janesko, R. Gomperts, B. Mennucci, H. P. Hratchian, 
 J. V. Ortiz, A. F. Izmaylov, J. L. Sonnenberg, D. Williams-Young, 
 F. Ding, F. Lipparini, F. Egidi, J. Goings, B. Peng, A. Petrone, 
 T. Henderson, D. Ranasinghe, V. G. Zakrzewski, J. Gao, N. Rega, 
 G. Zheng, W. Liang, M. Hada, M. Ehara, K. Toyota, R. Fukuda, 
 J. Hasegawa, M. Ishida, T. Nakajima, Y. Honda, O. Kitao, H. Nakai, 
 T. Vreven, K. Throssell, J. A. Montgomery, Jr., J. E. Peralta, 
 F. Ogliaro, M. J. Bearpark, J. J. Heyd, E. N. Brothers, K. N. Kudin, 
 V. N. Staroverov, T. A. Keith, R. Kobayashi, J. Normand, 
 K. Raghavachari, A. P. Rendell, J. C. Burant, S. S. Iyengar, 
 J. Tomasi, M. Cossi, J. M. Millam, M. Klene, C. Adamo, R. Cammi, 
 J. W. Ochterski, R. L. Martin, K. Morokuma, O. Farkas, 
 J. B. Foresman, and D. J. Fox, Gaussian, Inc., Wallingford CT, 2016.
 
 ******************************************
 Gaussian 16:  ES64L-G16RevA.03 25-Dec-2016
                29-May-2023 
 ******************************************
 %chk=CCqCrqCrC1C2CC1C2.chk
 %NProcShared=20
 Will use up to   20 processors via shared memory.
 -----------------------------
 # opt freq b3lyp/6-31g(2df,p)
 -----------------------------
 1/18=20,19=15,26=3,38=1/1,3;
 2/9=110,12=2,17=6,18=5,40=1/2;
 3/5=1,6=6,7=104,11=2,25=1,30=1,71=1,74=-5/1,2,3;
 4//1;
 5/5=2,38=5/2;
 6/7=2,8=2,9=2,10=2,28=1/1;
 7//1,2,3,16;
 1/18=20,19=15,26=3/3(2);
 2/9=110/2;
 99//99;
 2/9=110/2;
 3/5=1,6=6,7=104,11=2,25=1,30=1,71=1,74=-5/1,2,3;
 4/5=5,16=3,69=1/1;
 5/5=2,38=5/2;
 7//1,2,3,16;
 1/18=20,19=15,26=3/3(-5);
 2/9=110/2;
 6/7=2,8=2,9=2,10=2,19=2,28=1/1;
 99/9=1/99;
 -------------------
 Title Card Required
 -------------------
 Symbolic Z-matrix:
 Charge =  0 Multiplicity = 1
 C                     0.84944  -0.21209  -0.0144 
 C                     2.3779   -0.09728   0.07782 
 C                     2.89387  -0.41053   1.50933 
 C                     2.9761   -1.21596  -0.807 
 C                     2.84799   1.31227  -0.43815 
 C                     2.15463   2.77453  -0.31532 
 C                     3.66705   3.33403  -0.36841 
 C                     3.68275   2.11745   0.6351 
 C                     2.21042   2.53055   1.24066 
 H                     0.50454  -1.17323   0.38291 
 H                     0.51487  -0.13456  -1.05473 
 H                     0.32351   0.56767   0.53992 
 H                     2.54106  -1.38239   1.86534 
 H                     2.59142   0.31254   2.26886 
 H                     3.99142  -0.43697   1.52827 
 H                     2.67384  -2.20282  -0.42959 
 H                     4.07152  -1.18834  -0.80575 
 H                     2.63832  -1.14515  -1.84527 
 H                     3.28734   1.19382  -1.44312 
 H                     1.32747   3.13636  -0.89489 
 H                     3.85683   4.26986   0.17173 
 H                     4.23614   3.29378  -1.29425 
 H                     4.56241   1.71164   1.0964 
 H                     2.18238   3.4351    1.84922 
 H                     1.47061   1.83335   1.62414 
 

 GradGradGradGradGradGradGradGradGradGradGradGradGradGradGradGradGradGrad
 Berny optimization.
 Initialization pass.
                           ----------------------------
                           !    Initial Parameters    !
                           ! (Angstroms and Degrees)  !
 --------------------------                            --------------------------
 ! Name  Definition              Value          Derivative Info.                !
 --------------------------------------------------------------------------------
 ! R1    R(1,2)                  1.5355         estimate D2E/DX2                !
 ! R2    R(1,10)                 1.0957         estimate D2E/DX2                !
 ! R3    R(1,11)                 1.0956         estimate D2E/DX2                !
 ! R4    R(1,12)                 1.0917         estimate D2E/DX2                !
 ! R5    R(2,3)                  1.5536         estimate D2E/DX2                !
 ! R6    R(2,4)                  1.5467         estimate D2E/DX2                !
 ! R7    R(2,5)                  1.5729         estimate D2E/DX2                !
 ! R8    R(3,13)                 1.0935         estimate D2E/DX2                !
 ! R9    R(3,14)                 1.0914         estimate D2E/DX2                !
 ! R10   R(3,15)                 1.098          estimate D2E/DX2                !
 ! R11   R(4,16)                 1.099          estimate D2E/DX2                !
 ! R12   R(4,17)                 1.0958         estimate D2E/DX2                !
 ! R13   R(4,18)                 1.0941         estimate D2E/DX2                !
 ! R14   R(5,6)                  1.623          estimate D2E/DX2                !
 ! R15   R(5,8)                  1.5802         estimate D2E/DX2                !
 ! R16   R(5,19)                 1.1032         estimate D2E/DX2                !
 ! R17   R(6,7)                  1.6135         estimate D2E/DX2                !
 ! R18   R(6,9)                  1.576          estimate D2E/DX2                !
 ! R19   R(6,20)                 1.0729         estimate D2E/DX2                !
 ! R20   R(7,8)                  1.5771         estimate D2E/DX2                !
 ! R21   R(7,21)                 1.0971         estimate D2E/DX2                !
 ! R22   R(7,22)                 1.0875         estimate D2E/DX2                !
 ! R23   R(8,9)                  1.6447         estimate D2E/DX2                !
 ! R24   R(8,23)                 1.073          estimate D2E/DX2                !
 ! R25   R(9,24)                 1.0906         estimate D2E/DX2                !
 ! R26   R(9,25)                 1.0865         estimate D2E/DX2                !
 ! A1    A(2,1,10)             110.9239         estimate D2E/DX2                !
 ! A2    A(2,1,11)             110.8376         estimate D2E/DX2                !
 ! A3    A(2,1,12)             113.3046         estimate D2E/DX2                !
 ! A4    A(10,1,11)            108.0757         estimate D2E/DX2                !
 ! A5    A(10,1,12)            106.9039         estimate D2E/DX2                !
 ! A6    A(11,1,12)            106.528          estimate D2E/DX2                !
 ! A7    A(1,2,3)              111.7681         estimate D2E/DX2                !
 ! A8    A(1,2,4)              107.2503         estimate D2E/DX2                !
 ! A9    A(1,2,5)              110.1691         estimate D2E/DX2                !
 ! A10   A(3,2,4)              104.6459         estimate D2E/DX2                !
 ! A11   A(3,2,5)              112.5628         estimate D2E/DX2                !
 ! A12   A(4,2,5)              110.1763         estimate D2E/DX2                !
 ! A13   A(2,3,13)             111.8415         estimate D2E/DX2                !
 ! A14   A(2,3,14)             114.5582         estimate D2E/DX2                !
 ! A15   A(2,3,15)             110.6539         estimate D2E/DX2                !
 ! A16   A(13,3,14)            105.8329         estimate D2E/DX2                !
 ! A17   A(13,3,15)            107.1867         estimate D2E/DX2                !
 ! A18   A(14,3,15)            106.3166         estimate D2E/DX2                !
 ! A19   A(2,4,16)             110.2833         estimate D2E/DX2                !
 ! A20   A(2,4,17)             111.5775         estimate D2E/DX2                !
 ! A21   A(2,4,18)             112.1271         estimate D2E/DX2                !
 ! A22   A(16,4,17)            107.2895         estimate D2E/DX2                !
 ! A23   A(16,4,18)            107.4036         estimate D2E/DX2                !
 ! A24   A(17,4,18)            107.9432         estimate D2E/DX2                !
 ! A25   A(2,5,6)              130.9118         estimate D2E/DX2                !
 ! A26   A(2,5,8)              113.0608         estimate D2E/DX2                !
 ! A27   A(2,5,19)             108.7619         estimate D2E/DX2                !
 ! A28   A(6,5,8)               73.4526         estimate D2E/DX2                !
 ! A29   A(6,5,19)             109.6226         estimate D2E/DX2                !
 ! A30   A(8,5,19)             117.5839         estimate D2E/DX2                !
 ! A31   A(5,6,7)               84.8064         estimate D2E/DX2                !
 ! A32   A(5,6,9)               85.4181         estimate D2E/DX2                !
 ! A33   A(5,6,20)             126.3245         estimate D2E/DX2                !
 ! A34   A(7,6,9)               93.0374         estimate D2E/DX2                !
 ! A35   A(7,6,20)             126.0137         estimate D2E/DX2                !
 ! A36   A(9,6,20)             127.7968         estimate D2E/DX2                !
 ! A37   A(6,7,8)               73.7936         estimate D2E/DX2                !
 ! A38   A(6,7,21)             116.2163         estimate D2E/DX2                !
 ! A39   A(6,7,22)             120.3782         estimate D2E/DX2                !
 ! A40   A(8,7,21)             110.061          estimate D2E/DX2                !
 ! A41   A(8,7,22)             120.5268         estimate D2E/DX2                !
 ! A42   A(21,7,22)            111.1129         estimate D2E/DX2                !
 ! A43   A(5,8,7)               87.4574         estimate D2E/DX2                !
 ! A44   A(5,8,9)               84.5575         estimate D2E/DX2                !
 ! A45   A(5,8,23)             122.166          estimate D2E/DX2                !
 ! A46   A(7,8,9)               91.8116         estimate D2E/DX2                !
 ! A47   A(7,8,23)             124.9921         estimate D2E/DX2                !
 ! A48   A(9,8,23)             132.1136         estimate D2E/DX2                !
 ! A49   A(6,9,8)               72.9661         estimate D2E/DX2                !
 ! A50   A(6,9,24)             114.9371         estimate D2E/DX2                !
 ! A51   A(6,9,25)             115.0691         estimate D2E/DX2                !
 ! A52   A(8,9,24)             115.8996         estimate D2E/DX2                !
 ! A53   A(8,9,25)             125.3327         estimate D2E/DX2                !
 ! A54   A(24,9,25)            108.5288         estimate D2E/DX2                !
 ! D1    D(10,1,2,3)           -51.5944         estimate D2E/DX2                !
 ! D2    D(10,1,2,4)            62.5526         estimate D2E/DX2                !
 ! D3    D(10,1,2,5)          -177.5264         estimate D2E/DX2                !
 ! D4    D(11,1,2,3)          -171.6573         estimate D2E/DX2                !
 ! D5    D(11,1,2,4)           -57.5104         estimate D2E/DX2                !
 ! D6    D(11,1,2,5)            62.4106         estimate D2E/DX2                !
 ! D7    D(12,1,2,3)            68.6472         estimate D2E/DX2                !
 ! D8    D(12,1,2,4)          -177.2058         estimate D2E/DX2                !
 ! D9    D(12,1,2,5)           -57.2848         estimate D2E/DX2                !
 ! D10   D(1,2,3,13)            54.0541         estimate D2E/DX2                !
 ! D11   D(1,2,3,14)           -66.3648         estimate D2E/DX2                !
 ! D12   D(1,2,3,15)           173.4795         estimate D2E/DX2                !
 ! D13   D(4,2,3,13)           -61.6929         estimate D2E/DX2                !
 ! D14   D(4,2,3,14)           177.8881         estimate D2E/DX2                !
 ! D15   D(4,2,3,15)            57.7324         estimate D2E/DX2                !
 ! D16   D(5,2,3,13)           178.662          estimate D2E/DX2                !
 ! D17   D(5,2,3,14)            58.2431         estimate D2E/DX2                !
 ! D18   D(5,2,3,15)           -61.9126         estimate D2E/DX2                !
 ! D19   D(1,2,4,16)           -61.8155         estimate D2E/DX2                !
 ! D20   D(1,2,4,17)           179.0484         estimate D2E/DX2                !
 ! D21   D(1,2,4,18)            57.8213         estimate D2E/DX2                !
 ! D22   D(3,2,4,16)            57.0338         estimate D2E/DX2                !
 ! D23   D(3,2,4,17)           -62.1022         estimate D2E/DX2                !
 ! D24   D(3,2,4,18)           176.6706         estimate D2E/DX2                !
 ! D25   D(5,2,4,16)           178.2681         estimate D2E/DX2                !
 ! D26   D(5,2,4,17)            59.1321         estimate D2E/DX2                !
 ! D27   D(5,2,4,18)           -62.0951         estimate D2E/DX2                !
 ! D28   D(1,2,5,6)             35.2734         estimate D2E/DX2                !
 ! D29   D(1,2,5,8)            122.9425         estimate D2E/DX2                !
 ! D30   D(1,2,5,19)          -104.5164         estimate D2E/DX2                !
 ! D31   D(3,2,5,6)            -90.2082         estimate D2E/DX2                !
 ! D32   D(3,2,5,8)             -2.5392         estimate D2E/DX2                !
 ! D33   D(3,2,5,19)           130.002          estimate D2E/DX2                !
 ! D34   D(4,2,5,6)            153.4081         estimate D2E/DX2                !
 ! D35   D(4,2,5,8)           -118.9228         estimate D2E/DX2                !
 ! D36   D(4,2,5,19)            13.6183         estimate D2E/DX2                !
 ! D37   D(2,5,6,7)            151.431          estimate D2E/DX2                !
 ! D38   D(2,5,6,9)             57.9533         estimate D2E/DX2                !
 ! D39   D(2,5,6,20)           -76.8116         estimate D2E/DX2                !
 ! D40   D(8,5,6,7)             44.9771         estimate D2E/DX2                !
 ! D41   D(8,5,6,9)            -48.5007         estimate D2E/DX2                !
 ! D42   D(8,5,6,20)           176.7344         estimate D2E/DX2                !
 ! D43   D(19,5,6,7)           -69.0336         estimate D2E/DX2                !
 ! D44   D(19,5,6,9)          -162.5113         estimate D2E/DX2                !
 ! D45   D(19,5,6,20)           62.7238         estimate D2E/DX2                !
 ! D46   D(2,5,8,7)           -174.1519         estimate D2E/DX2                !
 ! D47   D(2,5,8,9)            -82.0878         estimate D2E/DX2                !
 ! D48   D(2,5,8,23)            55.2925         estimate D2E/DX2                !
 ! D49   D(6,5,8,7)            -46.1246         estimate D2E/DX2                !
 ! D50   D(6,5,8,9)             45.9395         estimate D2E/DX2                !
 ! D51   D(6,5,8,23)          -176.6802         estimate D2E/DX2                !
 ! D52   D(19,5,8,7)            57.7643         estimate D2E/DX2                !
 ! D53   D(19,5,8,9)           149.8284         estimate D2E/DX2                !
 ! D54   D(19,5,8,23)          -72.7913         estimate D2E/DX2                !
 ! D55   D(5,6,7,8)            -44.9879         estimate D2E/DX2                !
 ! D56   D(5,6,7,21)          -149.7647         estimate D2E/DX2                !
 ! D57   D(5,6,7,22)            71.2927         estimate D2E/DX2                !
 ! D58   D(9,6,7,8)             40.1275         estimate D2E/DX2                !
 ! D59   D(9,6,7,21)           -64.6493         estimate D2E/DX2                !
 ! D60   D(9,6,7,22)           156.4081         estimate D2E/DX2                !
 ! D61   D(20,6,7,8)          -176.9986         estimate D2E/DX2                !
 ! D62   D(20,6,7,21)           78.2246         estimate D2E/DX2                !
 ! D63   D(20,6,7,22)          -60.718          estimate D2E/DX2                !
 ! D64   D(5,6,9,8)             46.1722         estimate D2E/DX2                !
 ! D65   D(5,6,9,24)           157.3552         estimate D2E/DX2                !
 ! D66   D(5,6,9,25)           -75.4588         estimate D2E/DX2                !
 ! D67   D(7,6,9,8)            -38.3655         estimate D2E/DX2                !
 ! D68   D(7,6,9,24)            72.8175         estimate D2E/DX2                !
 ! D69   D(7,6,9,25)          -159.9965         estimate D2E/DX2                !
 ! D70   D(20,6,9,8)           179.7934         estimate D2E/DX2                !
 ! D71   D(20,6,9,24)          -69.0236         estimate D2E/DX2                !
 ! D72   D(20,6,9,25)           58.1624         estimate D2E/DX2                !
 ! D73   D(6,7,8,5)             46.3715         estimate D2E/DX2                !
 ! D74   D(6,7,8,9)            -38.097          estimate D2E/DX2                !
 ! D75   D(6,7,8,23)           174.644          estimate D2E/DX2                !
 ! D76   D(21,7,8,5)           158.9295         estimate D2E/DX2                !
 ! D77   D(21,7,8,9)            74.4609         estimate D2E/DX2                !
 ! D78   D(21,7,8,23)          -72.7981         estimate D2E/DX2                !
 ! D79   D(22,7,8,5)           -69.7315         estimate D2E/DX2                !
 ! D80   D(22,7,8,9)          -154.2            estimate D2E/DX2                !
 ! D81   D(22,7,8,23)           58.541          estimate D2E/DX2                !
 ! D82   D(5,8,9,6)            -47.8963         estimate D2E/DX2                !
 ! D83   D(5,8,9,24)          -157.8607         estimate D2E/DX2                !
 ! D84   D(5,8,9,25)            61.1308         estimate D2E/DX2                !
 ! D85   D(7,8,9,6)             39.3755         estimate D2E/DX2                !
 ! D86   D(7,8,9,24)           -70.5889         estimate D2E/DX2                !
 ! D87   D(7,8,9,25)           148.4026         estimate D2E/DX2                !
 ! D88   D(23,8,9,6)          -177.3001         estimate D2E/DX2                !
 ! D89   D(23,8,9,24)           72.7355         estimate D2E/DX2                !
 ! D90   D(23,8,9,25)          -68.273          estimate D2E/DX2                !
 --------------------------------------------------------------------------------
 Trust Radius=3.00D-01 FncErr=1.00D-07 GrdErr=1.00D-06 EigMax=2.50D+02 EigMin=1.00D-04
 Number of steps in this run=    150 maximum allowed number of steps=    150.
 GradGradGradGradGradGradGradGradGradGradGradGradGradGradGradGradGradGrad

                          Input orientation:                          
 ---------------------------------------------------------------------
 Center     Atomic      Atomic             Coordinates (Angstroms)
 Number     Number       Type             X           Y           Z
 ---------------------------------------------------------------------
      1          6           0        0.849440   -0.212090   -0.014400
      2          6           0        2.377900   -0.097280    0.077820
      3          6           0        2.893870   -0.410530    1.509330
      4          6           0        2.976100   -1.215960   -0.807000
      5          6           0        2.847990    1.312270   -0.438150
      6          6           0        2.154630    2.774530   -0.315320
      7          6           0        3.667050    3.334030   -0.368410
      8          6           0        3.682750    2.117450    0.635100
      9          6           0        2.210420    2.530550    1.240660
     10          1           0        0.504540   -1.173230    0.382910
     11          1           0        0.514870   -0.134560   -1.054730
     12          1           0        0.323510    0.567670    0.539920
     13          1           0        2.541060   -1.382390    1.865340
     14          1           0        2.591420    0.312540    2.268860
     15          1           0        3.991420   -0.436970    1.528270
     16          1           0        2.673840   -2.202820   -0.429590
     17          1           0        4.071520   -1.188340   -0.805750
     18          1           0        2.638320   -1.145150   -1.845270
     19          1           0        3.287340    1.193820   -1.443120
     20          1           0        1.327470    3.136360   -0.894890
     21          1           0        3.856830    4.269860    0.171730
     22          1           0        4.236140    3.293780   -1.294250
     23          1           0        4.562410    1.711640    1.096400
     24          1           0        2.182380    3.435100    1.849220
     25          1           0        1.470610    1.833350    1.624140
 ---------------------------------------------------------------------
                    Distance matrix (angstroms):
                    1          2          3          4          5
     1  C    0.000000
     2  C    1.535538   0.000000
     3  C    2.557504   1.553567   0.000000
     4  C    2.481663   1.546672   2.453745   0.000000
     5  C    2.549008   1.572908   2.600543   2.558204   0.000000
     6  C    3.273221   2.907181   3.744387   4.103727   1.622972
     7  C    4.543040   3.692549   4.259747   4.623006   2.182484
     8  C    3.725084   2.630252   2.788780   3.700085   1.580191
     9  C    3.309005   2.878496   3.031376   4.337685   2.170047
    10  H    1.095720   2.181794   2.749442   2.743414   3.513347
    11  H    1.095552   2.180583   3.508590   2.699713   2.813705
    12  H    1.091741   2.208215   2.916056   3.468683   2.807855
    13  H    2.786504   2.207568   1.093494   2.712630   3.558295
    14  H    2.919419   2.239241   1.091417   3.456184   2.897101
    15  H    3.507483   2.196051   1.098032   2.662928   2.869509
    16  H    2.732000   2.185942   2.649552   1.098950   3.519412
    17  H    3.458482   2.199876   2.711355   1.095769   2.808061
    18  H    2.724477   2.205476   3.443590   1.094127   2.839518
    19  H    3.156134   2.192551   3.383152   2.511684   1.103188
    20  H    3.495124   3.536382   4.562270   4.654932   2.418243
    21  H    5.400640   4.611720   4.962108   5.641615   3.183873
    22  H    5.039730   4.103038   4.835666   4.707746   2.566369
    23  H    4.326749   3.013599   2.730960   3.835382   2.335289
    24  H    4.307180   3.956488   3.925635   5.414596   3.190847
    25  H    2.693416   2.634694   2.659671   4.180339   2.534115
                    6          7          8          9         10
     6  C    0.000000
     7  C    1.613466   0.000000
     8  C    1.915777   1.577132   0.000000
     9  C    1.575980   2.314402   1.644722   0.000000
    10  H    4.335335   5.557099   4.581833   4.166983   0.000000
    11  H    3.420284   4.736918   4.238223   3.904679   1.773626
    12  H    2.992435   4.433630   3.700726   2.811470   1.757315
    13  H    4.710052   5.338737   3.881472   3.976260   2.527600
    14  H    3.595854   4.152298   2.667934   2.474252   3.181099
    15  H    4.133564   4.233563   2.723617   3.472874   3.743295
    16  H    5.005662   5.625559   4.562477   5.040762   2.534970
    17  H    4.429371   4.561435   3.627043   4.634828   3.759852
    18  H    4.235398   4.827262   4.229377   4.818385   3.085221
    19  H    2.248023   2.424805   2.308341   3.185793   4.084273
    20  H    1.072854   2.406219   2.987707   2.388971   4.569743
    21  H    2.317480   1.097062   2.208593   2.622685   6.396067
    22  H    2.358094   1.087503   2.326453   3.333441   6.057382
    23  H    2.986652   2.362094   1.072978   2.494651   5.029697
    24  H    2.263262   2.670645   2.336964   1.090570   5.118781
    25  H    2.261683   3.323649   2.439770   1.086491   3.393150
                   11         12         13         14         15
    11  H    0.000000
    12  H    1.752899   0.000000
    13  H    3.766873   3.236819   0.000000
    14  H    3.944390   2.863170   1.743030   0.000000
    15  H    4.341629   3.929338   1.763797   1.752210   0.000000
    16  H    3.054448   3.760268   2.440787   3.689913   2.947450
    17  H    3.717822   4.352238   3.084588   3.727809   2.453288
    18  H    2.480985   3.739148   3.719458   4.364989   3.703130
    19  H    3.098714   3.620608   4.259073   3.878112   3.461844
    20  H    3.374135   3.108824   5.432382   4.425025   5.073167
    21  H    5.663198   5.130899   6.045452   4.653987   4.900262
    22  H    5.065445   5.109259   5.892612   4.928352   4.684549
    23  H    4.941497   4.425676   3.774937   2.686437   2.264744
    24  H    4.894485   3.659483   4.830851   3.177073   4.285856
    25  H    3.458678   2.023195   3.397797   1.996182   3.393822
                   16         17         18         19         20
    16  H    0.000000
    17  H    1.767534   0.000000
    18  H    1.767506   1.771025   0.000000
    19  H    3.597331   2.587637   2.460433   0.000000
    20  H    5.525944   5.122576   4.577431   2.813380   0.000000
    21  H    6.607317   5.549190   5.905539   3.520523   2.969876
    22  H    5.779362   4.511666   4.749816   2.309159   2.940175
    23  H    4.606337   3.502718   4.529547   2.888443   4.057080
    24  H    6.100873   5.656316   5.902188   4.133252   2.889681
    25  H    4.685748   4.669016   4.719302   3.621821   2.839689
                   21         22         23         24         25
    21  H    0.000000
    22  H    1.801584   0.000000
    23  H    2.810222   2.885278   0.000000
    24  H    2.512883   3.757566   3.033413   0.000000
    25  H    3.706767   4.277618   3.138877   1.767167   0.000000
 Stoichiometry    C9H16
 Framework group  C1[X(C9H16)]
 Deg. of freedom    69
 Full point group                 C1      NOp   1
 Largest Abelian subgroup         C1      NOp   1
 Largest concise Abelian subgroup C1      NOp   1
                         Standard orientation:                         
 ---------------------------------------------------------------------
 Center     Atomic      Atomic             Coordinates (Angstroms)
 Number     Number       Type             X           Y           Z
 ---------------------------------------------------------------------
      1          6           0       -1.596693    1.135152   -0.934039
      2          6           0       -1.164487   -0.046330   -0.053599
      3          6           0       -1.323058    0.273592    1.458379
      4          6           0       -2.159234   -1.201389   -0.315348
      5          6           0        0.296733   -0.493965   -0.425754
      6          6           0        1.586063    0.371828   -0.896997
      7          6           0        2.445635   -0.806750   -0.207531
      8          6           0        1.287786   -0.456595    0.804458
      9          6           0        1.403215    1.148007    0.462350
     10          1           0       -2.596832    1.485460   -0.655458
     11          1           0       -1.619853    0.845923   -1.990469
     12          1           0       -0.927712    1.994904   -0.862002
     13          1           0       -2.336493    0.605846    1.699805
     14          1           0       -0.657291    1.055015    1.828950
     15          1           0       -1.120507   -0.618112    2.066253
     16          1           0       -3.176234   -0.901027   -0.026928
     17          1           0       -1.904767   -2.092606    0.269192
     18          1           0       -2.189572   -1.487912   -1.370857
     19          1           0        0.243624   -1.427762   -1.010755
     20          1           0        1.751692    0.785216   -1.873057
     21          1           0        3.415411   -0.515816    0.214889
     22          1           0        2.498170   -1.790617   -0.667866
     23          1           0        1.086699   -0.985265    1.716244
     24          1           0        2.299123    1.650056    0.829281
     25          1           0        0.578775    1.855400    0.481260
 ---------------------------------------------------------------------
 Rotational constants (GHZ):           2.7973985           1.2005176           1.1793592
 Standard basis: 6-31G(2df,p) (6D, 7F)
 There are   359 symmetry adapted cartesian basis functions of A   symmetry.
 There are   332 symmetry adapted basis functions of A   symmetry.
   332 basis functions,   508 primitive gaussians,   359 cartesian basis functions
    35 alpha electrons       35 beta electrons
       nuclear repulsion energy       483.5482563589 Hartrees.
 NAtoms=   25 NActive=   25 NUniq=   25 SFac= 1.00D+00 NAtFMM=   60 NAOKFM=F Big=F
 Integral buffers will be    131072 words long.
 Raffenetti 2 integral format.
 Two-electron integral symmetry is turned on.
 One-electron integrals computed using PRISM.
 PrsmSu:  requested number of processors reduced to:  13 ShMem   1 Linda.
 NBasis=   332 RedAO= T EigKep=  3.74D-04  NBF=   332
 NBsUse=   332 1.00D-06 EigRej= -1.00D+00 NBFU=   332
 ExpMin= 1.61D-01 ExpMax= 3.05D+03 ExpMxC= 4.57D+02 IAcc=3 IRadAn=         5 AccDes= 0.00D+00
 Harris functional with IExCor=  402 and IRadAn=       5 diagonalized for initial guess.
 HarFok:  IExCor=  402 AccDes= 0.00D+00 IRadAn=         5 IDoV= 1 UseB2=F ITyADJ=14
 ICtDFT=  3500011 ScaDFX=  1.000000  1.000000  1.000000  1.000000
 FoFCou: FMM=F IPFlag=           0 FMFlag=      100000 FMFlg1=           0
         NFxFlg=           0 DoJE=T BraDBF=F KetDBF=T FulRan=T
         wScrn=  0.000000 ICntrl=       500 IOpCl=  0 I1Cent=   200000004 NGrid=           0
         NMat0=    1 NMatS0=      1 NMatT0=    0 NMatD0=    1 NMtDS0=    0 NMtDT0=    0
 Petite list used in FoFCou.
 Requested convergence on RMS density matrix=1.00D-08 within 128 cycles.
 Requested convergence on MAX density matrix=1.00D-06.
 Requested convergence on             energy=1.00D-06.
 No special actions if energy rises.
 Integral accuracy reduced to 1.0D-05 until final iterations.
 Initial convergence to 1.0D-05 achieved.  Increase integral accuracy.
 SCF Done:  E(RB3LYP) =  -352.505868281     A.U. after   12 cycles
            NFock= 12  Conv=0.60D-08     -V/T= 2.0097

 **********************************************************************

            Population analysis using the SCF density.

 **********************************************************************

 Orbital symmetries:
       Occupied  (A) (A) (A) (A) (A) (A) (A) (A) (A) (A) (A) (A)
                 (A) (A) (A) (A) (A) (A) (A) (A) (A) (A) (A) (A)
                 (A) (A) (A) (A) (A) (A) (A) (A) (A) (A) (A)
       Virtual   (A) (A) (A) (A) (A) (A) (A) (A) (A) (A) (A) (A)
                 (A) (A) (A) (A) (A) (A) (A) (A) (A) (A) (A) (A)
                 (A) (A) (A) (A) (A) (A) (A) (A) (A) (A) (A) (A)
                 (A) (A) (A) (A) (A) (A) (A) (A) (A) (A) (A) (A)
                 (A) (A) (A) (A) (A) (A) (A) (A) (A) (A) (A) (A)
                 (A) (A) (A) (A) (A) (A) (A) (A) (A) (A) (A) (A)
                 (A) (A) (A) (A) (A) (A) (A) (A) (A) (A) (A) (A)
                 (A) (A) (A) (A) (A) (A) (A) (A) (A) (A) (A) (A)
                 (A) (A) (A) (A) (A) (A) (A) (A) (A) (A) (A) (A)
                 (A) (A) (A) (A) (A) (A) (A) (A) (A) (A) (A) (A)
                 (A) (A) (A) (A) (A) (A) (A) (A) (A) (A) (A) (A)
                 (A) (A) (A) (A) (A) (A) (A) (A) (A) (A) (A) (A)
                 (A) (A) (A) (A) (A) (A) (A) (A) (A) (A) (A) (A)
                 (A) (A) (A) (A) (A) (A) (A) (A) (A) (A) (A) (A)
                 (A) (A) (A) (A) (A) (A) (A) (A) (A) (A) (A) (A)
                 (A) (A) (A) (A) (A) (A) (A) (A) (A) (A) (A) (A)
                 (A) (A) (A) (A) (A) (A) (A) (A) (A) (A) (A) (A)
                 (A) (A) (A) (A) (A) (A) (A) (A) (A) (A) (A) (A)
                 (A) (A) (A) (A) (A) (A) (A) (A) (A) (A) (A) (A)
                 (A) (A) (A) (A) (A) (A) (A) (A) (A) (A) (A) (A)
                 (A) (A) (A) (A) (A) (A) (A) (A) (A) (A) (A) (A)
                 (A) (A) (A) (A) (A) (A) (A) (A) (A) (A) (A) (A)
                 (A) (A) (A) (A) (A) (A) (A) (A) (A) (A) (A) (A)
                 (A) (A) (A) (A) (A) (A) (A) (A) (A) (A) (A) (A)
                 (A) (A) (A) (A) (A) (A) (A) (A) (A)
 The electronic state is 1-A.
 Alpha  occ. eigenvalues --  -10.20101 -10.19800 -10.19202 -10.18786 -10.18539
 Alpha  occ. eigenvalues --  -10.18440 -10.16708 -10.16535 -10.16386  -0.87998
 Alpha  occ. eigenvalues --   -0.79913  -0.68145  -0.67853  -0.65900  -0.64644
 Alpha  occ. eigenvalues --   -0.61178  -0.55340  -0.50913  -0.49310  -0.45448
 Alpha  occ. eigenvalues --   -0.44515  -0.43170  -0.40610  -0.38632  -0.38267
 Alpha  occ. eigenvalues --   -0.37165  -0.35719  -0.35459  -0.33491  -0.32109
 Alpha  occ. eigenvalues --   -0.31159  -0.30398  -0.29450  -0.27832  -0.26924
 Alpha virt. eigenvalues --    0.08514   0.09197   0.11603   0.11853   0.12430
 Alpha virt. eigenvalues --    0.13433   0.14572   0.15413   0.15535   0.15746
 Alpha virt. eigenvalues --    0.16632   0.17006   0.18294   0.18993   0.19461
 Alpha virt. eigenvalues --    0.20204   0.20996   0.21230   0.22121   0.22721
 Alpha virt. eigenvalues --    0.25517   0.25938   0.27324   0.27895   0.28984
 Alpha virt. eigenvalues --    0.30564   0.43722   0.45653   0.46567   0.46862
 Alpha virt. eigenvalues --    0.47842   0.48084   0.49998   0.50470   0.52486
 Alpha virt. eigenvalues --    0.53203   0.54428   0.56715   0.57183   0.58967
 Alpha virt. eigenvalues --    0.59598   0.61582   0.62667   0.63751   0.65481
 Alpha virt. eigenvalues --    0.68138   0.69932   0.71635   0.72463   0.73009
 Alpha virt. eigenvalues --    0.73559   0.74342   0.74560   0.75840   0.76717
 Alpha virt. eigenvalues --    0.77514   0.77906   0.78199   0.78748   0.79772
 Alpha virt. eigenvalues --    0.80480   0.81279   0.83488   0.84218   0.84765
 Alpha virt. eigenvalues --    0.88428   0.88966   0.89883   0.93394   0.94323
 Alpha virt. eigenvalues --    0.97247   1.00649   1.04558   1.05254   1.10300
 Alpha virt. eigenvalues --    1.11542   1.14478   1.16510   1.21764   1.22530
 Alpha virt. eigenvalues --    1.25247   1.26739   1.28918   1.30420   1.32947
 Alpha virt. eigenvalues --    1.35032   1.36223   1.36296   1.38509   1.39191
 Alpha virt. eigenvalues --    1.40941   1.44965   1.45440   1.46697   1.47517
 Alpha virt. eigenvalues --    1.50474   1.50670   1.54005   1.55169   1.56679
 Alpha virt. eigenvalues --    1.57307   1.58606   1.59374   1.63440   1.63991
 Alpha virt. eigenvalues --    1.65437   1.67052   1.67806   1.74184   1.74345
 Alpha virt. eigenvalues --    1.76524   1.78968   1.83285   1.84363   1.85748
 Alpha virt. eigenvalues --    1.86863   1.89667   1.91732   1.95471   1.97581
 Alpha virt. eigenvalues --    1.98558   1.98882   2.00367   2.03868   2.10621
 Alpha virt. eigenvalues --    2.19852   2.24749   2.26464   2.28516   2.29883
 Alpha virt. eigenvalues --    2.31098   2.31312   2.33497   2.34865   2.38382
 Alpha virt. eigenvalues --    2.38785   2.39250   2.43481   2.44807   2.45521
 Alpha virt. eigenvalues --    2.48743   2.49566   2.51450   2.53652   2.55238
 Alpha virt. eigenvalues --    2.60275   2.61079   2.61584   2.70361   2.72792
 Alpha virt. eigenvalues --    2.74606   2.77345   2.78729   2.79838   2.80437
 Alpha virt. eigenvalues --    2.81561   2.83465   2.84448   2.85595   2.86934
 Alpha virt. eigenvalues --    2.90276   2.91408   2.93889   2.95209   2.95631
 Alpha virt. eigenvalues --    2.96545   2.97518   2.97883   3.00281   3.01188
 Alpha virt. eigenvalues --    3.02468   3.03859   3.06003   3.07022   3.09266
 Alpha virt. eigenvalues --    3.10505   3.11998   3.12733   3.12984   3.17004
 Alpha virt. eigenvalues --    3.17149   3.19286   3.23321   3.24734   3.27574
 Alpha virt. eigenvalues --    3.29901   3.31826   3.32181   3.38486   3.39934
 Alpha virt. eigenvalues --    3.40411   3.41585   3.43220   3.44795   3.48514
 Alpha virt. eigenvalues --    3.50424   3.53451   3.58699   3.59204   3.61450
 Alpha virt. eigenvalues --    3.62683   3.63849   3.66129   3.67039   3.68494
 Alpha virt. eigenvalues --    3.76854   3.77839   3.79326   3.83554   3.84747
 Alpha virt. eigenvalues --    3.86579   3.86654   3.89961   3.90789   3.97327
 Alpha virt. eigenvalues --    3.98734   4.05135   4.06144   4.08087   4.08636
 Alpha virt. eigenvalues --    4.11896   4.13808   4.15163   4.20417   4.24691
 Alpha virt. eigenvalues --    4.26000   4.28179   4.30632   4.33954   4.34935
 Alpha virt. eigenvalues --    4.39002   4.40764   4.41467   4.45281   4.46766
 Alpha virt. eigenvalues --    4.48712   4.50164   4.52528   4.53888   4.56162
 Alpha virt. eigenvalues --    4.58923   4.59043   4.60484   4.61922   4.62736
 Alpha virt. eigenvalues --    4.66822   4.67965   4.70423   4.71051   4.73056
 Alpha virt. eigenvalues --    4.74508   4.75479   4.75955   4.76300   4.78727
 Alpha virt. eigenvalues --    4.80454   4.81661   4.83018   4.83308   4.86049
 Alpha virt. eigenvalues --    4.88128   4.90317   4.90545   4.95761   4.97280
 Alpha virt. eigenvalues --    4.99521   5.02299   5.05518   5.07376   5.11484
 Alpha virt. eigenvalues --    5.13676   5.18406   5.32749   5.34548   5.41092
 Alpha virt. eigenvalues --    5.43865   5.45869   5.46749   5.47777   5.53191
 Alpha virt. eigenvalues --    5.54939   5.59307   5.63688   5.73745   5.93062
 Alpha virt. eigenvalues --    6.04180   6.12500   7.20254  11.02501  11.36666
 Alpha virt. eigenvalues --   11.78719  11.89834  11.94499  12.13236  12.28382
 Alpha virt. eigenvalues --   12.65002  13.18608
          Condensed to atoms (all electrons):
               1          2          3          4          5          6
     1  C    5.078449   0.393771  -0.050115  -0.051995  -0.045082  -0.009179
     2  C    0.393771   4.392459   0.404450   0.391003   0.425899  -0.014492
     3  C   -0.050115   0.404450   5.086706  -0.063300  -0.032519   0.000041
     4  C   -0.051995   0.391003  -0.063300   5.094918  -0.023427   0.003130
     5  C   -0.045082   0.425899  -0.032519  -0.023427   4.801492   0.331734
     6  C   -0.009179  -0.014492   0.000041   0.003130   0.331734   4.927132
     7  C    0.000021   0.005216   0.000681  -0.000237  -0.041179   0.344953
     8  C    0.003986  -0.031388  -0.020212   0.003426   0.339643  -0.049347
     9  C   -0.003707  -0.003588  -0.004359  -0.000618  -0.040069   0.322575
    10  H    0.359616  -0.019049  -0.005467  -0.004103   0.004454   0.000146
    11  H    0.364982  -0.018617   0.005480  -0.007592  -0.003326   0.000902
    12  H    0.365024  -0.019199  -0.004055   0.005961  -0.006503   0.003320
    13  H   -0.006056  -0.021289   0.364653  -0.004841   0.004208  -0.000100
    14  H   -0.003434  -0.015114   0.364787   0.005952  -0.006625   0.000986
    15  H    0.005284  -0.015931   0.362715  -0.006114  -0.005804  -0.000094
    16  H   -0.004807  -0.020411  -0.004809   0.366867   0.002720  -0.000100
    17  H    0.005694  -0.018364  -0.004762   0.361536  -0.004064  -0.000107
    18  H   -0.005065  -0.016899   0.005596   0.358680  -0.004500   0.000013
    19  H    0.003661  -0.046803   0.006492  -0.015149   0.352450  -0.056659
    20  H    0.000526   0.000033  -0.000116   0.000021  -0.034556   0.354459
    21  H    0.000009  -0.000314   0.000000   0.000004   0.004980  -0.016206
    22  H    0.000006   0.000223   0.000023  -0.000025  -0.007831  -0.023270
    23  H   -0.000054  -0.001063   0.000502   0.000208  -0.037397   0.011993
    24  H    0.000228  -0.000130   0.000231  -0.000011   0.006050  -0.020389
    25  H   -0.001415   0.003985  -0.004652   0.000044  -0.012137  -0.027977
               7          8          9         10         11         12
     1  C    0.000021   0.003986  -0.003707   0.359616   0.364982   0.365024
     2  C    0.005216  -0.031388  -0.003588  -0.019049  -0.018617  -0.019199
     3  C    0.000681  -0.020212  -0.004359  -0.005467   0.005480  -0.004055
     4  C   -0.000237   0.003426  -0.000618  -0.004103  -0.007592   0.005961
     5  C   -0.041179   0.339643  -0.040069   0.004454  -0.003326  -0.006503
     6  C    0.344953  -0.049347   0.322575   0.000146   0.000902   0.003320
     7  C    4.986961   0.347040  -0.023559  -0.000001   0.000013  -0.000018
     8  C    0.347040   4.876178   0.325589  -0.000227  -0.000077   0.000416
     9  C   -0.023559   0.325589   5.009235   0.000070   0.000360  -0.003922
    10  H   -0.000001  -0.000227   0.000070   0.619195  -0.031658  -0.033374
    11  H    0.000013  -0.000077   0.000360  -0.031658   0.607987  -0.033030
    12  H   -0.000018   0.000416  -0.003922  -0.033374  -0.033030   0.608405
    13  H   -0.000024   0.000129   0.000275   0.004285  -0.000027   0.000050
    14  H    0.000042   0.003352  -0.004200   0.000139  -0.000094   0.001177
    15  H    0.000125   0.002538   0.000289  -0.000042  -0.000191  -0.000064
    16  H    0.000004  -0.000159   0.000019   0.003804   0.000055  -0.000065
    17  H   -0.000042   0.000675   0.000070  -0.000118   0.000005  -0.000227
    18  H    0.000001  -0.000100   0.000039  -0.000026   0.005044  -0.000076
    19  H   -0.005466  -0.039117   0.012489  -0.000271   0.001008  -0.000134
    20  H   -0.041034   0.012571  -0.041834  -0.000019   0.000030   0.000206
    21  H    0.349037  -0.023799  -0.011727  -0.000000  -0.000000   0.000003
    22  H    0.374674  -0.021986   0.006269  -0.000000  -0.000000   0.000001
    23  H   -0.041678   0.353126  -0.035692   0.000007  -0.000000   0.000002
    24  H   -0.009367  -0.020712   0.347019  -0.000001  -0.000008  -0.000047
    25  H    0.005503  -0.017736   0.381571   0.000045  -0.000133   0.005551
              13         14         15         16         17         18
     1  C   -0.006056  -0.003434   0.005284  -0.004807   0.005694  -0.005065
     2  C   -0.021289  -0.015114  -0.015931  -0.020411  -0.018364  -0.016899
     3  C    0.364653   0.364787   0.362715  -0.004809  -0.004762   0.005596
     4  C   -0.004841   0.005952  -0.006114   0.366867   0.361536   0.358680
     5  C    0.004208  -0.006625  -0.005804   0.002720  -0.004064  -0.004500
     6  C   -0.000100   0.000986  -0.000094  -0.000100  -0.000107   0.000013
     7  C   -0.000024   0.000042   0.000125   0.000004  -0.000042   0.000001
     8  C    0.000129   0.003352   0.002538  -0.000159   0.000675  -0.000100
     9  C    0.000275  -0.004200   0.000289   0.000019   0.000070   0.000039
    10  H    0.004285   0.000139  -0.000042   0.003804  -0.000118  -0.000026
    11  H   -0.000027  -0.000094  -0.000191   0.000055   0.000005   0.005044
    12  H    0.000050   0.001177  -0.000064  -0.000065  -0.000227  -0.000076
    13  H    0.621383  -0.033714  -0.032484   0.003630  -0.000062  -0.000018
    14  H   -0.033714   0.602725  -0.034416  -0.000022  -0.000078  -0.000234
    15  H   -0.032484  -0.034416   0.607598   0.000139   0.004780   0.000015
    16  H    0.003630  -0.000022   0.000139   0.609827  -0.032903  -0.032233
    17  H   -0.000062  -0.000078   0.004780  -0.032903   0.610194  -0.032701
    18  H   -0.000018  -0.000234   0.000015  -0.032233  -0.032701   0.611755
    19  H   -0.000140  -0.000197   0.000156   0.000120   0.003018   0.005286
    20  H    0.000001   0.000011   0.000001  -0.000000   0.000001  -0.000006
    21  H   -0.000000   0.000007   0.000003  -0.000000   0.000001   0.000000
    22  H   -0.000000  -0.000003  -0.000004   0.000000   0.000000  -0.000001
    23  H    0.000027   0.000091   0.001020  -0.000014  -0.000022  -0.000001
    24  H   -0.000008   0.000309  -0.000034  -0.000000   0.000000  -0.000000
    25  H    0.000297   0.000967   0.000081   0.000008   0.000004   0.000004
              19         20         21         22         23         24
     1  C    0.003661   0.000526   0.000009   0.000006  -0.000054   0.000228
     2  C   -0.046803   0.000033  -0.000314   0.000223  -0.001063  -0.000130
     3  C    0.006492  -0.000116   0.000000   0.000023   0.000502   0.000231
     4  C   -0.015149   0.000021   0.000004  -0.000025   0.000208  -0.000011
     5  C    0.352450  -0.034556   0.004980  -0.007831  -0.037397   0.006050
     6  C   -0.056659   0.354459  -0.016206  -0.023270   0.011993  -0.020389
     7  C   -0.005466  -0.041034   0.349037   0.374674  -0.041678  -0.009367
     8  C   -0.039117   0.012571  -0.023799  -0.021986   0.353126  -0.020712
     9  C    0.012489  -0.041834  -0.011727   0.006269  -0.035692   0.347019
    10  H   -0.000271  -0.000019  -0.000000  -0.000000   0.000007  -0.000001
    11  H    0.001008   0.000030  -0.000000  -0.000000  -0.000000  -0.000008
    12  H   -0.000134   0.000206   0.000003   0.000001   0.000002  -0.000047
    13  H   -0.000140   0.000001  -0.000000  -0.000000   0.000027  -0.000008
    14  H   -0.000197   0.000011   0.000007  -0.000003   0.000091   0.000309
    15  H    0.000156   0.000001   0.000003  -0.000004   0.001020  -0.000034
    16  H    0.000120  -0.000000  -0.000000   0.000000  -0.000014  -0.000000
    17  H    0.003018   0.000001   0.000001   0.000000  -0.000022   0.000000
    18  H    0.005286  -0.000006   0.000000  -0.000001  -0.000001  -0.000000
    19  H    0.719386   0.000214  -0.000126   0.008183  -0.000765  -0.000566
    20  H    0.000214   0.679942   0.001012   0.000416  -0.000937   0.000257
    21  H   -0.000126   0.001012   0.648896  -0.045840   0.000921   0.007410
    22  H    0.008183   0.000416  -0.045840   0.604719  -0.000020  -0.000236
    23  H   -0.000765  -0.000937   0.000921  -0.000020   0.676668   0.000987
    24  H   -0.000566   0.000257   0.007410  -0.000236   0.000987   0.650843
    25  H    0.000206   0.000135  -0.000184  -0.000296   0.000073  -0.045451
              25
     1  C   -0.001415
     2  C    0.003985
     3  C   -0.004652
     4  C    0.000044
     5  C   -0.012137
     6  C   -0.027977
     7  C    0.005503
     8  C   -0.017736
     9  C    0.381571
    10  H    0.000045
    11  H   -0.000133
    12  H    0.005551
    13  H    0.000297
    14  H    0.000967
    15  H    0.000081
    16  H    0.000008
    17  H    0.000004
    18  H    0.000004
    19  H    0.000206
    20  H    0.000135
    21  H   -0.000184
    22  H   -0.000296
    23  H    0.000073
    24  H   -0.045451
    25  H    0.593394
 Mulliken charges:
               1
     1  C   -0.400349
     2  C    0.245610
     3  C   -0.407991
     4  C   -0.414338
     5  C    0.031390
     6  C   -0.083466
     7  C   -0.251666
     8  C   -0.043809
     9  C   -0.232596
    10  H    0.102594
    11  H    0.108886
    12  H    0.110597
    13  H    0.099824
    14  H    0.117587
    15  H    0.110435
    16  H    0.108331
    17  H    0.107471
    18  H    0.105428
    19  H    0.052724
    20  H    0.068666
    21  H    0.085914
    22  H    0.104997
    23  H    0.072020
    24  H    0.083628
    25  H    0.118113
 Sum of Mulliken charges =  -0.00000
 Mulliken charges with hydrogens summed into heavy atoms:
               1
     1  C   -0.078271
     2  C    0.245610
     3  C   -0.080145
     4  C   -0.093108
     5  C    0.084114
     6  C   -0.014800
     7  C   -0.060755
     8  C    0.028211
     9  C   -0.030856
 Electronic spatial extent (au):  <R**2>=           1262.3994
 Charge=             -0.0000 electrons
 Dipole moment (field-independent basis, Debye):
    X=             -0.0791    Y=             -0.0270    Z=             -0.0081  Tot=              0.0840
 Quadrupole moment (field-independent basis, Debye-Ang):
   XX=            -59.1864   YY=            -57.7625   ZZ=            -58.5355
   XY=             -0.3452   XZ=             -0.1948   YZ=              0.0188
 Traceless Quadrupole moment (field-independent basis, Debye-Ang):
   XX=             -0.6916   YY=              0.7323   ZZ=             -0.0407
   XY=             -0.3452   XZ=             -0.1948   YZ=              0.0188
 Octapole moment (field-independent basis, Debye-Ang**2):
  XXX=             -3.1985  YYY=              0.0529  ZZZ=             -2.4739  XYY=              2.1756
  XXY=              0.5330  XXZ=              1.3900  XZZ=              0.1051  YZZ=             -1.5552
  YYZ=              0.9105  XYZ=             -0.1186
 Hexadecapole moment (field-independent basis, Debye-Ang**3):
 XXXX=          -1053.2807 YYYY=           -360.7874 ZZZZ=           -336.4958 XXXY=             -6.3069
 XXXZ=             -0.3050 YYYX=             -2.7478 YYYZ=              1.8205 ZZZX=              0.8599
 ZZZY=             -3.2297 XXYY=           -238.4767 XXZZ=           -235.3877 YYZZ=           -115.5329
 XXYZ=              2.9785 YYXZ=             -3.1811 ZZXY=              1.9182
 N-N= 4.835482563589D+02 E-N=-1.781620915767D+03  KE= 3.491188699167D+02
 PrsmSu:  requested number of processors reduced to:  13 ShMem   1 Linda.
 Calling FoFJK, ICntrl=      2127 FMM=F ISym2X=0 I1Cent= 0 IOpClX= 0 NMat=1 NMatS=1 NMatT=0.
 ***** Axes restored to original set *****
 -------------------------------------------------------------------
 Center     Atomic                   Forces (Hartrees/Bohr)
 Number     Number              X              Y              Z
 -------------------------------------------------------------------
      1        6          -0.004987168   -0.003234699    0.001999650
      2        6          -0.009439044   -0.000592305   -0.001941195
      3        6           0.000327338    0.002019911    0.004268978
      4        6           0.000775640    0.001670419   -0.002329695
      5        6           0.012456871    0.001949964    0.004171343
      6        6           0.026240830   -0.026940100    0.008742437
      7        6          -0.031654689   -0.004419098    0.045398599
      8        6          -0.027205733   -0.002688383   -0.031346270
      9        6           0.030247428    0.035480167   -0.027502859
     10        1          -0.000720392   -0.001179583   -0.001354457
     11        1           0.000556719   -0.000720490   -0.000321062
     12        1           0.000378360    0.000765710    0.001305825
     13        1          -0.001066964   -0.002777118   -0.004026150
     14        1          -0.000620934   -0.001050764   -0.001618315
     15        1          -0.002511911   -0.001545607   -0.001030483
     16        1           0.000291603    0.002342656   -0.000555298
     17        1          -0.000051738    0.000875115   -0.000243219
     18        1          -0.000212394    0.001191124   -0.000993244
     19        1           0.004852416    0.000711510    0.006553912
     20        1          -0.010851553    0.004084365   -0.005107752
     21        1          -0.005200907    0.004228502   -0.006699742
     22        1          -0.001767151   -0.007532451   -0.001496713
     23        1           0.006830901   -0.000543303    0.012744664
     24        1           0.003512408    0.003674333    0.002249082
     25        1           0.009820066   -0.005769874   -0.000868038
 -------------------------------------------------------------------
 Cartesian Forces:  Max     0.045398599 RMS     0.011763814

 GradGradGradGradGradGradGradGradGradGradGradGradGradGradGradGradGradGrad
 Berny optimization.
 FormGI is forming the generalized inverse of G from B-inverse, IUseBI=4.
 Internal  Forces:  Max     0.027862581 RMS     0.005855465
 Search for a local minimum.
 Step number   1 out of a maximum of  150
 All quantities printed in internal units (Hartrees-Bohrs-Radians)
 Mixed Optimization -- RFO/linear search
 Second derivative matrix not updated -- first step.
 ITU=  0
     Eigenvalues ---    0.00230   0.00230   0.00230   0.00296   0.01810
     Eigenvalues ---    0.01920   0.02003   0.02370   0.02579   0.02679
     Eigenvalues ---    0.02956   0.03059   0.03321   0.03917   0.04021
     Eigenvalues ---    0.04079   0.04469   0.04863   0.05009   0.05242
     Eigenvalues ---    0.05259   0.05351   0.05440   0.05454   0.05480
     Eigenvalues ---    0.05492   0.06730   0.07396   0.07568   0.08715
     Eigenvalues ---    0.09205   0.13942   0.14772   0.15584   0.16000
     Eigenvalues ---    0.16000   0.16000   0.16000   0.16000   0.16000
     Eigenvalues ---    0.16000   0.16000   0.16000   0.17022   0.17127
     Eigenvalues ---    0.18344   0.20893   0.21880   0.24018   0.25792
     Eigenvalues ---    0.27350   0.27936   0.28918   0.33332   0.33798
     Eigenvalues ---    0.33901   0.34009   0.34154   0.34160   0.34179
     Eigenvalues ---    0.34340   0.34412   0.34612   0.34649   0.34747
     Eigenvalues ---    0.35103   0.35221   0.36856   0.36872
 RFO step:  Lambda=-4.05418751D-02 EMin= 2.30000000D-03
 Linear search not attempted -- first point.
 Maximum step size (   0.300) exceeded in Quadratic search.
    -- Step size scaled by   0.908
 Iteration  1 RMS(Cart)=  0.11366229 RMS(Int)=  0.00542936
 Iteration  2 RMS(Cart)=  0.00676277 RMS(Int)=  0.00104499
 Iteration  3 RMS(Cart)=  0.00002133 RMS(Int)=  0.00104486
 Iteration  4 RMS(Cart)=  0.00000001 RMS(Int)=  0.00104486
 Variable       Old X    -DE/DX   Delta X   Delta X   Delta X     New X
                                 (Linear)    (Quad)   (Total)
    R1        2.90175   0.00498   0.00000   0.01372   0.01372   2.91547
    R2        2.07061   0.00077   0.00000   0.00183   0.00183   2.07244
    R3        2.07029   0.00009   0.00000   0.00020   0.00020   2.07050
    R4        2.06309   0.00103   0.00000   0.00241   0.00241   2.06550
    R5        2.93582  -0.00283   0.00000  -0.00819  -0.00819   2.92763
    R6        2.92279  -0.00173   0.00000  -0.00491  -0.00491   2.91788
    R7        2.97237   0.00492   0.00000   0.01498   0.01498   2.98734
    R8        2.06640   0.00150   0.00000   0.00355   0.00355   2.06995
    R9        2.06248  -0.00165   0.00000  -0.00387  -0.00387   2.05861
   R10        2.07498  -0.00249   0.00000  -0.00597  -0.00597   2.06901
   R11        2.07672  -0.00238   0.00000  -0.00570  -0.00570   2.07102
   R12        2.07070  -0.00003   0.00000  -0.00007  -0.00007   2.07063
   R13        2.06760   0.00109   0.00000   0.00257   0.00257   2.07017
   R14        3.06697  -0.00612   0.00000  -0.03196  -0.03291   3.03406
   R15        2.98613  -0.00030   0.00000  -0.00241  -0.00294   2.98319
   R16        2.08472  -0.00411   0.00000  -0.01000  -0.01000   2.07473
   R17        3.04901  -0.02786   0.00000  -0.09170  -0.09153   2.95748
   R18        2.97817  -0.01900   0.00000  -0.05432  -0.05376   2.92441
   R19        2.02740   0.01250   0.00000   0.02775   0.02775   2.05515
   R20        2.98035  -0.02076   0.00000  -0.05115  -0.05111   2.92924
   R21        2.07315  -0.00059   0.00000  -0.00141  -0.00141   2.07174
   R22        2.05508   0.00063   0.00000   0.00145   0.00145   2.05654
   R23        3.10807  -0.02480   0.00000  -0.09844  -0.09770   3.01037
   R24        2.02763   0.01129   0.00000   0.02506   0.02506   2.05269
   R25        2.06088   0.00421   0.00000   0.00986   0.00986   2.07074
   R26        2.05317  -0.00329   0.00000  -0.00761  -0.00761   2.04556
    A1        1.93599   0.00119   0.00000   0.00516   0.00516   1.94115
    A2        1.93448  -0.00086   0.00000  -0.00483  -0.00483   1.92965
    A3        1.97754  -0.00118   0.00000  -0.00415  -0.00415   1.97339
    A4        1.88628  -0.00077   0.00000  -0.00580  -0.00580   1.88048
    A5        1.86583   0.00042   0.00000   0.00367   0.00367   1.86950
    A6        1.85927   0.00123   0.00000   0.00606   0.00605   1.86532
    A7        1.95072  -0.00603   0.00000  -0.01991  -0.02057   1.93015
    A8        1.87187   0.00265   0.00000  -0.00010  -0.00018   1.87169
    A9        1.92281   0.00262   0.00000   0.01548   0.01490   1.93771
   A10        1.82642   0.00195   0.00000   0.00656   0.00724   1.83366
   A11        1.96459   0.00760   0.00000   0.05100   0.05111   2.01570
   A12        1.92294  -0.00933   0.00000  -0.05785  -0.05769   1.86525
   A13        1.95200  -0.00637   0.00000  -0.03265  -0.03275   1.91926
   A14        1.99942   0.00063   0.00000   0.00627   0.00625   2.00566
   A15        1.93128   0.00023   0.00000   0.00148   0.00134   1.93261
   A16        1.84713   0.00321   0.00000   0.01397   0.01399   1.86112
   A17        1.87076   0.00156   0.00000   0.00047   0.00026   1.87103
   A18        1.85557   0.00124   0.00000   0.01254   0.01247   1.86804
   A19        1.92481  -0.00014   0.00000   0.00060   0.00060   1.92541
   A20        1.94739  -0.00054   0.00000  -0.00287  -0.00288   1.94451
   A21        1.95699  -0.00112   0.00000  -0.00589  -0.00590   1.95109
   A22        1.87256   0.00074   0.00000   0.00490   0.00491   1.87746
   A23        1.87455   0.00084   0.00000   0.00454   0.00454   1.87908
   A24        1.88396   0.00036   0.00000  -0.00057  -0.00060   1.88336
   A25        2.28484  -0.00040   0.00000  -0.02224  -0.02282   2.26202
   A26        1.97328   0.01222   0.00000   0.10605   0.10887   2.08215
   A27        1.89825  -0.00552   0.00000  -0.03213  -0.03362   1.86463
   A28        1.28199  -0.00558   0.00000  -0.01128  -0.01290   1.26909
   A29        1.91328   0.00288   0.00000   0.00968   0.00914   1.92242
   A30        2.05223  -0.00264   0.00000  -0.04114  -0.04090   2.01133
   A31        1.48015   0.00460   0.00000   0.02452   0.02717   1.50732
   A32        1.49083   0.00670   0.00000   0.06120   0.06041   1.55124
   A33        2.20478  -0.00610   0.00000  -0.01989  -0.02125   2.18353
   A34        1.62381  -0.01055   0.00000  -0.08473  -0.08728   1.53652
   A35        2.19935   0.00017   0.00000  -0.00088  -0.00103   2.19833
   A36        2.23047   0.00570   0.00000   0.02653   0.02580   2.25628
   A37        1.28794   0.00490   0.00000   0.01573   0.01406   1.30201
   A38        2.02836   0.00036   0.00000  -0.00584  -0.00682   2.02154
   A39        2.10100  -0.00556   0.00000  -0.03390  -0.03371   2.06729
   A40        1.92093   0.00507   0.00000   0.05842   0.05891   1.97984
   A41        2.10359  -0.00646   0.00000  -0.04182  -0.04143   2.06216
   A42        1.93929   0.00240   0.00000   0.01219   0.01187   1.95116
   A43        1.52642   0.00096   0.00000   0.00422   0.00626   1.53268
   A44        1.47581   0.00677   0.00000   0.06525   0.06430   1.54011
   A45        2.13220  -0.00102   0.00000   0.01943   0.01951   2.15171
   A46        1.60241  -0.01094   0.00000  -0.08211  -0.08475   1.51766
   A47        2.18152   0.00601   0.00000   0.02922   0.02596   2.20748
   A48        2.30582  -0.00118   0.00000  -0.02169  -0.02311   2.28270
   A49        1.27350   0.00356   0.00000   0.01779   0.01595   1.28945
   A50        2.00603   0.00220   0.00000   0.02164   0.02203   2.02806
   A51        2.00834  -0.00311   0.00000  -0.00300  -0.00226   2.00608
   A52        2.02283   0.00097   0.00000   0.00710   0.00728   2.03011
   A53        2.18747  -0.00767   0.00000  -0.06434  -0.06453   2.12294
   A54        1.89418   0.00395   0.00000   0.02456   0.02322   1.91740
    D1       -0.90049   0.00149   0.00000   0.01129   0.01101  -0.88949
    D2        1.09175   0.00221   0.00000   0.00874   0.00895   1.10070
    D3       -3.09842  -0.00597   0.00000  -0.05239  -0.05232   3.13245
    D4       -2.99599   0.00223   0.00000   0.01839   0.01810  -2.97788
    D5       -1.00375   0.00296   0.00000   0.01583   0.01605  -0.98769
    D6        1.08927  -0.00522   0.00000  -0.04529  -0.04522   1.04405
    D7        1.19812   0.00207   0.00000   0.01688   0.01659   1.21471
    D8       -3.09282   0.00279   0.00000   0.01432   0.01453  -3.07829
    D9       -0.99981  -0.00539   0.00000  -0.04681  -0.04674  -1.04655
   D10        0.94342  -0.00029   0.00000  -0.00684  -0.00680   0.93663
   D11       -1.15828  -0.00012   0.00000  -0.00491  -0.00478  -1.16307
   D12        3.02779  -0.00235   0.00000  -0.02676  -0.02662   3.00117
   D13       -1.07674  -0.00161   0.00000  -0.00084  -0.00075  -1.07749
   D14        3.10473  -0.00145   0.00000   0.00109   0.00127   3.10600
   D15        1.00762  -0.00368   0.00000  -0.02077  -0.02057   0.98705
   D16        3.11824   0.00436   0.00000   0.03757   0.03725  -3.12769
   D17        1.01653   0.00452   0.00000   0.03951   0.03927   1.05580
   D18       -1.08058   0.00229   0.00000   0.01765   0.01743  -1.06315
   D19       -1.07888   0.00150   0.00000   0.00332   0.00360  -1.07528
   D20        3.12498   0.00102   0.00000  -0.00138  -0.00108   3.12390
   D21        1.00917   0.00173   0.00000   0.00559   0.00587   1.01504
   D22        0.99543  -0.00320   0.00000  -0.01631  -0.01649   0.97893
   D23       -1.08389  -0.00369   0.00000  -0.02100  -0.02118  -1.10507
   D24        3.08348  -0.00297   0.00000  -0.01403  -0.01423   3.06926
   D25        3.11137   0.00206   0.00000   0.01763   0.01753   3.12890
   D26        1.03205   0.00157   0.00000   0.01294   0.01285   1.04490
   D27       -1.08376   0.00229   0.00000   0.01991   0.01980  -1.06396
   D28        0.61564  -0.00273   0.00000  -0.04226  -0.04019   0.57545
   D29        2.14575  -0.00020   0.00000   0.02361   0.02253   2.16829
   D30       -1.82415   0.00166   0.00000   0.02855   0.02872  -1.79543
   D31       -1.57443  -0.00250   0.00000  -0.06613  -0.06518  -1.63961
   D32       -0.04432   0.00003   0.00000  -0.00025  -0.00246  -0.04677
   D33        2.26896   0.00189   0.00000   0.00469   0.00373   2.27269
   D34        2.67748  -0.00358   0.00000  -0.06836  -0.06633   2.61115
   D35       -2.07559  -0.00105   0.00000  -0.00249  -0.00361  -2.07920
   D36        0.23768   0.00080   0.00000   0.00245   0.00258   0.24027
   D37        2.64297   0.00828   0.00000   0.11687   0.11648   2.75945
   D38        1.01148   0.01994   0.00000   0.21024   0.21029   1.22176
   D39       -1.34062   0.00941   0.00000   0.12723   0.12794  -1.21268
   D40        0.78500  -0.00338   0.00000  -0.01557  -0.01628   0.76872
   D41       -0.84650   0.00829   0.00000   0.07780   0.07752  -0.76897
   D42        3.08460  -0.00225   0.00000  -0.00521  -0.00482   3.07977
   D43       -1.20486   0.00138   0.00000   0.03316   0.03288  -1.17198
   D44       -2.83636   0.01304   0.00000   0.12653   0.12668  -2.70968
   D45        1.09474   0.00251   0.00000   0.04352   0.04433   1.13907
   D46       -3.03952   0.00809   0.00000   0.05988   0.05969  -2.97983
   D47       -1.43270  -0.00334   0.00000  -0.02624  -0.02836  -1.46106
   D48        0.96504   0.00016   0.00000   0.00996   0.01061   0.97564
   D49       -0.80503   0.00539   0.00000   0.02751   0.02821  -0.77682
   D50        0.80180  -0.00604   0.00000  -0.05860  -0.05984   0.74195
   D51       -3.08365  -0.00254   0.00000  -0.02241  -0.02087  -3.10452
   D52        1.00818   0.00655   0.00000   0.04060   0.04063   1.04880
   D53        2.61500  -0.00488   0.00000  -0.04551  -0.04743   2.56757
   D54       -1.27045  -0.00138   0.00000  -0.00932  -0.00846  -1.27891
   D55       -0.78519  -0.00040   0.00000   0.00714   0.00808  -0.77710
   D56       -2.61389  -0.00818   0.00000  -0.06653  -0.06503  -2.67892
   D57        1.24429  -0.00519   0.00000  -0.03215  -0.03102   1.21327
   D58        0.70036   0.00763   0.00000   0.07832   0.07591   0.77626
   D59       -1.12834  -0.00015   0.00000   0.00464   0.00279  -1.12555
   D60        2.72984   0.00283   0.00000   0.03903   0.03680   2.76664
   D61       -3.08921   0.00360   0.00000   0.01241   0.01276  -3.07645
   D62        1.36528  -0.00418   0.00000  -0.06127  -0.06036   1.30492
   D63       -1.05973  -0.00119   0.00000  -0.02689  -0.02634  -1.08607
   D64        0.80586  -0.00230   0.00000  -0.04872  -0.05136   0.75450
   D65        2.74637  -0.00019   0.00000  -0.03727  -0.03979   2.70658
   D66       -1.31700   0.00469   0.00000   0.01583   0.01398  -1.30302
   D67       -0.66960  -0.00823   0.00000  -0.08435  -0.08384  -0.75345
   D68        1.27091  -0.00613   0.00000  -0.07290  -0.07227   1.19863
   D69       -2.79247  -0.00125   0.00000  -0.01979  -0.01850  -2.81097
   D70        3.13799  -0.00067   0.00000   0.00074   0.00134   3.13932
   D71       -1.20469   0.00143   0.00000   0.01219   0.01291  -1.19178
   D72        1.01513   0.00631   0.00000   0.06529   0.06668   1.08180
   D73        0.80934  -0.00118   0.00000  -0.01544  -0.01663   0.79271
   D74       -0.66492  -0.00852   0.00000  -0.08487  -0.08444  -0.74936
   D75        3.04811   0.00128   0.00000   0.02826   0.02932   3.07744
   D76        2.77384  -0.00027   0.00000  -0.02694  -0.02802   2.74583
   D77        1.29959  -0.00761   0.00000  -0.09636  -0.09583   1.20376
   D78       -1.27057   0.00219   0.00000   0.01677   0.01794  -1.25263
   D79       -1.21704   0.00254   0.00000   0.01439   0.01324  -1.20381
   D80       -2.69130  -0.00480   0.00000  -0.05504  -0.05458  -2.74588
   D81        1.02173   0.00500   0.00000   0.05809   0.05919   1.08092
   D82       -0.83595   0.00466   0.00000   0.06384   0.06502  -0.77092
   D83       -2.75519   0.00089   0.00000   0.03342   0.03473  -2.72046
   D84        1.06693   0.00374   0.00000   0.07674   0.07717   1.14411
   D85        0.68723   0.00692   0.00000   0.07840   0.07608   0.76332
   D86       -1.23201   0.00316   0.00000   0.04799   0.04579  -1.18622
   D87        2.59011   0.00601   0.00000   0.09130   0.08823   2.67835
   D88       -3.09447  -0.00049   0.00000  -0.02278  -0.02082  -3.11529
   D89        1.26947  -0.00426   0.00000  -0.05320  -0.05112   1.21836
   D90       -1.19159  -0.00141   0.00000  -0.00989  -0.00867  -1.20026
         Item               Value     Threshold  Converged?
 Maximum Force            0.027863     0.000450     NO 
 RMS     Force            0.005855     0.000300     NO 
 Maximum Displacement     0.451108     0.001800     NO 
 RMS     Displacement     0.114704     0.001200     NO 
 Predicted change in Energy=-2.644536D-02
 GradGradGradGradGradGradGradGradGradGradGradGradGradGradGradGradGradGrad

                          Input orientation:                          
 ---------------------------------------------------------------------
 Center     Atomic      Atomic             Coordinates (Angstroms)
 Number     Number       Type             X           Y           Z
 ---------------------------------------------------------------------
      1          6           0        0.838710   -0.245753   -0.034971
      2          6           0        2.369218   -0.127207    0.119036
      3          6           0        2.807043   -0.542920    1.545789
      4          6           0        3.006051   -1.176489   -0.817779
      5          6           0        2.879774    1.288862   -0.363784
      6          6           0        2.154785    2.719311   -0.286193
      7          6           0        3.586973    3.339933   -0.400135
      8          6           0        3.718598    2.186754    0.627301
      9          6           0        2.344143    2.698008    1.249560
     10          1           0        0.482109   -1.230460    0.290464
     11          1           0        0.546046   -0.114113   -1.082582
     12          1           0        0.290840    0.502196    0.543906
     13          1           0        2.417482   -1.539256    1.781153
     14          1           0        2.468664    0.120116    2.341154
     15          1           0        3.898325   -0.597042    1.615970
     16          1           0        2.697869   -2.186205   -0.523555
     17          1           0        4.100314   -1.139039   -0.775190
     18          1           0        2.704203   -1.027342   -1.860245
     19          1           0        3.326079    1.144478   -1.356430
     20          1           0        1.284030    3.011585   -0.868514
     21          1           0        3.712921    4.334921    0.042638
     22          1           0        4.117925    3.248316   -1.345669
     23          1           0        4.633282    1.850623    1.107176
     24          1           0        2.369474    3.673816    1.747464
     25          1           0        1.678974    2.030536    1.782253
 ---------------------------------------------------------------------
                    Distance matrix (angstroms):
                    1          2          3          4          5
     1  C    0.000000
     2  C    1.542798   0.000000
     3  C    2.541937   1.549236   0.000000
     4  C    2.485242   1.544076   2.455091   0.000000
     5  C    2.574704   1.580833   2.647109   2.509982   0.000000
     6  C    3.253732   2.883203   3.797861   4.022996   1.605558
     7  C    4.532486   3.711270   4.412648   4.572741   2.169872
     8  C    3.827459   2.726459   3.020873   3.729260   1.578634
     9  C    3.547122   3.043116   3.287194   4.441142   2.208048
    10  H    1.096687   2.192655   2.730178   2.757064   3.538901
    11  H    1.095660   2.183578   3.493468   2.692654   2.816256
    12  H    1.093018   2.212763   2.902984   3.470525   2.854002
    13  H    2.732028   2.181478   1.095372   2.689324   3.579486
    14  H    2.904579   2.238050   1.089367   3.456708   2.975176
    15  H    3.494317   2.190827   1.094875   2.656134   2.917791
    16  H    2.731399   2.181836   2.644710   1.095934   3.483491
    17  H    3.461783   2.195481   2.723022   1.095731   2.748395
    18  H    2.724440   2.200002   3.441847   1.095487   2.763154
    19  H    3.141018   2.170199   3.396996   2.404048   1.097898
    20  H    3.391659   3.464809   4.558830   4.528564   2.401859
    21  H    5.408297   4.660682   5.183957   5.622777   3.183989
    22  H    4.967867   4.074002   4.944938   4.592802   2.517256
    23  H    4.483086   3.164525   3.042462   3.939129   2.356712
    24  H    4.569828   4.135161   4.244172   5.523691   3.225799
    25  H    3.031474   2.810442   2.819775   4.336625   2.568556
                    6          7          8          9         10
     6  C    0.000000
     7  C    1.565029   0.000000
     8  C    1.887749   1.550088   0.000000
     9  C    1.547529   2.162912   1.593020   0.000000
    10  H    4.327941   5.568268   4.718652   4.451955   0.000000
    11  H    3.354188   4.652247   4.275836   4.071863   1.770756
    12  H    3.013131   4.450669   3.820238   3.087975   1.761510
    13  H    4.741131   5.471034   4.111865   4.271110   2.462352
    14  H    3.709082   4.374072   2.961523   2.802251   3.158447
    15  H    4.201946   4.434117   2.959610   3.661570   3.718698
    16  H    4.941192   5.598566   4.635637   5.208128   2.546698
    17  H    4.348686   4.523867   3.629544   4.680457   3.772981
    18  H    4.100843   4.688742   4.188949   4.866083   3.099114
    19  H    2.235495   2.408857   2.274995   3.188862   4.054720
    20  H    1.087537   2.372917   2.974043   2.389227   4.470040
    21  H    2.268504   1.096317   2.226316   2.451468   6.439956
    22  H    2.292652   1.088273   2.275738   3.191293   5.996293
    23  H    2.973053   2.363218   1.086237   2.445095   5.233768
    24  H    2.256752   2.491177   2.299185   1.095788   5.453157
    25  H    2.231429   3.180849   2.349125   1.082465   3.780479
                   11         12         13         14         15
    11  H    0.000000
    12  H    1.757963   0.000000
    13  H    3.705980   3.197017   0.000000
    14  H    3.933611   2.849387   1.752066   0.000000
    15  H    4.330494   3.920663   1.762937   1.756171   0.000000
    16  H    3.039148   3.763080   2.410153   3.684862   2.923029
    17  H    3.711844   4.352673   3.086582   3.736221   2.460123
    18  H    2.469087   3.734134   3.688366   4.361638   3.700697
    19  H    3.063923   3.638197   4.227577   3.931489   3.492208
    20  H    3.218763   3.046045   5.386613   4.479500   5.101900
    21  H    5.575762   5.162527   6.261514   4.959428   5.180155
    22  H    4.912583   5.075259   5.965683   5.108656   4.858632
    23  H    5.035943   4.581739   4.105520   3.033632   2.605781
    24  H    5.067786   3.978498   5.213402   3.604316   4.538160
    25  H    3.753709   2.407539   3.645383   2.141422   3.443448
                   16         17         18         19         20
    16  H    0.000000
    17  H    1.768256   0.000000
    18  H    1.769108   1.771707   0.000000
    19  H    3.490240   2.480268   2.314597   0.000000
    20  H    5.397681   5.016757   4.394697   2.809647   0.000000
    21  H    6.623895   5.548257   5.778611   3.505134   2.912203
    22  H    5.676835   4.424324   4.532622   2.247949   2.883519
    23  H    4.764565   3.572874   4.561756   2.876939   4.058161
    24  H    6.293268   5.702908   5.935360   4.116649   2.908621
    25  H    4.912821   4.738102   4.865132   3.653681   2.853945
                   21         22         23         24         25
    21  H    0.000000
    22  H    1.808904   0.000000
    23  H    2.855178   2.869772   0.000000
    24  H    2.268996   3.578491   2.976378   0.000000
    25  H    3.531769   4.149141   3.035792   1.782798   0.000000
 Stoichiometry    C9H16
 Framework group  C1[X(C9H16)]
 Deg. of freedom    69
 Full point group                 C1      NOp   1
 Largest Abelian subgroup         C1      NOp   1
 Largest concise Abelian subgroup C1      NOp   1
                         Standard orientation:                         
 ---------------------------------------------------------------------
 Center     Atomic      Atomic             Coordinates (Angstroms)
 Number     Number       Type             X           Y           Z
 ---------------------------------------------------------------------
      1          6           0       -1.632638    0.793151   -1.250717
      2          6           0       -1.195711   -0.032923   -0.023150
      3          6           0       -1.475218    0.747039    1.285922
      4          6           0       -2.113815   -1.272547    0.044577
      5          6           0        0.282638   -0.565768   -0.195181
      6          6           0        1.533364    0.108979   -0.942321
      7          6           0        2.434114   -0.805785   -0.047239
      8          6           0        1.359777   -0.225206    0.907486
      9          6           0        1.590882    1.172989    0.179919
     10          1           0       -2.661242    1.156710   -1.138823
     11          1           0       -1.591216    0.182879   -2.159740
     12          1           0       -0.999917    1.666988   -1.426107
     13          1           0       -2.524317    1.060428    1.317833
     14          1           0       -0.876625    1.647197    1.420543
     15          1           0       -1.300283    0.111853    2.160386
     16          1           0       -3.157642   -0.966199    0.177428
     17          1           0       -1.849411   -1.920583    0.887646
     18          1           0       -2.057044   -1.871128   -0.871157
     19          1           0        0.208606   -1.627354   -0.465243
     20          1           0        1.623974    0.237734   -2.018401
     21          1           0        3.444558   -0.431039    0.153958
     22          1           0        2.430424   -1.878080   -0.233000
     23          1           0        1.232766   -0.465445    1.959183
     24          1           0        2.563128    1.651110    0.343894
     25          1           0        0.813881    1.925356    0.135823
 ---------------------------------------------------------------------
 Rotational constants (GHZ):           2.8296185           1.1620170           1.1477145
 Standard basis: 6-31G(2df,p) (6D, 7F)
 There are   359 symmetry adapted cartesian basis functions of A   symmetry.
 There are   332 symmetry adapted basis functions of A   symmetry.
   332 basis functions,   508 primitive gaussians,   359 cartesian basis functions
    35 alpha electrons       35 beta electrons
       nuclear repulsion energy       482.0971287213 Hartrees.
 NAtoms=   25 NActive=   25 NUniq=   25 SFac= 1.00D+00 NAtFMM=   60 NAOKFM=F Big=F
 Integral buffers will be    131072 words long.
 Raffenetti 2 integral format.
 Two-electron integral symmetry is turned on.
 One-electron integrals computed using PRISM.
 PrsmSu:  requested number of processors reduced to:  13 ShMem   1 Linda.
 NBasis=   332 RedAO= T EigKep=  3.67D-04  NBF=   332
 NBsUse=   332 1.00D-06 EigRej= -1.00D+00 NBFU=   332
 Initial guess from the checkpoint file:  "CCqCrqCrC1C2CC1C2.chk"
 B after Tr=     0.000000   -0.000000    0.000000
         Rot=    0.989175    0.146735    0.001005    0.000308 Ang=  16.88 deg.
 ExpMin= 1.61D-01 ExpMax= 3.05D+03 ExpMxC= 4.57D+02 IAcc=2 IRadAn=         4 AccDes= 0.00D+00
 Harris functional with IExCor=  402 and IRadAn=       4 diagonalized for initial guess.
 HarFok:  IExCor=  402 AccDes= 0.00D+00 IRadAn=         4 IDoV= 1 UseB2=F ITyADJ=14
 ICtDFT=  3500011 ScaDFX=  1.000000  1.000000  1.000000  1.000000
 FoFCou: FMM=F IPFlag=           0 FMFlag=      100000 FMFlg1=           0
         NFxFlg=           0 DoJE=T BraDBF=F KetDBF=T FulRan=T
         wScrn=  0.000000 ICntrl=       500 IOpCl=  0 I1Cent=   200000004 NGrid=           0
         NMat0=    1 NMatS0=      1 NMatT0=    0 NMatD0=    1 NMtDS0=    0 NMtDT0=    0
 Petite list used in FoFCou.
 Requested convergence on RMS density matrix=1.00D-08 within 128 cycles.
 Requested convergence on MAX density matrix=1.00D-06.
 Requested convergence on             energy=1.00D-06.
 No special actions if energy rises.
 Integral accuracy reduced to 1.0D-05 until final iterations.
 Initial convergence to 1.0D-05 achieved.  Increase integral accuracy.
 SCF Done:  E(RB3LYP) =  -352.527622226     A.U. after   11 cycles
            NFock= 11  Conv=0.40D-08     -V/T= 2.0094
 PrsmSu:  requested number of processors reduced to:  13 ShMem   1 Linda.
 Calling FoFJK, ICntrl=      2127 FMM=F ISym2X=0 I1Cent= 0 IOpClX= 0 NMat=1 NMatS=1 NMatT=0.
 ***** Axes restored to original set *****
 -------------------------------------------------------------------
 Center     Atomic                   Forces (Hartrees/Bohr)
 Number     Number              X              Y              Z
 -------------------------------------------------------------------
      1        6          -0.001255463    0.001217319    0.000289107
      2        6          -0.005892000    0.002340694   -0.004408481
      3        6           0.000664784    0.004146394   -0.000114673
      4        6           0.000088274   -0.000948596   -0.001872814
      5        6           0.002122450    0.004432444    0.011521365
      6        6           0.007303656   -0.012681527   -0.005152147
[...]
 0.02937816,0.00201872,-0.00134907,-0.01301316,0.04959854,0.00094752,-0
 .00310419,-0.00323011,0.02148279,-0.00056796,-0.00050704,0.00127630,0.
 00035031,0.00147137,-0.00620967,0.00051291,-0.04662149,-0.00000518,0.0
 0121421,0.00014027,0.00001475,0.00000255,-0.00004437,-0.00005556,-0.00
 002335,0.00003614,0.00000173,-0.00010119,0.00001224,0.00002097,0.00002
 982,-0.00007622,-0.00031595,-0.00004617,-0.00010362,0.00020380,-0.0002
 2483,0.00026921,0.00159682,-0.00034382,0.00044773,0.00001996,0.0000557
 3,-0.00010345,-0.00029571,0.00004542,0.00028312,-0.00050594,-0.0001917
 2,-0.00040563,0.00769994,-0.00051118,-0.00061603,0.00462465,0.00197420
 ,0.04898172,0.00099879,-0.00058180,0.00091413,0.00180094,-0.00287274,0
 .01017945,-0.00072080,0.00127260,0.00139519,-0.06898825,0.01837893,-0.
 07061242,0.00036617,-0.00037568,-0.00062785,0.00000276,-0.00001444,0.0
 0008147,0.00003350,-0.00005655,-0.00006426,-0.00015197,0.00002777,0.00
 013862,-0.00002634,0.00010953,0.00006276,-0.00005042,-0.00006305,0.000
 05787,-0.00008559,0.00034351,-0.00007578,0.00012361,-0.00009799,-0.000
 21506,-0.00010179,0.00021785,-0.00016940,0.00077020,0.00006196,0.00062
 828,0.00038887,0.00007062,0.00030805,0.00315755,-0.00269714,0.01188704
 ,-0.00871515,0.00827113,-0.03021314,0.07169468,-0.00112087,0.00071525,
 0.00013887,-0.00694014,0.00405984,-0.02037994,0.00159877,-0.00325578,-
 0.00252478,0.01865345,-0.06259483,0.06028374,0.00008305,0.00148373,-0.
 00126457,0.00013863,-0.00008458,0.00006615,-0.00002312,-0.00002929,0.0
 0003522,-0.00002797,0.00015724,0.00011819,0.00005323,0.00009862,-0.000
 03352,0.00018961,-0.00001767,0.00013169,0.00025133,0.00012661,0.000221
 88,-0.00027762,-0.00006666,0.00009680,0.00025334,0.00032789,-0.0002607
 5,-0.00020559,0.00074495,-0.00149759,0.00003358,-0.00017131,0.00016352
 ,0.00964945,-0.00655542,0.02663838,-0.00021017,-0.00122504,0.00066666,
 -0.02164901,0.06640145,-0.00135850,0.00094059,0.00056892,-0.00687599,0
 .00589800,-0.02010842,0.00267136,-0.00451423,-0.00232787,-0.06995372,0
 .05848424,-0.26756357,0.00164550,0.00157610,-0.00005801,-0.00020498,-0
 .00027068,0.00013335,0.00003175,-0.00023472,-0.00002614,-0.00029680,-0
 .00002908,0.00023369,0.00011672,0.00030446,0.00008336,0.00006322,-0.00
 005380,-0.00004323,0.00099477,-0.00035416,0.00055602,-0.00000089,-0.00
 018053,0.00047936,0.00005829,-0.00006113,0.00045016,-0.00053677,0.0003
 7960,-0.00157883,-0.00003953,0.00000818,0.00032014,-0.00203896,0.00127
 945,-0.00589745,0.00030706,0.00007664,0.00000529,0.07625444,-0.0628837
 9,0.29370664,0.00010418,-0.00163190,0.00058039,-0.00620028,0.00010999,
 0.01036796,-0.00108492,-0.00092735,-0.00043067,0.00110237,0.00129336,0
 .00119953,-0.12803477,0.01727149,0.11723056,-0.00874867,0.00402606,0.0
 1742848,-0.00095287,-0.00150747,-0.00331521,0.00875073,-0.00406302,-0.
 01212530,-0.00084869,0.00133715,-0.00045244,-0.00067189,-0.00027775,-0
 .00014394,-0.00018548,0.00005202,-0.00015727,0.00023255,0.00009241,-0.
 00011430,0.00007422,-0.00013408,0.00042846,-0.00000595,0.00000894,0.00
 000378,0.00009868,0.00002167,0.00003156,0.00032041,0.00037382,-0.00036
 291,0.00056113,-0.00018056,-0.00028593,-0.00045861,-0.00041803,-0.0007
 1745,0.13357082,-0.00007931,-0.00253038,0.00093708,-0.01535960,-0.0024
 5890,0.01979769,-0.00154029,-0.00229808,-0.00010300,-0.00270044,-0.001
 89338,0.00259259,0.01671005,-0.04660904,-0.02299115,0.00614433,-0.0053
 8411,-0.01725986,0.00389365,-0.00167255,-0.00489728,0.00804733,-0.0048
 7533,-0.00642152,0.00098877,-0.00768618,-0.00323908,-0.00105168,0.0000
 1548,-0.00012856,-0.00006216,0.00014107,-0.00024522,0.00001797,0.00000
 627,0.00007125,0.00043282,-0.00038453,0.00095068,-0.00005150,0.0000523
 0,-0.00004502,0.00030710,0.00005136,0.00002947,0.00022355,0.00004777,-
 0.00028215,0.00038752,-0.00043884,0.00030820,-0.00039089,-0.00015908,-
 0.00033133,-0.01581081,0.07597066,-0.00050930,0.00105944,-0.00060585,0
 .00566364,-0.00131862,-0.00675532,0.00094284,0.00105481,0.00035470,-0.
 00001434,-0.00285841,0.00084505,0.11706005,-0.02375788,-0.21302698,-0.
 00407796,0.00138817,0.00372895,-0.00167203,0.00247551,-0.00000996,0.01
 371221,-0.00564650,-0.01428169,-0.00055839,-0.00371469,-0.00184630,0.0
 0036020,0.00010108,-0.00004451,0.00008610,-0.00003085,0.00005265,-0.00
 006086,-0.00003215,0.00004463,-0.00013919,0.00043938,-0.00038993,-0.00
 009054,-0.00012574,0.00023759,-0.00016056,0.00004878,-0.00014237,-0.00
 040915,-0.00048696,0.00037974,-0.00076223,0.00064197,0.00006296,-0.000
 06192,0.00014727,0.00080164,-0.12957462,0.03187013,0.22874423,-0.00028
 444,0.00002766,-0.00040854,-0.00007786,-0.00024734,0.00026530,0.000078
 72,0.00012089,0.00007245,0.00008815,0.00007738,-0.00018289,-0.00397734
 ,-0.00399376,-0.00284807,-0.21637464,0.03860035,-0.12099665,-0.0053528
 9,0.00832781,-0.00954468,-0.00727076,0.00151799,-0.00375177,0.00460841
 ,-0.00173402,0.00327273,0.00029102,-0.00005932,0.00013417,0.00014374,-
 0.00006895,0.00041678,0.00000594,-0.00002937,-0.00009715,0.00001301,0.
 00005705,-0.00006970,-0.00003088,-0.00000887,-0.00001160,0.00007346,-0
 .00008905,0.00003502,0.00001205,0.00009391,0.00004659,0.00005496,-0.00
 005473,0.00000223,-0.00000697,0.00001545,0.00006608,-0.00026567,0.0000
 4621,-0.00000462,0.22726550,0.00021067,-0.00019127,0.00030009,0.000865
 70,0.00120005,0.00038109,-0.00033709,-0.00033356,-0.00016518,-0.000080
 10,0.00005082,0.00018976,0.01147687,0.00442416,0.01232045,0.03934624,-
 0.06123890,0.02809578,-0.00636680,0.00466374,-0.00996970,0.00110234,-0
 .00237260,0.00066589,-0.00318415,-0.00124782,-0.00080579,-0.00021492,0
 .00012924,-0.00019319,-0.00045862,-0.00047608,-0.00029984,-0.00018224,
 -0.00004844,0.00013444,-0.00002112,-0.00015891,0.00021006,-0.00001004,
 0.00001143,0.00003996,-0.00004873,0.00006521,-0.00010498,-0.00005310,-
 0.00010463,-0.00002327,-0.00008531,0.00008403,0.00000838,0.00004335,-0
 .00002457,-0.00006491,-0.00000683,0.00027956,-0.00036696,-0.04284519,0
 .05158744,-0.00018704,-0.00008558,-0.00013445,-0.00020270,0.00013151,-
 0.00001810,0.00009860,-0.00003395,-0.00019785,0.00010695,0.00007161,0.
 00004330,0.00347443,-0.00020612,0.00090300,-0.12089376,0.02743081,-0.1
 4199944,0.00444170,-0.00256329,0.00256643,-0.00354503,0.00074151,-0.00
 485886,-0.01711539,0.00498625,-0.00174860,0.00016180,-0.00011419,0.000
 06117,0.00000320,0.00013461,0.00042702,-0.00008276,0.00004738,-0.00028
 524,-0.00001641,0.00008162,0.00004966,-0.00005764,-0.00005303,0.000162
 23,0.00004922,-0.00004063,0.00004987,-0.00002002,0.00002848,-0.0000015
 1,0.00003991,-0.00002521,-0.00001807,-0.00001150,0.00000060,0.00002719
 ,0.00005576,0.00036688,0.00030294,0.13619886,-0.03106911,0.14238372,0.
 00027482,0.00029513,-0.00006320,0.00183122,-0.00099286,-0.00006058,-0.
 00010625,-0.00023689,-0.00007177,-0.00017299,-0.00028881,0.00022544,-0
 .00343551,-0.00241779,0.00097338,0.00359086,-0.02420548,-0.00429428,-0
 .04669880,0.00588244,0.00593842,-0.00161617,0.00811289,0.00378225,-0.0
 0102471,-0.00225203,-0.00278747,0.00009776,-0.00000831,0.00001267,0.00
 000137,0.00005600,0.00002995,-0.00001547,0.00001579,-0.00004003,0.0000
 2726,-0.00003332,0.00013880,-0.00002054,0.00002251,0.00005270,0.000026
 02,-0.00003917,0.00001671,0.00004788,-0.00010973,-0.00011367,0.0000266
 4,-0.00002082,0.00000875,-0.00001083,0.00002008,-0.00002898,0.00015981
 ,-0.00017901,-0.00051735,0.00017901,0.00020772,-0.00027745,0.04644870,
 0.00019653,-0.00026889,0.00003838,0.00055038,0.00033289,-0.00126091,-0
 .00012347,-0.00006018,-0.00025591,-0.00033484,-0.00034446,0.00033552,-
 0.00346138,-0.00676945,0.00332910,0.00309969,-0.00755753,0.00016536,0.
 00410398,-0.28225378,-0.07820864,-0.00356595,-0.01301588,-0.00736794,0
 .00180746,0.00051739,-0.00152958,-0.00018610,-0.00004858,0.00000451,-0
 .00002355,0.00003311,-0.00001459,-0.00007279,0.00004952,0.00002953,0.0
 0001593,-0.00008458,0.00011276,0.00002052,0.00002753,0.00007613,0.0000
 2042,0.00004326,0.00002454,0.00004955,-0.00022570,-0.00013321,0.000035
 21,0.00002439,-0.00001025,0.00000484,0.00002384,-0.00003021,0.00006205
 ,0.00040048,0.00009170,-0.00034213,0.00021351,0.00003069,-0.00093853,0
 .30961665,-0.00004764,0.00012313,0.00000144,0.00040880,0.00084594,0.00
 170740,-0.00008277,-0.00032060,0.00017345,0.00021154,0.00027264,-0.000
 14946,0.00065606,0.00190500,-0.00249895,0.00078632,-0.00404999,-0.0034
 8642,0.00539720,-0.08063586,-0.07556532,0.00345698,0.01817799,0.007180
 20,-0.00155240,0.00401213,0.00077554,0.00007226,-0.00001791,-0.0000163
 0,0.00002851,0.00002241,0.00001597,0.00002224,-0.00001774,-0.00002375,
 0.00004004,-0.00004051,0.00009029,-0.00003728,-0.00000042,0.00000345,0
 .00001212,-0.00003957,-0.00001892,-0.00006516,0.00008450,0.00010391,-0
 .00003501,0.00000265,-0.00001073,0.00002717,0.00001265,0.00002718,-0.0
 0044395,0.00042081,0.00055483,-0.00011439,-0.00033336,-0.00002852,-0.0
 0792551,0.08306890,0.07694880,-0.00006660,0.00007812,0.00001919,0.0002
 1697,-0.00001350,-0.00037328,0.00003328,0.00008608,0.00005300,0.000008
 92,-0.00006407,0.00006013,-0.00171175,0.00228996,-0.00079521,-0.008355
 30,0.00342163,0.02207347,-0.12817098,0.02084703,0.11947799,0.00374575,
 -0.00212505,-0.00738838,-0.00375550,-0.00359210,0.00215107,0.00001670,
 -0.00005348,-0.00001039,0.00001294,-0.00001214,0.00001487,0.00011494,0
 .00005027,-0.00002731,-0.00000618,-0.00001263,-0.00005527,0.00001416,-
 0.00000130,-0.00009792,0.00002567,-0.00000745,-0.00000022,0.00000084,-
 0.00000080,-0.00003428,0.00002177,-0.00001837,0.00000377,-0.00002742,-
 0.00001622,-0.00003560,0.00070797,-0.00088890,-0.00053811,-0.00011666,
 0.00014045,-0.00010255,0.00020673,-0.00042680,-0.00064629,0.13588063,-
 0.00004625,0.00008394,-0.00000438,0.00015320,0.00027808,-0.00010813,0.
 00003699,0.00005844,0.00006541,0.00003612,0.00005299,-0.00005378,-0.00
 245981,0.00167307,0.00472025,-0.00183841,-0.00144101,0.00775945,0.0225
 8621,-0.05757581,-0.03457047,-0.01177101,0.00140805,0.00902650,-0.0024
 4637,-0.00402916,0.00253282,0.00003077,-0.00000312,0.00000426,0.000009
 46,-0.00001075,-0.00000777,0.00006413,0.00001406,-0.00001238,-0.000013
 61,-0.00000121,-0.00002197,-0.00000250,0.00004530,-0.00006180,-0.00000
 857,-0.00000838,-0.00001549,0.00000946,0.00004138,0.00000708,0.0000235
 5,-0.00003306,0.00000404,-0.00001626,-0.00002217,-0.00002424,0.0001650
 1,-0.00074868,-0.00060892,0.00022048,0.00019800,-0.00031962,0.01616307
 ,-0.00241124,-0.02274568,-0.01963013,0.06049604,0.00004104,-0.00010596
 ,-0.00001152,-0.00032271,0.00011943,0.00042321,-0.00002123,-0.00006977
 ,-0.00008583,0.00009071,0.00008321,-0.00003128,-0.00224040,-0.00176381
 ,-0.00028298,-0.00388447,0.00125971,0.00293497,0.12000704,-0.03219647,
 -0.21890595,0.01403369,-0.00482157,-0.01201525,0.00250049,0.00409735,-
 0.00354482,-0.00004862,0.00004127,0.00002045,0.00000855,-0.00000010,0.
 00002087,-0.00010658,0.00000892,0.00005296,0.00000814,0.00005471,0.000
 04119,-0.00001486,-0.00006564,0.00012214,0.00001224,0.00000464,0.00000
 570,-0.00003115,0.00002104,0.00002487,-0.00003743,0.00002789,-0.000011
 06,0.00001826,0.00000896,0.00002713,-0.00021757,0.00082972,0.00106141,
 0.00014498,0.00029393,0.00033609,0.00440205,-0.00009884,-0.00621100,-0
 .13551363,0.03273426,0.23592979,-0.00008097,-0.00012189,0.00020918,-0.
 00008932,0.00040108,-0.00034084,-0.00036447,0.00016737,-0.00017750,-0.
 00003851,-0.00009563,0.00013835,-0.00269338,0.00331093,0.00062623,-0.0
 0714254,0.00106609,-0.00359178,0.00407395,-0.00040436,0.00359407,-0.21
 908688,0.03615637,-0.12109620,-0.00533452,-0.00025870,-0.01341694,-0.0
 0006837,-0.00011842,-0.00002300,0.00012098,0.00003470,0.00006118,0.000
 12518,0.00003969,-0.00008677,0.00025319,0.00003727,0.00024939,-0.00032
 259,0.00002742,0.00007449,0.00051861,-0.00039312,-0.00008384,-0.000006
 77,-0.00007866,-0.00002254,0.00004611,-0.00001624,-0.00004475,0.000019
 79,0.00004005,0.00008802,0.00027176,-0.00032942,-0.00019439,0.00055959
 ,0.00059700,-0.00206009,-0.00000127,0.00018092,-0.00023468,0.00028464,
 0.00026661,-0.00017777,0.22902519,0.00015294,-0.00038040,0.00013677,-0
 .00028544,0.00131296,-0.00032920,-0.00020243,-0.00012634,-0.00006684,-
 0.00009384,0.00009863,0.00008756,-0.01196299,0.00795619,-0.00541376,0.
 00131315,-0.00232485,0.00080529,0.01406885,0.00158567,0.00361073,0.035
 32310,-0.05966197,0.02472744,0.00136284,-0.00209678,0.00462196,-0.0002
 0058,-0.00007562,0.00005492,0.00008391,0.00000560,-0.00000590,-0.00005
 542,0.00000294,0.00004906,0.00016602,0.00002474,0.00005397,-0.00000089
 ,-0.00008562,0.00017611,0.00004931,-0.00053491,0.00024387,0.00000302,-
 0.00007786,0.00003016,0.00001902,-0.00001454,-0.00004920,0.00002666,0.
 00003974,0.00006549,0.00037811,0.00025077,0.00004503,0.00053459,0.0031
 7551,0.00049856,0.00030565,0.00008403,-0.00026425,-0.00032527,0.000271
 66,0.00009023,-0.04062046,0.05050841,0.00012730,-0.00024407,0.00000854
 ,0.00025703,0.00050198,-0.00011935,-0.00045538,0.00006365,-0.00011728,
 -0.00019888,-0.00000763,0.00012272,-0.00563742,0.00738505,-0.00391473,
 -0.00385049,0.00049923,-0.00503492,-0.01046023,-0.00409763,-0.00378326
 ,-0.12122438,0.02527051,-0.14086249,0.00702297,-0.00093686,0.00904440,
 -0.00012510,-0.00003585,0.00004801,0.00007435,0.00005209,0.00006194,-0
 .00006992,0.00001068,0.00001480,0.00021363,-0.00006127,0.00020336,0.00
 000409,0.00001632,0.00007939,0.00034641,-0.00011879,0.00011029,0.00002
 413,-0.00011085,-0.00000970,0.00005198,-0.00002796,-0.00003600,0.00003
 701,0.00003909,0.00006143,-0.00005525,0.00020428,-0.00020579,-0.002068
 06,0.00054612,0.00189773,0.00013364,0.00029273,0.00028122,-0.00013427,
 -0.00021329,-0.00013890,0.13637686,-0.02919153,0.14170200,-0.00038763,
 0.00011691,0.00014626,-0.00021227,-0.00005360,0.00029435,0.00003759,0.
 00005992,0.00013707,0.00009169,0.00010710,-0.00003496,-0.00355950,0.00
 135284,0.00362048,-0.00096923,-0.00730862,-0.00216968,-0.00144942,0.00
 359521,-0.00102138,0.00256821,0.02160985,0.01188943,-0.04823666,0.0100
 1241,0.00694079,0.00009405,-0.00010195,-0.00011607,0.00002790,-0.00008
 211,-0.00007383,0.00032420,-0.00013213,-0.00017505,0.00004966,-0.00003
 787,-0.00007766,-0.00003272,0.00003510,-0.00023576,0.00010135,-0.00009
 024,-0.00000295,-0.00000699,0.00009163,-0.00001948,0.00004540,-0.00005
 379,-0.00001095,-0.00002202,-0.00002401,-0.00007370,0.00144362,0.00119
 688,0.00157392,0.00007456,-0.00042881,-0.00008265,0.00010697,-0.000688
 31,0.00030220,0.00007307,-0.00013548,-0.00033878,0.00012125,0.00011216
 ,-0.00028975,0.04816392,-0.00025065,0.00007600,0.00017239,-0.00004135,
 0.00055578,0.00022067,-0.00008029,0.00003022,0.00036694,-0.00004947,0.
 00002750,0.00006330,0.00161206,0.00002952,-0.00182303,0.00092089,-0.00
 030913,0.00124628,-0.00071936,0.00206508,0.00252317,-0.00200526,-0.006
 27970,-0.00345429,0.01179885,-0.27376783,-0.08560864,-0.00001368,-0.00
 012524,-0.00009260,0.00001388,-0.00007702,-0.00010878,0.00027251,-0.00
 013033,-0.00015011,0.00005452,-0.00015226,-0.00005797,0.00004635,-0.00
 009908,-0.00035924,0.00006089,-0.00008929,-0.00007800,-0.00001672,-0.0
 0007429,0.00001289,0.00001461,0.00001030,-0.00001507,0.00001408,0.0000
 0713,-0.00001239,-0.00012465,-0.00024025,-0.00061203,-0.00000391,0.000
 14180,-0.00036588,0.00035222,0.00090791,-0.00035118,0.00014610,0.00051
 309,0.00000083,0.00033755,-0.00005720,-0.00006195,-0.01422173,0.294082
 68,0.00016332,-0.00011245,-0.00001291,0.00029844,0.00023784,-0.0003193
 5,-0.00003471,-0.00004168,-0.00039123,-0.00008229,-0.00015071,0.000109
 15,0.00369948,-0.00147041,-0.00670558,0.00659195,-0.02339235,-0.005420
 53,-0.00233460,-0.00336716,-0.00083679,-0.00155457,0.00018309,-0.00298
 857,0.00748442,-0.08317116,-0.08091268,-0.00008282,0.00003152,0.000090
 22,0.00004953,0.00006128,0.00011034,-0.00026493,0.00002454,0.00004651,
 -0.00005558,0.00006471,0.00016147,-0.00001919,0.00003403,0.00037171,-0
 .00005096,0.00008972,0.00004915,-0.00005260,-0.00013492,-0.00001120,-0
 .00008125,0.00006583,0.00000785,0.00002878,0.00005215,0.00007804,0.001
 17167,-0.00241606,-0.00000508,-0.00031191,0.00007821,0.00010966,0.0006
 1885,0.00106941,-0.00003765,-0.00025310,0.00038516,0.00031789,0.000137
 47,0.00038194,0.00026213,-0.01378081,0.09635976,0.08937555,-0.00029033
 ,-0.00052393,-0.00057532,0.00046361,0.00023696,0.00090033,-0.00037957,
 0.00033342,0.00106902,-0.00014434,0.00012343,-0.00019874,-0.00139079,-
 0.00086568,-0.00148005,0.00267682,0.00635509,-0.00402741,-0.00364617,0
 .00126000,0.00413068,-0.00696707,-0.01731127,0.01386466,-0.12307502,-0
 .09379729,0.07748794,0.00007752,-0.00006027,-0.00008568,-0.00011739,-0
 .00001182,-0.00009840,-0.00030563,-0.00110384,-0.00075470,0.00019634,-
 0.00031874,-0.00036164,0.00019611,0.00068844,-0.00107659,0.00011177,-0
 .00021691,-0.00013389,0.00000957,0.00006926,0.00001282,0.00000770,-0.0
 0000881,0.00003880,0.00000929,-0.00006727,-0.00013535,0.00005957,0.000
 04780,-0.00005343,0.00030999,0.00033269,0.00002453,0.00007747,0.000016
 36,-0.00023636,0.00084541,-0.00139666,0.00168800,-0.00019066,-0.000151
 99,-0.00010027,0.00155300,0.00188256,-0.00128460,0.12991278,-0.0009108
 2,-0.00110758,-0.00052422,-0.00032840,0.00009734,0.00015411,0.00059652
 ,-0.00162315,0.00019885,0.00006643,0.00005711,0.00002267,0.00059768,0.
 00183918,0.00043876,0.00203284,0.00035257,-0.00162653,0.00046473,-0.00
 003609,-0.00037114,0.00369560,0.00573731,-0.00597177,-0.09619931,-0.16
 948978,0.09356494,0.00007749,-0.00020095,-0.00018788,-0.00000169,0.000
 01900,0.00001943,-0.00050817,-0.00091551,-0.00106522,0.00006188,-0.000
 14509,-0.00011771,0.00091682,-0.00165555,0.00013069,-0.00001075,0.0000
 5496,0.00005767,-0.00000389,0.00007907,0.00002834,0.00000426,0.0000002
 4,0.00001650,-0.00002729,0.00002011,0.00003243,-0.00010962,0.00016360,
 0.00019644,-0.00016312,-0.00002772,0.00032608,0.00028926,0.00076575,-0
 .00013165,0.00012860,0.00115050,-0.00055396,-0.00022614,0.00011923,0.0
 0022593,-0.01493136,-0.01704540,0.01513770,0.10448845,0.18179085,0.000
 66561,-0.00064877,-0.00082727,0.00072935,-0.00061986,-0.00011200,-0.00
 020838,0.00015564,-0.00021275,-0.00021629,-0.00005470,-0.00003885,-0.0
 0103503,0.00243634,-0.00012849,0.01702776,0.01491071,-0.00732028,0.003
 88932,-0.00145699,-0.00665292,-0.00211320,0.00026804,-0.00306261,0.076
 75413,0.09028322,-0.12270586,-0.00020758,0.00030086,0.00036211,-0.0000
 0337,0.00022470,0.00024056,-0.00130108,-0.00048601,0.00031573,-0.00008
 160,0.00010192,0.00018703,-0.00027990,0.00067838,0.00054565,-0.0001627
 3,0.00014768,-0.00002482,-0.00000947,-0.00007154,-0.00000534,-0.000113
 24,0.00009821,0.00006592,0.00003279,0.00002311,0.00004400,-0.00010135,
 -0.00001857,0.00014248,-0.00024518,0.00013212,-0.00002938,-0.00015332,
 0.00024082,0.00018334,0.00215229,0.00152866,-0.00008005,-0.00000417,-0
 .00035842,0.00032446,-0.00640102,-0.00781507,0.00655189,-0.08861433,-0
 .10000046,0.13223745\\0.00000532,0.00000042,-0.00000624,-0.00001309,-0
 .00000680,0.00000588,0.00000130,0.00000067,0.00000796,-0.00000171,0.00
 000222,0.00001063,0.00001733,0.00001581,-0.00001147,0.00000848,-0.0000
 0069,-0.00000394,-0.00000555,-0.00000110,-0.00000050,-0.00000992,-0.00
 000565,-0.00000273,0.00000160,0.00000024,0.00000165,-0.00000192,0.0000
 0208,0.00000342,-0.00000407,0.00000051,0.00000008,0.00000071,0.0000099
 8,0.00000276,-0.00000221,0.00000136,0.00000201,0.00000283,0.00000132,-
 0.00000473,0.00000179,-0.00000068,0.00000042,-0.00000087,-0.00000405,0
 .00000387,-0.00000164,-0.00000027,0.00000066,-0.00000550,-0.00000195,0
 .00000237,0.00000117,-0.00000273,0.00000034,-0.00000127,-0.00000025,-0
 .00000051,0.00000225,-0.00000104,-0.00000414,0.00000265,-0.00000468,-0
 .00000184,0.00000460,-0.00000056,-0.00000293,0.00000336,0.00000311,-0.
 00000291,-0.00000565,-0.00000727,-0.00000011\\\@


 IF IT HAPPENS, IT MUST BE POSSIBLE.

 -- THE UNNAMED LAW FROM PAUL DICKSON'S 
    "THE OFFICIAL RULES"
 Job cpu time:       0 days  3 hours 10 minutes  2.9 seconds.
 Elapsed time:       0 days  0 hours 50 minutes 11.7 seconds.
 File lengths (MBytes):  RWF=    199 Int=      0 D2E=      0 Chk=     10 Scr=      1
 Normal termination of Gaussian 16 at Mon May 29 02:19:03 2023.
### All Done ###
