### Starting Gaussian ###
 Entering Gaussian System, Link 0=g16
 Initial command:
 /cluster/software/gaussian/gaussian-16-A.03/avx2/g16/l1.exe "/local/scratch/linjian/Gau-15657.inp" -scrdir="/local/scratch/linjian/"
 Entering Link 1 = /cluster/software/gaussian/gaussian-16-A.03/avx2/g16/l1.exe PID=     15658.
  
 Copyright (c) 1988,1990,1992,1993,1995,1998,2003,2009,2016,
            Gaussian, Inc.  All Rights Reserved.
  
 This is part of the Gaussian(R) 16 program.  It is based on
 the Gaussian(R) 09 system (copyright 2009, Gaussian, Inc.),
 the Gaussian(R) 03 system (copyright 2003, Gaussian, Inc.),
 the Gaussian(R) 98 system (copyright 1998, Gaussian, Inc.),
 the Gaussian(R) 94 system (copyright 1995, Gaussian, Inc.),
 the Gaussian 92(TM) system (copyright 1992, Gaussian, Inc.),
 the Gaussian 90(TM) system (copyright 1990, Gaussian, Inc.),
 the Gaussian 88(TM) system (copyright 1988, Gaussian, Inc.),
 the Gaussian 86(TM) system (copyright 1986, Carnegie Mellon
 University), and the Gaussian 82(TM) system (copyright 1983,
 Carnegie Mellon University). Gaussian is a federally registered
 trademark of Gaussian, Inc.
  
 This software contains proprietary and confidential information,
 including trade secrets, belonging to Gaussian, Inc.
  
 This software is provided under written license and may be
 used, copied, transmitted, or stored only in accord with that
 written license.
  
 The following legend is applicable only to US Government
 contracts under FAR:
  
                    RESTRICTED RIGHTS LEGEND
  
 Use, reproduction and disclosure by the US Government is
 subject to restrictions as set forth in subparagraphs (a)
 and (c) of the Commercial Computer Software - Restricted
 Rights clause in FAR 52.227-19.
  
 Gaussian, Inc.
 340 Quinnipiac St., Bldg. 40, Wallingford CT 06492
  
  
 ---------------------------------------------------------------
 Warning -- This program may not be used in any manner that
 competes with the business of Gaussian, Inc. or will provide
 assistance to any competitor of Gaussian, Inc.  The licensee
 of this program is prohibited from giving any competitor of
 Gaussian, Inc. access to this program.  By using this program,
 the user acknowledges that Gaussian, Inc. is engaged in the
 business of creating and licensing software in the field of
 computational chemistry and represents and warrants to the
 licensee that it is not a competitor of Gaussian, Inc. and that
 it will not use this program in any manner prohibited above.
 ---------------------------------------------------------------
  

 Cite this work as:
 Gaussian 16, Revision A.03,
 M. J. Frisch, G. W. Trucks, H. B. Schlegel, G. E. Scuseria, 
 M. A. Robb, J. R. Cheeseman, G. Scalmani, V. Barone, 
 G. A. Petersson, H. Nakatsuji, X. Li, M. Caricato, A. V. Marenich, 
 J. Bloino, B. G. Janesko, R. Gomperts, B. Mennucci, H. P. Hratchian, 
 J. V. Ortiz, A. F. Izmaylov, J. L. Sonnenberg, D. Williams-Young, 
 F. Ding, F. Lipparini, F. Egidi, J. Goings, B. Peng, A. Petrone, 
 T. Henderson, D. Ranasinghe, V. G. Zakrzewski, J. Gao, N. Rega, 
 G. Zheng, W. Liang, M. Hada, M. Ehara, K. Toyota, R. Fukuda, 
 J. Hasegawa, M. Ishida, T. Nakajima, Y. Honda, O. Kitao, H. Nakai, 
 T. Vreven, K. Throssell, J. A. Montgomery, Jr., J. E. Peralta, 
 F. Ogliaro, M. J. Bearpark, J. J. Heyd, E. N. Brothers, K. N. Kudin, 
 V. N. Staroverov, T. A. Keith, R. Kobayashi, J. Normand, 
 K. Raghavachari, A. P. Rendell, J. C. Burant, S. S. Iyengar, 
 J. Tomasi, M. Cossi, J. M. Millam, M. Klene, C. Adamo, R. Cammi, 
 J. W. Ochterski, R. L. Martin, K. Morokuma, O. Farkas, 
 J. B. Foresman, and D. J. Fox, Gaussian, Inc., Wallingford CT, 2016.
 
 ******************************************
 Gaussian 16:  ES64L-G16RevA.03 25-Dec-2016
                28-May-2023 
 ******************************************
 %chk=CCqCrCC1CCCC1.chk
 %NProcShared=20
 Will use up to   20 processors via shared memory.
 -----------------------------
 # opt freq b3lyp/6-31g(2df,p)
 -----------------------------
 1/18=20,19=15,26=3,38=1/1,3;
 2/9=110,12=2,17=6,18=5,40=1/2;
 3/5=1,6=6,7=104,11=2,25=1,30=1,71=1,74=-5/1,2,3;
 4//1;
 5/5=2,38=5/2;
 6/7=2,8=2,9=2,10=2,28=1/1;
 7//1,2,3,16;
 1/18=20,19=15,26=3/3(2);
 2/9=110/2;
 99//99;
 2/9=110/2;
 3/5=1,6=6,7=104,11=2,25=1,30=1,71=1,74=-5/1,2,3;
 4/5=5,16=3,69=1/1;
 5/5=2,38=5/2;
 7//1,2,3,16;
 1/18=20,19=15,26=3/3(-5);
 2/9=110/2;
 6/7=2,8=2,9=2,10=2,19=2,28=1/1;
 99/9=1/99;
 -------------------
 Title Card Required
 -------------------
 Symbolic Z-matrix:
 Charge =  0 Multiplicity = 1
 C                     1.05379  -0.00558  -0.06442 
 C                     2.58428  -0.0466   -0.03443 
 C                     3.03447  -0.94184   1.12515 
 C                     3.11752  -0.55094  -1.38903 
 C                     4.64766  -0.528    -1.48379 
 C                     5.20363  -1.6879   -2.3044 
 C                     6.63781  -1.26143  -2.58074 
 C                     6.61024   0.26661  -2.64329 
 C                     5.2058    0.69109  -2.21561 
 H                     0.65707   0.36571   0.8866 
 H                     0.63598  -1.00376  -0.23655 
 H                     0.69278   0.65448  -0.85949 
 H                     2.95386   0.97129   0.13871 
 H                     2.71089  -1.97663   0.96999 
 H                     2.61451  -0.59004   2.07251 
 H                     4.12076  -0.94771   1.24727 
 H                     2.68603   0.05755  -2.19426 
 H                     2.74915  -1.57206  -1.55019 
 H                     5.11283  -0.56547  -0.49616 
 H                     4.65277  -1.81149  -3.24222 
 H                     5.15937  -2.63457  -1.75363 
 H                     7.02165  -1.7077   -3.50329 
 H                     7.28992  -1.58443  -1.76096 
 H                     6.83318   0.62906  -3.65204 
 H                     7.36569   0.68437  -1.96884 
 H                     4.61049   0.92978  -3.10365 
 H                     5.22389   1.58075  -1.57655 
 

 GradGradGradGradGradGradGradGradGradGradGradGradGradGradGradGradGradGrad
 Berny optimization.
 Initialization pass.
                           ----------------------------
                           !    Initial Parameters    !
                           ! (Angstroms and Degrees)  !
 --------------------------                            --------------------------
 ! Name  Definition              Value          Derivative Info.                !
 --------------------------------------------------------------------------------
 ! R1    R(1,2)                  1.5313         estimate D2E/DX2                !
 ! R2    R(1,10)                 1.0953         estimate D2E/DX2                !
 ! R3    R(1,11)                 1.0957         estimate D2E/DX2                !
 ! R4    R(1,12)                 1.0946         estimate D2E/DX2                !
 ! R5    R(2,3)                  1.5326         estimate D2E/DX2                !
 ! R6    R(2,4)                  1.5407         estimate D2E/DX2                !
 ! R7    R(2,13)                 1.0967         estimate D2E/DX2                !
 ! R8    R(3,14)                 1.0952         estimate D2E/DX2                !
 ! R9    R(3,15)                 1.0944         estimate D2E/DX2                !
 ! R10   R(3,16)                 1.0931         estimate D2E/DX2                !
 ! R11   R(4,5)                  1.5332         estimate D2E/DX2                !
 ! R12   R(4,17)                 1.0977         estimate D2E/DX2                !
 ! R13   R(4,18)                 1.0974         estimate D2E/DX2                !
 ! R14   R(5,6)                  1.5257         estimate D2E/DX2                !
 ! R15   R(5,9)                  1.5275         estimate D2E/DX2                !
 ! R16   R(5,19)                 1.0923         estimate D2E/DX2                !
 ! R17   R(6,7)                  1.5215         estimate D2E/DX2                !
 ! R18   R(6,20)                 1.0946         estimate D2E/DX2                !
 ! R19   R(6,21)                 1.0961         estimate D2E/DX2                !
 ! R20   R(7,8)                  1.5296         estimate D2E/DX2                !
 ! R21   R(7,22)                 1.0943         estimate D2E/DX2                !
 ! R22   R(7,23)                 1.0962         estimate D2E/DX2                !
 ! R23   R(8,9)                  1.5282         estimate D2E/DX2                !
 ! R24   R(8,24)                 1.0948         estimate D2E/DX2                !
 ! R25   R(8,25)                 1.0955         estimate D2E/DX2                !
 ! R26   R(9,26)                 1.0954         estimate D2E/DX2                !
 ! R27   R(9,27)                 1.0955         estimate D2E/DX2                !
 ! A1    A(2,1,10)             110.737          estimate D2E/DX2                !
 ! A2    A(2,1,11)             111.0868         estimate D2E/DX2                !
 ! A3    A(2,1,12)             111.1006         estimate D2E/DX2                !
 ! A4    A(10,1,11)            107.8847         estimate D2E/DX2                !
 ! A5    A(10,1,12)            107.8669         estimate D2E/DX2                !
 ! A6    A(11,1,12)            108.0276         estimate D2E/DX2                !
 ! A7    A(1,2,3)              108.9082         estimate D2E/DX2                !
 ! A8    A(1,2,4)              109.7228         estimate D2E/DX2                !
 ! A9    A(1,2,13)             108.3637         estimate D2E/DX2                !
 ! A10   A(3,2,4)              111.8612         estimate D2E/DX2                !
 ! A11   A(3,2,13)             108.889          estimate D2E/DX2                !
 ! A12   A(4,2,13)             109.0268         estimate D2E/DX2                !
 ! A13   A(2,3,14)             110.9729         estimate D2E/DX2                !
 ! A14   A(2,3,15)             110.7619         estimate D2E/DX2                !
 ! A15   A(2,3,16)             112.307          estimate D2E/DX2                !
 ! A16   A(14,3,15)            108.2392         estimate D2E/DX2                !
 ! A17   A(14,3,16)            107.7184         estimate D2E/DX2                !
 ! A18   A(15,3,16)            106.6402         estimate D2E/DX2                !
 ! A19   A(2,4,5)              113.2567         estimate D2E/DX2                !
 ! A20   A(2,4,17)             109.1154         estimate D2E/DX2                !
 ! A21   A(2,4,18)             108.5136         estimate D2E/DX2                !
 ! A22   A(5,4,17)             109.7961         estimate D2E/DX2                !
 ! A23   A(5,4,18)             109.8666         estimate D2E/DX2                !
 ! A24   A(17,4,18)            106.0292         estimate D2E/DX2                !
 ! A25   A(4,5,6)              112.6762         estimate D2E/DX2                !
 ! A26   A(4,5,9)              113.9667         estimate D2E/DX2                !
 ! A27   A(4,5,19)             111.6289         estimate D2E/DX2                !
 ! A28   A(6,5,9)              102.4685         estimate D2E/DX2                !
 ! A29   A(6,5,19)             107.7603         estimate D2E/DX2                !
 ! A30   A(9,5,19)             107.7549         estimate D2E/DX2                !
 ! A31   A(5,6,7)              103.1836         estimate D2E/DX2                !
 ! A32   A(5,6,20)             111.3            estimate D2E/DX2                !
 ! A33   A(5,6,21)             111.8145         estimate D2E/DX2                !
 ! A34   A(7,6,20)             110.5109         estimate D2E/DX2                !
 ! A35   A(7,6,21)             111.8012         estimate D2E/DX2                !
 ! A36   A(20,6,21)            108.2194         estimate D2E/DX2                !
 ! A37   A(6,7,8)              105.6907         estimate D2E/DX2                !
 ! A38   A(6,7,22)             111.6795         estimate D2E/DX2                !
 ! A39   A(6,7,23)             110.0183         estimate D2E/DX2                !
 ! A40   A(8,7,22)             112.2864         estimate D2E/DX2                !
 ! A41   A(8,7,23)             109.6133         estimate D2E/DX2                !
 ! A42   A(22,7,23)            107.5556         estimate D2E/DX2                !
 ! A43   A(7,8,9)              106.4154         estimate D2E/DX2                !
 ! A44   A(7,8,24)             111.3912         estimate D2E/DX2                !
 ! A45   A(7,8,25)             110.0815         estimate D2E/DX2                !
 ! A46   A(9,8,24)             110.6726         estimate D2E/DX2                !
 ! A47   A(9,8,25)             110.8252         estimate D2E/DX2                !
 ! A48   A(24,8,25)            107.4927         estimate D2E/DX2                !
 ! A49   A(5,9,8)              104.3705         estimate D2E/DX2                !
 ! A50   A(5,9,26)             111.3287         estimate D2E/DX2                !
 ! A51   A(5,9,27)             112.0041         estimate D2E/DX2                !
 ! A52   A(8,9,26)             109.4555         estimate D2E/DX2                !
 ! A53   A(8,9,27)             111.9394         estimate D2E/DX2                !
 ! A54   A(26,9,27)            107.753          estimate D2E/DX2                !
 ! D1    D(10,1,2,3)            58.119          estimate D2E/DX2                !
 ! D2    D(10,1,2,4)          -179.1342         estimate D2E/DX2                !
 ! D3    D(10,1,2,13)          -60.1928         estimate D2E/DX2                !
 ! D4    D(11,1,2,3)           -61.7445         estimate D2E/DX2                !
 ! D5    D(11,1,2,4)            61.0023         estimate D2E/DX2                !
 ! D6    D(11,1,2,13)          179.9437         estimate D2E/DX2                !
 ! D7    D(12,1,2,3)           177.9692         estimate D2E/DX2                !
 ! D8    D(12,1,2,4)           -59.284          estimate D2E/DX2                !
 ! D9    D(12,1,2,13)           59.6574         estimate D2E/DX2                !
 ! D10   D(1,2,3,14)            63.8925         estimate D2E/DX2                !
 ! D11   D(1,2,3,15)           -56.3584         estimate D2E/DX2                !
 ! D12   D(1,2,3,16)          -175.4728         estimate D2E/DX2                !
 ! D13   D(4,2,3,14)           -57.5598         estimate D2E/DX2                !
 ! D14   D(4,2,3,15)          -177.8106         estimate D2E/DX2                !
 ! D15   D(4,2,3,16)            63.0749         estimate D2E/DX2                !
 ! D16   D(13,2,3,14)         -178.1267         estimate D2E/DX2                !
 ! D17   D(13,2,3,15)           61.6225         estimate D2E/DX2                !
 ! D18   D(13,2,3,16)          -57.492          estimate D2E/DX2                !
 ! D19   D(1,2,4,5)            175.8359         estimate D2E/DX2                !
 ! D20   D(1,2,4,17)            53.2142         estimate D2E/DX2                !
 ! D21   D(1,2,4,18)           -61.8888         estimate D2E/DX2                !
 ! D22   D(3,2,4,5)            -63.1829         estimate D2E/DX2                !
 ! D23   D(3,2,4,17)           174.1953         estimate D2E/DX2                !
 ! D24   D(3,2,4,18)            59.0924         estimate D2E/DX2                !
 ! D25   D(13,2,4,5)            57.3037         estimate D2E/DX2                !
 ! D26   D(13,2,4,17)          -65.318          estimate D2E/DX2                !
 ! D27   D(13,2,4,18)          179.579          estimate D2E/DX2                !
 ! D28   D(2,4,5,6)            145.1455         estimate D2E/DX2                !
 ! D29   D(2,4,5,9)            -98.6355         estimate D2E/DX2                !
 ! D30   D(2,4,5,19)            23.7259         estimate D2E/DX2                !
 ! D31   D(17,4,5,6)           -92.6112         estimate D2E/DX2                !
 ! D32   D(17,4,5,9)            23.6078         estimate D2E/DX2                !
 ! D33   D(17,4,5,19)          145.9692         estimate D2E/DX2                !
 ! D34   D(18,4,5,6)            23.6269         estimate D2E/DX2                !
 ! D35   D(18,4,5,9)           139.8459         estimate D2E/DX2                !
 ! D36   D(18,4,5,19)          -97.7927         estimate D2E/DX2                !
 ! D37   D(4,5,6,7)            165.0974         estimate D2E/DX2                !
 ! D38   D(4,5,6,20)            46.5697         estimate D2E/DX2                !
 ! D39   D(4,5,6,21)           -74.5963         estimate D2E/DX2                !
 ! D40   D(9,5,6,7)             42.1917         estimate D2E/DX2                !
 ! D41   D(9,5,6,20)           -76.336          estimate D2E/DX2                !
 ! D42   D(9,5,6,21)           162.4979         estimate D2E/DX2                !
 ! D43   D(19,5,6,7)           -71.3093         estimate D2E/DX2                !
 ! D44   D(19,5,6,20)          170.163          estimate D2E/DX2                !
 ! D45   D(19,5,6,21)           48.9969         estimate D2E/DX2                !
 ! D46   D(4,5,9,8)           -159.5586         estimate D2E/DX2                !
 ! D47   D(4,5,9,26)           -41.5792         estimate D2E/DX2                !
 ! D48   D(4,5,9,27)            79.1405         estimate D2E/DX2                !
 ! D49   D(6,5,9,8)            -37.5272         estimate D2E/DX2                !
 ! D50   D(6,5,9,26)            80.4521         estimate D2E/DX2                !
 ! D51   D(6,5,9,27)          -158.8281         estimate D2E/DX2                !
 ! D52   D(19,5,9,8)            75.9778         estimate D2E/DX2                !
 ! D53   D(19,5,9,26)         -166.0429         estimate D2E/DX2                !
 ! D54   D(19,5,9,27)          -45.3231         estimate D2E/DX2                !
 ! D55   D(5,6,7,8)            -30.7329         estimate D2E/DX2                !
 ! D56   D(5,6,7,22)          -153.1157         estimate D2E/DX2                !
 ! D57   D(5,6,7,23)            87.5241         estimate D2E/DX2                !
 ! D58   D(20,6,7,8)            88.343          estimate D2E/DX2                !
 ! D59   D(20,6,7,22)          -34.0398         estimate D2E/DX2                !
 ! D60   D(20,6,7,23)         -153.4            estimate D2E/DX2                !
 ! D61   D(21,6,7,8)          -151.0483         estimate D2E/DX2                !
 ! D62   D(21,6,7,22)           86.5689         estimate D2E/DX2                !
 ! D63   D(21,6,7,23)          -32.7913         estimate D2E/DX2                !
 ! D64   D(6,7,8,9)              7.4876         estimate D2E/DX2                !
 ! D65   D(6,7,8,24)          -113.2202         estimate D2E/DX2                !
 ! D66   D(6,7,8,25)           127.6412         estimate D2E/DX2                !
 ! D67   D(22,7,8,9)           129.4812         estimate D2E/DX2                !
 ! D68   D(22,7,8,24)            8.7733         estimate D2E/DX2                !
 ! D69   D(22,7,8,25)         -110.3653         estimate D2E/DX2                !
 ! D70   D(23,7,8,9)          -111.0394         estimate D2E/DX2                !
 ! D71   D(23,7,8,24)          128.2527         estimate D2E/DX2                !
 ! D72   D(23,7,8,25)            9.1141         estimate D2E/DX2                !
 ! D73   D(7,8,9,5)             18.648          estimate D2E/DX2                !
 ! D74   D(7,8,9,26)          -100.6077         estimate D2E/DX2                !
 ! D75   D(7,8,9,27)           139.9917         estimate D2E/DX2                !
 ! D76   D(24,8,9,5)           139.8168         estimate D2E/DX2                !
 ! D77   D(24,8,9,26)           20.5611         estimate D2E/DX2                !
 ! D78   D(24,8,9,27)          -98.8394         estimate D2E/DX2                !
 ! D79   D(25,8,9,5)          -101.0234         estimate D2E/DX2                !
 ! D80   D(25,8,9,26)          139.7209         estimate D2E/DX2                !
 ! D81   D(25,8,9,27)           20.3204         estimate D2E/DX2                !
 --------------------------------------------------------------------------------
 Trust Radius=3.00D-01 FncErr=1.00D-07 GrdErr=1.00D-06 EigMax=2.50D+02 EigMin=1.00D-04
 Number of steps in this run=    162 maximum allowed number of steps=    162.
 GradGradGradGradGradGradGradGradGradGradGradGradGradGradGradGradGradGrad

                          Input orientation:                          
 ---------------------------------------------------------------------
 Center     Atomic      Atomic             Coordinates (Angstroms)
 Number     Number       Type             X           Y           Z
 ---------------------------------------------------------------------
      1          6           0        1.053790   -0.005580   -0.064420
      2          6           0        2.584280   -0.046600   -0.034430
      3          6           0        3.034470   -0.941840    1.125150
      4          6           0        3.117520   -0.550940   -1.389030
      5          6           0        4.647660   -0.528000   -1.483790
      6          6           0        5.203630   -1.687900   -2.304400
      7          6           0        6.637810   -1.261430   -2.580740
      8          6           0        6.610240    0.266610   -2.643290
      9          6           0        5.205800    0.691090   -2.215610
     10          1           0        0.657070    0.365710    0.886600
     11          1           0        0.635980   -1.003760   -0.236550
     12          1           0        0.692780    0.654480   -0.859490
     13          1           0        2.953860    0.971290    0.138710
     14          1           0        2.710890   -1.976630    0.969990
     15          1           0        2.614510   -0.590040    2.072510
     16          1           0        4.120760   -0.947710    1.247270
     17          1           0        2.686030    0.057550   -2.194260
     18          1           0        2.749150   -1.572060   -1.550190
     19          1           0        5.112830   -0.565470   -0.496160
     20          1           0        4.652770   -1.811490   -3.242220
     21          1           0        5.159370   -2.634570   -1.753630
     22          1           0        7.021650   -1.707700   -3.503290
     23          1           0        7.289920   -1.584430   -1.760960
     24          1           0        6.833180    0.629060   -3.652040
     25          1           0        7.365690    0.684370   -1.968840
     26          1           0        4.610490    0.929780   -3.103650
     27          1           0        5.223890    1.580750   -1.576550
 ---------------------------------------------------------------------
                    Distance matrix (angstroms):
                    1          2          3          4          5
     1  C    0.000000
     2  C    1.531333   0.000000
     3  C    2.492941   1.532564   0.000000
     4  C    2.512169   1.540664   2.545742   0.000000
     5  C    3.899158   2.567085   3.095192   1.533243   0.000000
     6  C    5.006884   3.835052   4.125976   2.546063   1.525736
     7  C    6.252224   4.938685   5.178785   3.783835   2.387868
     8  C    6.131786   4.807557   5.333631   3.800085   2.414035
     9  C    4.727807   3.489140   4.306020   2.566474   1.527502
    10  H    1.095300   2.175416   2.723715   3.474558   4.726762
    11  H    1.095699   2.180110   2.758771   2.773319   4.227947
    12  H    1.094598   2.179452   3.459848   2.759133   4.174816
    13  H    2.146113   1.096662   2.153980   2.162859   2.783763
    14  H    2.775072   2.179428   1.095248   2.786201   3.445380
    15  H    2.709965   2.176106   1.094359   3.498115   4.096928
    16  H    3.466186   2.194430   1.093149   2.848507   2.812911
    17  H    2.684103   2.164732   3.484060   1.097652   2.166940
    18  H    2.745108   2.156789   2.763337   1.097431   2.167674
    19  H    4.120156   2.622210   2.662683   2.186021   1.092337
    20  H    5.129560   4.205164   4.738049   2.716669   2.177028
    21  H    5.159535   4.035384   3.958271   2.940000   2.184559
    22  H    7.094955   5.872180   6.156834   4.588074   3.332552
    23  H    6.652844   5.242983   5.181834   4.314552   2.859092
    24  H    6.831920   5.621100   6.302338   4.507743   3.288859
    25  H    6.628946   5.209428   5.565681   4.461964   3.015427
    26  H    4.770947   3.805122   4.885647   2.713192   2.179553
    27  H    4.710914   3.463227   4.296068   3.002676   2.188029
                    6          7          8          9         10
     6  C    0.000000
     7  C    1.521549   0.000000
     8  C    2.431770   1.529568   0.000000
     9  C    2.380647   2.448736   1.528249   0.000000
    10  H    5.922078   7.102062   6.921718   5.515480   0.000000
    11  H    5.060383   6.448533   6.564908   5.260461   1.771259
    12  H    5.284153   6.478950   6.192634   4.712510   1.770168
    13  H    4.254591   5.094304   4.648141   3.269949   2.490243
    14  H    4.125378   5.342274   5.769996   4.846582   3.116358
    15  H    5.202517   6.187927   6.240070   5.171465   2.480204
    16  H    3.786139   4.592126   4.775829   3.981773   3.721868
    17  H    3.065459   4.183974   3.955346   2.598282   3.701802
    18  H    2.570355   4.034873   4.414022   3.405842   3.750959
    19  H    2.130217   2.674958   2.746773   2.131688   4.757407
    20  H    1.094636   2.163448   2.917003   2.760920   6.144345
    21  H    1.096125   2.180690   3.363534   3.357915   6.020233
    22  H    2.177826   1.094344   2.192432   3.272556   8.004876
    23  H    2.158388   1.096182   2.160282   3.119015   7.403197
    24  H    3.136857   2.181698   1.094828   2.171530   7.668960
    25  H    3.227192   2.165726   1.095496   2.173952   7.297990
    26  H    2.800511   3.030654   2.156554   1.095437   5.645334
    27  H    3.348768   3.329498   2.187890   1.095545   5.329097
                   11         12         13         14         15
    11  H    0.000000
    12  H    1.772298   0.000000
    13  H    3.068259   2.491838   0.000000
    14  H    2.589878   3.787150   3.072506   0.000000
    15  H    3.068795   3.720013   2.508484   1.774111   0.000000
    16  H    3.787949   4.330877   2.504620   1.767284   1.754348
    17  H    3.026832   2.472040   2.519802   3.761779   4.316227
    18  H    2.552274   3.108570   3.059889   2.552733   3.755855
    19  H    4.505739   4.599688   2.725040   3.148060   3.583333
    20  H    5.081445   5.238314   4.696898   4.641216   5.821752
    21  H    5.042036   5.618520   4.631139   3.721027   5.029489
    22  H    7.207212   7.254252   6.081782   6.218135   7.194553
    23  H    6.850980   7.024786   5.379765   5.345973   6.127296
    24  H    7.262022   6.745628   5.434706   6.719082   7.214836
    25  H    7.151196   6.764560   4.897789   6.114312   6.366344
    26  H    5.268355   4.523328   3.641297   5.352592   5.752080
    27  H    5.433619   4.680076   2.909741   5.045294   4.983656
                   16         17         18         19         20
    16  H    0.000000
    17  H    3.861752   0.000000
    18  H    3.177563   1.753408   0.000000
    19  H    2.042023   3.026724   2.776902   0.000000
    20  H    4.602681   2.908539   2.558136   3.050421   0.000000
    21  H    3.595776   3.682265   2.641870   2.421688   1.774825
    22  H    5.617879   4.860789   4.699708   3.740470   2.385482
    23  H    4.415703   4.907102   4.545676   2.716196   3.033191
    24  H    5.817789   4.432900   5.093329   3.787623   3.298246
    25  H    4.851455   4.726831   5.155501   2.967535   3.900096
    26  H    4.763959   2.300287   3.483824   3.047478   2.745096
    27  H    3.947653   3.023646   4.008147   2.405377   3.822032
                   21         22         23         24         25
    21  H    0.000000
    22  H    2.718177   0.000000
    23  H    2.375309   1.767167   0.000000
    24  H    4.129998   2.349063   2.946919   0.000000
    25  H    3.991181   2.862673   2.279563   1.766292   0.000000
    26  H    3.850768   3.595790   3.911958   2.309007   2.989841
    27  H    4.219531   4.214045   3.784290   2.793418   2.354718
                   26         27
    26  H    0.000000
    27  H    1.769762   0.000000
 Stoichiometry    C9H18
 Framework group  C1[X(C9H18)]
 Deg. of freedom    75
 Full point group                 C1      NOp   1
 Largest Abelian subgroup         C1      NOp   1
 Largest concise Abelian subgroup C1      NOp   1
                         Standard orientation:                         
 ---------------------------------------------------------------------
 Center     Atomic      Atomic             Coordinates (Angstroms)
 Number     Number       Type             X           Y           Z
 ---------------------------------------------------------------------
      1          6           0       -3.289438   -0.634896    0.473651
      2          6           0       -2.024841   -0.218660   -0.283003
      3          6           0       -2.247371    1.167598   -0.897431
      4          6           0       -0.817392   -0.234985    0.673786
      5          6           0        0.512634    0.071812   -0.024597
      6          6           0        1.473062    0.861199    0.859889
      7          6           0        2.806093    0.715689    0.140885
      8          6           0        2.756038   -0.647294   -0.551468
      9          6           0        1.330918   -1.169829   -0.373886
     10          1           0       -4.156520   -0.643776   -0.195506
     11          1           0       -3.504463    0.059074    1.293850
     12          1           0       -3.182461   -1.638186    0.898043
     13          1           0       -1.851475   -0.940928   -1.089811
     14          1           0       -2.391449    1.923361   -0.117923
     15          1           0       -3.131096    1.168517   -1.542915
     16          1           0       -1.405930    1.486218   -1.518263
     17          1           0       -0.761703   -1.214712    1.165592
     18          1           0       -0.996175    0.495543    1.472987
     19          1           0        0.362368    0.641358   -0.944509
     20          1           0        1.530889    0.432641    1.865484
     21          1           0        1.172526    1.911318    0.951649
     22          1           0        3.649830    0.798966    0.832810
     23          1           0        2.915417    1.506292   -0.610521
     24          1           0        3.480044   -1.343383   -0.115666
     25          1           0        3.001606   -0.538916   -1.613570
     26          1           0        1.309818   -1.902824    0.439903
     27          1           0        0.960568   -1.664371   -1.278590
 ---------------------------------------------------------------------
 Rotational constants (GHZ):           3.5107820           0.7748252           0.7387975
 Standard basis: 6-31G(2df,p) (6D, 7F)
 There are   369 symmetry adapted cartesian basis functions of A   symmetry.
 There are   342 symmetry adapted basis functions of A   symmetry.
   342 basis functions,   522 primitive gaussians,   369 cartesian basis functions
    36 alpha electrons       36 beta electrons
       nuclear repulsion energy       480.7610090711 Hartrees.
 NAtoms=   27 NActive=   27 NUniq=   27 SFac= 1.00D+00 NAtFMM=   60 NAOKFM=F Big=F
 Integral buffers will be    131072 words long.
 Raffenetti 2 integral format.
 Two-electron integral symmetry is turned on.
 One-electron integrals computed using PRISM.
 PrsmSu:  requested number of processors reduced to:  13 ShMem   1 Linda.
 NBasis=   342 RedAO= T EigKep=  5.22D-04  NBF=   342
 NBsUse=   342 1.00D-06 EigRej= -1.00D+00 NBFU=   342
 ExpMin= 1.61D-01 ExpMax= 3.05D+03 ExpMxC= 4.57D+02 IAcc=3 IRadAn=         5 AccDes= 0.00D+00
 Harris functional with IExCor=  402 and IRadAn=       5 diagonalized for initial guess.
 HarFok:  IExCor=  402 AccDes= 0.00D+00 IRadAn=         5 IDoV= 1 UseB2=F ITyADJ=14
 ICtDFT=  3500011 ScaDFX=  1.000000  1.000000  1.000000  1.000000
 FoFCou: FMM=F IPFlag=           0 FMFlag=      100000 FMFlg1=           0
         NFxFlg=           0 DoJE=T BraDBF=F KetDBF=T FulRan=T
         wScrn=  0.000000 ICntrl=       500 IOpCl=  0 I1Cent=   200000004 NGrid=           0
         NMat0=    1 NMatS0=      1 NMatT0=    0 NMatD0=    1 NMtDS0=    0 NMtDT0=    0
 Petite list used in FoFCou.
 Requested convergence on RMS density matrix=1.00D-08 within 128 cycles.
 Requested convergence on MAX density matrix=1.00D-06.
 Requested convergence on             energy=1.00D-06.
 No special actions if energy rises.
 Integral accuracy reduced to 1.0D-05 until final iterations.
 Initial convergence to 1.0D-05 achieved.  Increase integral accuracy.
 SCF Done:  E(RB3LYP) =  -353.834652771     A.U. after   12 cycles
            NFock= 12  Conv=0.27D-08     -V/T= 2.0086

 **********************************************************************

            Population analysis using the SCF density.

 **********************************************************************

 Orbital symmetries:
       Occupied  (A) (A) (A) (A) (A) (A) (A) (A) (A) (A) (A) (A)
                 (A) (A) (A) (A) (A) (A) (A) (A) (A) (A) (A) (A)
                 (A) (A) (A) (A) (A) (A) (A) (A) (A) (A) (A) (A)
       Virtual   (A) (A) (A) (A) (A) (A) (A) (A) (A) (A) (A) (A)
                 (A) (A) (A) (A) (A) (A) (A) (A) (A) (A) (A) (A)
                 (A) (A) (A) (A) (A) (A) (A) (A) (A) (A) (A) (A)
                 (A) (A) (A) (A) (A) (A) (A) (A) (A) (A) (A) (A)
                 (A) (A) (A) (A) (A) (A) (A) (A) (A) (A) (A) (A)
                 (A) (A) (A) (A) (A) (A) (A) (A) (A) (A) (A) (A)
                 (A) (A) (A) (A) (A) (A) (A) (A) (A) (A) (A) (A)
                 (A) (A) (A) (A) (A) (A) (A) (A) (A) (A) (A) (A)
                 (A) (A) (A) (A) (A) (A) (A) (A) (A) (A) (A) (A)
                 (A) (A) (A) (A) (A) (A) (A) (A) (A) (A) (A) (A)
                 (A) (A) (A) (A) (A) (A) (A) (A) (A) (A) (A) (A)
                 (A) (A) (A) (A) (A) (A) (A) (A) (A) (A) (A) (A)
                 (A) (A) (A) (A) (A) (A) (A) (A) (A) (A) (A) (A)
                 (A) (A) (A) (A) (A) (A) (A) (A) (A) (A) (A) (A)
                 (A) (A) (A) (A) (A) (A) (A) (A) (A) (A) (A) (A)
                 (A) (A) (A) (A) (A) (A) (A) (A) (A) (A) (A) (A)
                 (A) (A) (A) (A) (A) (A) (A) (A) (A) (A) (A) (A)
                 (A) (A) (A) (A) (A) (A) (A) (A) (A) (A) (A) (A)
                 (A) (A) (A) (A) (A) (A) (A) (A) (A) (A) (A) (A)
                 (A) (A) (A) (A) (A) (A) (A) (A) (A) (A) (A) (A)
                 (A) (A) (A) (A) (A) (A) (A) (A) (A) (A) (A) (A)
                 (A) (A) (A) (A) (A) (A) (A) (A) (A) (A) (A) (A)
                 (A) (A) (A) (A) (A) (A) (A) (A) (A) (A) (A) (A)
                 (A) (A) (A) (A) (A) (A) (A) (A) (A) (A) (A) (A)
                 (A) (A) (A) (A) (A) (A) (A) (A) (A) (A) (A) (A)
                 (A) (A) (A) (A) (A) (A)
 The electronic state is 1-A.
 Alpha  occ. eigenvalues --  -10.17934 -10.17025 -10.16713 -10.16619 -10.16606
 Alpha  occ. eigenvalues --  -10.16590 -10.16562 -10.16523 -10.16498  -0.83905
 Alpha  occ. eigenvalues --   -0.79612  -0.72209  -0.70224  -0.67573  -0.64515
 Alpha  occ. eigenvalues --   -0.56021  -0.55625  -0.54590  -0.47769  -0.46503
 Alpha  occ. eigenvalues --   -0.44747  -0.43326  -0.41110  -0.39899  -0.39246
 Alpha  occ. eigenvalues --   -0.37956  -0.37303  -0.34663  -0.32971  -0.32750
 Alpha  occ. eigenvalues --   -0.32704  -0.32472  -0.30889  -0.30565  -0.29840
 Alpha  occ. eigenvalues --   -0.29025
 Alpha virt. eigenvalues --    0.07791   0.09329   0.10047   0.12383   0.13390
 Alpha virt. eigenvalues --    0.13832   0.14417   0.15299   0.15548   0.16953
 Alpha virt. eigenvalues --    0.17367   0.18271   0.18471   0.19632   0.20465
 Alpha virt. eigenvalues --    0.20703   0.21823   0.22951   0.23528   0.24637
 Alpha virt. eigenvalues --    0.25086   0.25964   0.26382   0.27816   0.29454
 Alpha virt. eigenvalues --    0.31377   0.33784   0.45575   0.46461   0.47452
 Alpha virt. eigenvalues --    0.48298   0.49228   0.49830   0.52040   0.52736
 Alpha virt. eigenvalues --    0.54252   0.55744   0.56209   0.57982   0.58897
 Alpha virt. eigenvalues --    0.59706   0.60629   0.61183   0.62891   0.63883
 Alpha virt. eigenvalues --    0.64721   0.66086   0.66576   0.67910   0.69153
 Alpha virt. eigenvalues --    0.71180   0.72759   0.73669   0.74421   0.74884
 Alpha virt. eigenvalues --    0.75678   0.75988   0.76680   0.78002   0.78382
 Alpha virt. eigenvalues --    0.79466   0.80251   0.80740   0.81070   0.83754
 Alpha virt. eigenvalues --    0.84745   0.85231   0.86376   0.87365   0.87955
 Alpha virt. eigenvalues --    0.88827   0.89526   0.91208   0.93753   1.02771
 Alpha virt. eigenvalues --    1.05753   1.07974   1.10694   1.13987   1.15163
 Alpha virt. eigenvalues --    1.16513   1.18794   1.20346   1.23374   1.26737
 Alpha virt. eigenvalues --    1.31210   1.32888   1.34635   1.35153   1.35908
 Alpha virt. eigenvalues --    1.38700   1.39736   1.41078   1.43412   1.44807
 Alpha virt. eigenvalues --    1.46587   1.47976   1.48697   1.50350   1.51465
 Alpha virt. eigenvalues --    1.53997   1.55928   1.56552   1.57998   1.58872
 Alpha virt. eigenvalues --    1.60332   1.62059   1.65161   1.71546   1.72385
 Alpha virt. eigenvalues --    1.73933   1.77673   1.77888   1.80259   1.81862
 Alpha virt. eigenvalues --    1.84244   1.85950   1.87874   1.88897   1.92820
 Alpha virt. eigenvalues --    1.93953   1.95245   1.96690   1.97880   1.98319
 Alpha virt. eigenvalues --    2.03769   2.07353   2.14702   2.17009   2.20880
 Alpha virt. eigenvalues --    2.23063   2.23404   2.24002   2.24341   2.28403
 Alpha virt. eigenvalues --    2.28982   2.31898   2.32978   2.33966   2.38001
 Alpha virt. eigenvalues --    2.39894   2.40588   2.42731   2.44235   2.44895
 Alpha virt. eigenvalues --    2.48090   2.49734   2.54575   2.56466   2.59339
 Alpha virt. eigenvalues --    2.60411   2.64807   2.66469   2.68302   2.70544
 Alpha virt. eigenvalues --    2.72365   2.75157   2.76375   2.78284   2.78677
 Alpha virt. eigenvalues --    2.80191   2.83416   2.83621   2.84531   2.87237
 Alpha virt. eigenvalues --    2.88464   2.90142   2.90769   2.92067   2.93054
 Alpha virt. eigenvalues --    2.93719   2.95582   2.96361   2.97386   2.98831
 Alpha virt. eigenvalues --    2.99695   3.00267   3.04293   3.05053   3.05743
 Alpha virt. eigenvalues --    3.09711   3.10522   3.13610   3.15980   3.17499
 Alpha virt. eigenvalues --    3.18920   3.20135   3.24524   3.28438   3.29189
 Alpha virt. eigenvalues --    3.32154   3.34671   3.35586   3.37645   3.39906
 Alpha virt. eigenvalues --    3.41940   3.43064   3.44764   3.48301   3.48948
 Alpha virt. eigenvalues --    3.50177   3.52111   3.53760   3.55300   3.56832
 Alpha virt. eigenvalues --    3.57686   3.60377   3.62111   3.63682   3.64681
 Alpha virt. eigenvalues --    3.69501   3.70273   3.71585   3.75179   3.77222
 Alpha virt. eigenvalues --    3.78461   3.78911   3.80652   3.82829   3.83600
 Alpha virt. eigenvalues --    3.87862   3.89523   3.93584   3.97504   4.00516
 Alpha virt. eigenvalues --    4.04223   4.06272   4.12585   4.14182   4.19828
 Alpha virt. eigenvalues --    4.25749   4.28006   4.31113   4.34082   4.42732
 Alpha virt. eigenvalues --    4.43795   4.44385   4.46509   4.48307   4.48943
 Alpha virt. eigenvalues --    4.50840   4.51493   4.52944   4.53852   4.56080
 Alpha virt. eigenvalues --    4.58629   4.60301   4.61088   4.63227   4.64541
 Alpha virt. eigenvalues --    4.65322   4.66363   4.67648   4.70263   4.71601
 Alpha virt. eigenvalues --    4.73396   4.74817   4.75872   4.77339   4.77450
 Alpha virt. eigenvalues --    4.78862   4.80630   4.81679   4.82528   4.84519
 Alpha virt. eigenvalues --    4.85013   4.85739   4.86999   4.87205   4.88004
 Alpha virt. eigenvalues --    4.88490   4.90718   4.93642   4.95720   4.96230
 Alpha virt. eigenvalues --    5.02120   5.05038   5.09027   5.13238   5.15233
 Alpha virt. eigenvalues --    5.19766   5.25595   5.28687   5.32274   5.36163
 Alpha virt. eigenvalues --    5.38361   5.42850   5.44606   5.46139   5.50353
 Alpha virt. eigenvalues --    5.52507   5.63250   5.65211   5.67866   6.00755
 Alpha virt. eigenvalues --    6.52999   6.80236  11.02082  11.32537  11.78689
 Alpha virt. eigenvalues --   11.90645  11.94623  12.24511  12.58630  12.79188
 Alpha virt. eigenvalues --   12.89159
          Condensed to atoms (all electrons):
               1          2          3          4          5          6
     1  C    5.016083   0.398246  -0.046554  -0.035010   0.002045  -0.000213
     2  C    0.398246   4.574776   0.418466   0.428210  -0.021818   0.002211
     3  C   -0.046554   0.418466   4.990756  -0.036507  -0.004517   0.000753
     4  C   -0.035010   0.428210  -0.036507   4.902753   0.426125  -0.026963
     5  C    0.002045  -0.021818  -0.004517   0.426125   4.591467   0.407689
     6  C   -0.000213   0.002211   0.000753  -0.026963   0.407689   4.920971
     7  C    0.000002  -0.000141  -0.000007   0.003166  -0.046697   0.406236
     8  C    0.000000   0.000022   0.000003   0.003308  -0.051243  -0.065387
     9  C    0.000050   0.000445  -0.000084  -0.024686   0.420800  -0.056233
    10  H    0.366805  -0.020489  -0.003498   0.003718  -0.000138   0.000002
    11  H    0.373381  -0.025050  -0.006171  -0.006745   0.000197  -0.000002
    12  H    0.367346  -0.022321   0.005097  -0.003496   0.000266   0.000003
    13  H   -0.042552   0.365237  -0.047956  -0.044999  -0.002731   0.000077
    14  H   -0.005222  -0.026085   0.371783  -0.006985   0.000093  -0.000145
    15  H   -0.004733  -0.025533   0.371805   0.004275   0.000147   0.000003
    16  H    0.005258  -0.023886   0.368679  -0.002631  -0.001432  -0.000279
    17  H   -0.005200  -0.027445   0.005289   0.344705  -0.021569   0.000511
    18  H   -0.004672  -0.028875  -0.011080   0.348772  -0.029441  -0.011338
    19  H    0.000367  -0.007915   0.000014  -0.054723   0.366099  -0.048363
    20  H    0.000007   0.000183  -0.000012  -0.006299  -0.030455   0.363583
    21  H    0.000005  -0.000118   0.000126  -0.000227  -0.023017   0.358853
    22  H   -0.000000   0.000000   0.000000  -0.000178   0.004019  -0.026119
    23  H   -0.000000   0.000008  -0.000002   0.000019  -0.000557  -0.029512
    24  H   -0.000000   0.000001  -0.000000  -0.000140   0.003540   0.004421
    25  H   -0.000000   0.000003  -0.000002  -0.000096   0.001824   0.003136
    26  H   -0.000003  -0.000106  -0.000005  -0.010182  -0.029152  -0.003009
    27  H   -0.000037  -0.000135   0.000116   0.001922  -0.025416   0.006569
               7          8          9         10         11         12
     1  C    0.000002   0.000000   0.000050   0.366805   0.373381   0.367346
     2  C   -0.000141   0.000022   0.000445  -0.020489  -0.025050  -0.022321
     3  C   -0.000007   0.000003  -0.000084  -0.003498  -0.006171   0.005097
     4  C    0.003166   0.003308  -0.024686   0.003718  -0.006745  -0.003496
     5  C   -0.046697  -0.051243   0.420800  -0.000138   0.000197   0.000266
     6  C    0.406236  -0.065387  -0.056233   0.000002  -0.000002   0.000003
     7  C    4.854736   0.422795  -0.062624  -0.000000   0.000000   0.000000
     8  C    0.422795   4.849114   0.409806  -0.000000   0.000000   0.000000
     9  C   -0.062624   0.409806   4.896669   0.000002   0.000000  -0.000031
    10  H   -0.000000  -0.000000   0.000002   0.613116  -0.033346  -0.031760
    11  H    0.000000   0.000000   0.000000  -0.033346   0.604872  -0.032786
    12  H    0.000000   0.000000  -0.000031  -0.031760  -0.032786   0.610999
    13  H    0.000015  -0.000073   0.001129  -0.002803   0.006182  -0.002970
    14  H    0.000002   0.000000   0.000027  -0.000142   0.004922  -0.000044
    15  H   -0.000000   0.000000  -0.000017   0.004493  -0.000152  -0.000024
    16  H    0.000018  -0.000008   0.000187  -0.000066  -0.000053  -0.000232
    17  H   -0.000138   0.000395  -0.014894  -0.000053  -0.000250   0.005126
    18  H    0.000367  -0.000261   0.004659  -0.000082   0.005196  -0.000299
    19  H    0.002053   0.001982  -0.047267  -0.000006   0.000012   0.000013
    20  H   -0.031230   0.001118  -0.004356   0.000000   0.000000   0.000001
    21  H   -0.028946   0.005549   0.006513  -0.000000  -0.000000  -0.000000
    22  H    0.367778  -0.031860   0.005207   0.000000   0.000000   0.000000
    23  H    0.368127  -0.029731   0.001550   0.000000  -0.000000  -0.000000
    24  H   -0.032936   0.369189  -0.026656   0.000000   0.000000   0.000000
    25  H   -0.029417   0.368998  -0.029674   0.000000   0.000000  -0.000000
    26  H    0.001841  -0.028622   0.361694   0.000000   0.000001   0.000000
    27  H    0.005285  -0.029670   0.362138   0.000000   0.000000   0.000001
              13         14         15         16         17         18
     1  C   -0.042552  -0.005222  -0.004733   0.005258  -0.005200  -0.004672
     2  C    0.365237  -0.026085  -0.025533  -0.023886  -0.027445  -0.028875
     3  C   -0.047956   0.371783   0.371805   0.368679   0.005289  -0.011080
     4  C   -0.044999  -0.006985   0.004275  -0.002631   0.344705   0.348772
     5  C   -0.002731   0.000093   0.000147  -0.001432  -0.021569  -0.029441
     6  C    0.000077  -0.000145   0.000003  -0.000279   0.000511  -0.011338
     7  C    0.000015   0.000002  -0.000000   0.000018  -0.000138   0.000367
     8  C   -0.000073   0.000000   0.000000  -0.000008   0.000395  -0.000261
     9  C    0.001129   0.000027  -0.000017   0.000187  -0.014894   0.004659
    10  H   -0.002803  -0.000142   0.004493  -0.000066  -0.000053  -0.000082
    11  H    0.006182   0.004922  -0.000152  -0.000053  -0.000250   0.005196
    12  H   -0.002970  -0.000044  -0.000024  -0.000232   0.005126  -0.000299
    13  H    0.695420   0.006193  -0.002527  -0.003245  -0.003392   0.007026
    14  H    0.006193   0.604334  -0.032092  -0.032992  -0.000017   0.006047
    15  H   -0.002527  -0.032092   0.608752  -0.031110  -0.000185  -0.000019
    16  H   -0.003245  -0.032992  -0.031110   0.604106  -0.000121  -0.000141
    17  H   -0.003392  -0.000017  -0.000185  -0.000121   0.655517  -0.040922
    18  H    0.007026   0.006047  -0.000019  -0.000141  -0.040922   0.662218
    19  H    0.000613   0.000158  -0.000315   0.005620   0.006491   0.003141
    20  H    0.000002   0.000003   0.000000  -0.000002   0.002207   0.001636
    21  H    0.000007   0.000124  -0.000004   0.000118  -0.000183   0.003553
    22  H   -0.000000  -0.000000   0.000000  -0.000000   0.000013  -0.000006
    23  H   -0.000001  -0.000000   0.000000  -0.000004  -0.000001  -0.000006
    24  H    0.000002   0.000000  -0.000000  -0.000000  -0.000026   0.000008
    25  H    0.000002   0.000000   0.000000  -0.000002   0.000001   0.000004
    26  H    0.000072   0.000001   0.000000  -0.000001   0.008130   0.000368
    27  H    0.001222  -0.000000  -0.000003   0.000003   0.000408  -0.000148
              19         20         21         22         23         24
     1  C    0.000367   0.000007   0.000005  -0.000000  -0.000000  -0.000000
     2  C   -0.007915   0.000183  -0.000118   0.000000   0.000008   0.000001
     3  C    0.000014  -0.000012   0.000126   0.000000  -0.000002  -0.000000
     4  C   -0.054723  -0.006299  -0.000227  -0.000178   0.000019  -0.000140
     5  C    0.366099  -0.030455  -0.023017   0.004019  -0.000557   0.003540
     6  C   -0.048363   0.363583   0.358853  -0.026119  -0.029512   0.004421
     7  C    0.002053  -0.031230  -0.028946   0.367778   0.368127  -0.032936
     8  C    0.001982   0.001118   0.005549  -0.031860  -0.029731   0.369189
     9  C   -0.047267  -0.004356   0.006513   0.005207   0.001550  -0.026656
    10  H   -0.000006   0.000000  -0.000000   0.000000   0.000000   0.000000
    11  H    0.000012   0.000000  -0.000000   0.000000  -0.000000   0.000000
    12  H    0.000013   0.000001  -0.000000   0.000000  -0.000000   0.000000
    13  H    0.000613   0.000002   0.000007  -0.000000  -0.000001   0.000002
    14  H    0.000158   0.000003   0.000124  -0.000000  -0.000000   0.000000
    15  H   -0.000315   0.000000  -0.000004   0.000000   0.000000  -0.000000
    16  H    0.005620  -0.000002   0.000118  -0.000000  -0.000004  -0.000000
    17  H    0.006491   0.002207  -0.000183   0.000013  -0.000001  -0.000026
    18  H    0.003141   0.001636   0.003553  -0.000006  -0.000006   0.000008
    19  H    0.705625   0.006940  -0.007443  -0.000113   0.002212  -0.000131
    20  H    0.006940   0.649049  -0.042577  -0.008633   0.005972   0.000362
    21  H   -0.007443  -0.042577   0.648480   0.002993  -0.008903  -0.000152
    22  H   -0.000113  -0.008633   0.002993   0.647789  -0.042339  -0.011156
    23  H    0.002212   0.005972  -0.008903  -0.042339   0.649761   0.005492
    24  H   -0.000131   0.000362  -0.000152  -0.011156   0.005492   0.647154
    25  H    0.001126  -0.000155  -0.000205   0.004742  -0.014023  -0.042493
    26  H    0.006603   0.002805  -0.000113  -0.000038  -0.000176  -0.012003
    27  H   -0.007968  -0.000094  -0.000250  -0.000136  -0.000136   0.004189
              25         26         27
     1  C   -0.000000  -0.000003  -0.000037
     2  C    0.000003  -0.000106  -0.000135
     3  C   -0.000002  -0.000005   0.000116
     4  C   -0.000096  -0.010182   0.001922
     5  C    0.001824  -0.029152  -0.025416
     6  C    0.003136  -0.003009   0.006569
     7  C   -0.029417   0.001841   0.005285
     8  C    0.368998  -0.028622  -0.029670
     9  C   -0.029674   0.361694   0.362138
    10  H    0.000000   0.000000   0.000000
    11  H    0.000000   0.000001   0.000000
    12  H   -0.000000   0.000000   0.000001
    13  H    0.000002   0.000072   0.001222
    14  H    0.000000   0.000001  -0.000000
    15  H    0.000000   0.000000  -0.000003
    16  H   -0.000002  -0.000001   0.000003
    17  H    0.000001   0.008130   0.000408
    18  H    0.000004   0.000368  -0.000148
    19  H    0.001126   0.006603  -0.007968
    20  H   -0.000155   0.002805  -0.000094
    21  H   -0.000205  -0.000113  -0.000250
    22  H    0.004742  -0.000038  -0.000136
    23  H   -0.014023  -0.000176  -0.000136
    24  H   -0.042493  -0.012003   0.004189
    25  H    0.649435   0.005787  -0.010607
    26  H    0.005787   0.648659  -0.042986
    27  H   -0.010607  -0.042986   0.648394
 Mulliken charges:
               1
     1  C   -0.385400
     2  C    0.042108
     3  C   -0.376493
     4  C   -0.207104
     5  C    0.063872
     6  C   -0.207453
     7  C   -0.200285
     8  C   -0.195424
     9  C   -0.204353
    10  H    0.104246
    11  H    0.109791
    12  H    0.105113
    13  H    0.070049
    14  H    0.110039
    15  H    0.107237
    16  H    0.112215
    17  H    0.085604
    18  H    0.084294
    19  H    0.065176
    20  H    0.089945
    21  H    0.085817
    22  H    0.088034
    23  H    0.092250
    24  H    0.091337
    25  H    0.091616
    26  H    0.090435
    27  H    0.087336
 Sum of Mulliken charges =  -0.00000
 Mulliken charges with hydrogens summed into heavy atoms:
               1
     1  C   -0.066251
     2  C    0.112157
     3  C   -0.047002
     4  C   -0.037206
     5  C    0.129048
     6  C   -0.031691
     7  C   -0.020001
     8  C   -0.012471
     9  C   -0.026583
 Electronic spatial extent (au):  <R**2>=           1744.2396
 Charge=             -0.0000 electrons
 Dipole moment (field-independent basis, Debye):
    X=              0.0118    Y=             -0.0149    Z=             -0.0867  Tot=              0.0888
 Quadrupole moment (field-independent basis, Debye-Ang):
   XX=            -61.2163   YY=            -59.8075   ZZ=            -59.0557
   XY=             -0.2094   XZ=              0.5628   YZ=             -0.2737
 Traceless Quadrupole moment (field-independent basis, Debye-Ang):
   XX=             -1.1898   YY=              0.2190   ZZ=              0.9708
   XY=             -0.2094   XZ=              0.5628   YZ=             -0.2737
 Octapole moment (field-independent basis, Debye-Ang**2):
  XXX=              0.2812  YYY=             -0.4647  ZZZ=             -1.2884  XYY=              0.0218
  XXY=             -0.1112  XXZ=             -0.2620  XZZ=              0.9675  YZZ=             -0.2517
  YYZ=              1.1043  XYZ=             -2.6570
 Hexadecapole moment (field-independent basis, Debye-Ang**3):
 XXXX=          -1848.8000 YYYY=           -347.6253 ZZZZ=           -251.6964 XXXY=             -8.3949
 XXXZ=             20.6865 YYYX=              2.4283 YYYZ=             -1.0142 ZZZX=             -0.2205
 ZZZY=              0.5665 XXYY=           -366.2001 XXZZ=           -340.7114 YYZZ=            -99.4237
 XXYZ=             -0.2732 YYXZ=             -2.2791 ZZXY=             -0.4656
 N-N= 4.807610090711D+02 E-N=-1.779215015694D+03  KE= 3.508235013627D+02
 PrsmSu:  requested number of processors reduced to:  13 ShMem   1 Linda.
 Calling FoFJK, ICntrl=      2127 FMM=F ISym2X=0 I1Cent= 0 IOpClX= 0 NMat=1 NMatS=1 NMatT=0.
 ***** Axes restored to original set *****
 -------------------------------------------------------------------
 Center     Atomic                   Forces (Hartrees/Bohr)
 Number     Number              X              Y              Z
 -------------------------------------------------------------------
      1        6          -0.001244165    0.005233987    0.001132299
      2        6          -0.007575171   -0.007179909   -0.002308315
      3        6           0.003559318    0.002562360    0.002595486
      4        6           0.001174968    0.002813419    0.010966145
      5        6          -0.013478413   -0.001256055   -0.012848762
      6        6           0.004095296   -0.007584202    0.005941539
      7        6           0.009631958   -0.011060869   -0.004643428
      8        6           0.011543463    0.011469729   -0.004764190
      9        6           0.001303453    0.008812622    0.004711402
     10        1          -0.001461074   -0.000273522   -0.000282381
     11        1           0.000057732   -0.000281852   -0.000123364
     12        1          -0.001202170   -0.000155130   -0.000472771
     13        1           0.001251201    0.001004276   -0.000079584
     14        1          -0.000875373   -0.000443231    0.000128237
     15        1          -0.001170785   -0.000687436    0.000487112
     16        1           0.000413084   -0.001013039    0.000274964
     17        1           0.000828940   -0.000658110   -0.000209326
     18        1          -0.000651827   -0.000741705    0.001520097
     19        1          -0.001036023   -0.000899109    0.002519342
     20        1          -0.003123440    0.000711412   -0.000094287
     21        1          -0.002450511   -0.000860589   -0.002598639
     22        1           0.002536328   -0.000765725    0.001487690
     23        1           0.000148915   -0.001812733   -0.001499388
     24        1           0.002280907    0.001469338    0.001451224
     25        1           0.000688425    0.001254530   -0.002556109
     26        1          -0.003514304   -0.000916399    0.001563273
     27        1          -0.001730734    0.001257945   -0.002298265
 -------------------------------------------------------------------
 Cartesian Forces:  Max     0.013478413 RMS     0.004288160

 GradGradGradGradGradGradGradGradGradGradGradGradGradGradGradGradGradGrad
 Berny optimization.
 FormGI is forming the generalized inverse of G from B-inverse, IUseBI=4.
 Internal  Forces:  Max     0.015690405 RMS     0.003036715
 Search for a local minimum.
 Step number   1 out of a maximum of  162
 All quantities printed in internal units (Hartrees-Bohrs-Radians)
 Mixed Optimization -- RFO/linear search
 Second derivative matrix not updated -- first step.
 ITU=  0
     Eigenvalues ---    0.00230   0.00326   0.00335   0.00351   0.00429
     Eigenvalues ---    0.00628   0.02141   0.02211   0.03387   0.03738
     Eigenvalues ---    0.03837   0.04050   0.04262   0.04477   0.04530
     Eigenvalues ---    0.04744   0.04908   0.05001   0.05245   0.05372
     Eigenvalues ---    0.05494   0.05504   0.05542   0.05591   0.05611
     Eigenvalues ---    0.05725   0.06363   0.06862   0.07026   0.07247
     Eigenvalues ---    0.07331   0.08414   0.08784   0.09473   0.11316
     Eigenvalues ---    0.12271   0.13287   0.16000   0.16000   0.16000
     Eigenvalues ---    0.16000   0.16000   0.16000   0.16142   0.16650
     Eigenvalues ---    0.19059   0.20436   0.21899   0.27283   0.27588
     Eigenvalues ---    0.28460   0.28683   0.29126   0.29188   0.29301
     Eigenvalues ---    0.29576   0.29902   0.33943   0.33968   0.34054
     Eigenvalues ---    0.34108   0.34114   0.34162   0.34180   0.34185
     Eigenvalues ---    0.34192   0.34207   0.34213   0.34261   0.34282
     Eigenvalues ---    0.34287   0.34314   0.34315   0.34451   0.34544
 RFO step:  Lambda=-8.30824232D-03 EMin= 2.30000000D-03
 Linear search not attempted -- first point.
 Iteration  1 RMS(Cart)=  0.08102444 RMS(Int)=  0.00144468
 Iteration  2 RMS(Cart)=  0.00304423 RMS(Int)=  0.00023293
 Iteration  3 RMS(Cart)=  0.00000472 RMS(Int)=  0.00023291
 Iteration  4 RMS(Cart)=  0.00000000 RMS(Int)=  0.00023291
 Variable       Old X    -DE/DX   Delta X   Delta X   Delta X     New X
                                 (Linear)    (Quad)   (Total)
    R1        2.89380   0.00396   0.00000   0.01316   0.01316   2.90696
    R2        2.06982   0.00019   0.00000   0.00054   0.00054   2.07036
    R3        2.07057   0.00026   0.00000   0.00073   0.00073   2.07130
    R4        2.06849   0.00065   0.00000   0.00184   0.00184   2.07033
    R5        2.89613   0.00296   0.00000   0.00986   0.00986   2.90598
    R6        2.91143   0.00364   0.00000   0.01242   0.01242   2.92385
    R7        2.07239   0.00134   0.00000   0.00384   0.00384   2.07623
    R8        2.06972   0.00066   0.00000   0.00188   0.00188   2.07160
    R9        2.06804   0.00065   0.00000   0.00185   0.00185   2.06989
   R10        2.06575   0.00045   0.00000   0.00127   0.00127   2.06702
   R11        2.89741   0.00772   0.00000   0.02577   0.02577   2.92318
   R12        2.07426  -0.00054   0.00000  -0.00155  -0.00155   2.07272
   R13        2.07384   0.00069   0.00000   0.00197   0.00197   2.07582
   R14        2.88322   0.00959   0.00000   0.03082   0.03097   2.91420
   R15        2.88656   0.01039   0.00000   0.03336   0.03352   2.92008
   R16        2.06422   0.00187   0.00000   0.00528   0.00528   2.06950
   R17        2.87531   0.01345   0.00000   0.04366   0.04363   2.91894
   R18        2.06856   0.00157   0.00000   0.00448   0.00448   2.07304
   R19        2.07138  -0.00046   0.00000  -0.00133  -0.00133   2.07005
   R20        2.89046   0.01569   0.00000   0.05256   0.05236   2.94283
   R21        2.06801  -0.00005   0.00000  -0.00015  -0.00015   2.06786
   R22        2.07148  -0.00050   0.00000  -0.00143  -0.00143   2.07006
   R23        2.88797   0.01489   0.00000   0.04903   0.04896   2.93693
   R24        2.06893  -0.00039   0.00000  -0.00110  -0.00110   2.06783
   R25        2.07019  -0.00062   0.00000  -0.00177  -0.00177   2.06841
   R26        2.07008   0.00044   0.00000   0.00127   0.00127   2.07134
   R27        2.07028  -0.00035   0.00000  -0.00099  -0.00099   2.06929
    A1        1.93273   0.00208   0.00000   0.01412   0.01407   1.94680
    A2        1.93883  -0.00101   0.00000  -0.00825  -0.00822   1.93061
    A3        1.93907   0.00125   0.00000   0.00793   0.00787   1.94694
    A4        1.88294  -0.00070   0.00000  -0.00520  -0.00516   1.87778
    A5        1.88263  -0.00119   0.00000  -0.00274  -0.00286   1.87977
    A6        1.88544  -0.00055   0.00000  -0.00655  -0.00654   1.87890
    A7        1.90081   0.00034   0.00000   0.01393   0.01353   1.91434
    A8        1.91502   0.00024   0.00000   0.01083   0.01037   1.92539
    A9        1.89130  -0.00051   0.00000  -0.01572  -0.01564   1.87567
   A10        1.95235   0.00146   0.00000   0.01951   0.01920   1.97155
   A11        1.90047  -0.00048   0.00000  -0.00943  -0.00923   1.89124
   A12        1.90288  -0.00112   0.00000  -0.02036  -0.02025   1.88263
   A13        1.93684  -0.00076   0.00000  -0.00782  -0.00783   1.92902
   A14        1.93316   0.00013   0.00000   0.00058   0.00051   1.93367
   A15        1.96013   0.00148   0.00000   0.01231   0.01229   1.97241
   A16        1.88913  -0.00054   0.00000  -0.00990  -0.00994   1.87919
   A17        1.88004  -0.00032   0.00000  -0.00149  -0.00146   1.87858
   A18        1.86122  -0.00004   0.00000   0.00602   0.00595   1.86717
   A19        1.97670   0.01275   0.00000   0.06014   0.05996   2.03666
   A20        1.90442  -0.00364   0.00000  -0.02166  -0.02112   1.88330
   A21        1.89392  -0.00450   0.00000  -0.01053  -0.01157   1.88235
   A22        1.91630  -0.00532   0.00000  -0.03476  -0.03430   1.88200
   A23        1.91753  -0.00214   0.00000   0.00707   0.00647   1.92400
   A24        1.85056   0.00218   0.00000  -0.00429  -0.00453   1.84603
   A25        1.96657   0.00422   0.00000   0.03964   0.03920   2.00578
   A26        1.98909   0.00210   0.00000   0.02422   0.02352   2.01262
   A27        1.94829  -0.00319   0.00000  -0.03677  -0.03633   1.91196
   A28        1.78841  -0.00290   0.00000  -0.00488  -0.00562   1.78279
   A29        1.88077  -0.00050   0.00000  -0.00996  -0.00970   1.87107
   A30        1.88068   0.00015   0.00000  -0.01232  -0.01224   1.86844
   A31        1.80089   0.00485   0.00000   0.02550   0.02548   1.82638
   A32        1.94255  -0.00343   0.00000  -0.03663  -0.03671   1.90585
   A33        1.95153  -0.00059   0.00000   0.01130   0.01044   1.96197
   A34        1.92878  -0.00038   0.00000   0.00137   0.00167   1.93045
   A35        1.95130  -0.00028   0.00000   0.01826   0.01764   1.96894
   A36        1.88878  -0.00011   0.00000  -0.01831  -0.01833   1.87045
   A37        1.84465  -0.00184   0.00000  -0.00348  -0.00357   1.84108
   A38        1.94918   0.00179   0.00000   0.01534   0.01533   1.96451
   A39        1.92018  -0.00025   0.00000  -0.00637  -0.00631   1.91387
   A40        1.95977   0.00014   0.00000   0.00571   0.00567   1.96544
   A41        1.91311   0.00190   0.00000   0.00982   0.00985   1.92296
   A42        1.87720  -0.00167   0.00000  -0.02052  -0.02048   1.85672
   A43        1.85730  -0.00293   0.00000  -0.00934  -0.00941   1.84789
   A44        1.94414   0.00090   0.00000   0.00824   0.00825   1.95240
   A45        1.92128   0.00181   0.00000   0.01056   0.01062   1.93190
   A46        1.93160   0.00134   0.00000   0.00833   0.00838   1.93998
   A47        1.93426   0.00109   0.00000   0.00692   0.00695   1.94122
   A48        1.87610  -0.00211   0.00000  -0.02381  -0.02381   1.85229
   A49        1.82161   0.00468   0.00000   0.02310   0.02318   1.84479
   A50        1.94305  -0.00396   0.00000  -0.03964  -0.03978   1.90327
   A51        1.95484  -0.00024   0.00000   0.01176   0.01116   1.96600
   A52        1.91036   0.00073   0.00000   0.01343   0.01373   1.92409
   A53        1.95371  -0.00112   0.00000   0.00965   0.00915   1.96286
   A54        1.88064  -0.00009   0.00000  -0.01752  -0.01763   1.86301
    D1        1.01437  -0.00121   0.00000  -0.01936  -0.01944   0.99493
    D2       -3.12648   0.00097   0.00000   0.02073   0.02072  -3.10576
    D3       -1.05056  -0.00054   0.00000  -0.00696  -0.00699  -1.05756
    D4       -1.07764  -0.00104   0.00000  -0.01674  -0.01677  -1.09442
    D5        1.06469   0.00114   0.00000   0.02335   0.02338   1.08807
    D6        3.14061  -0.00037   0.00000  -0.00435  -0.00433   3.13628
    D7        3.10615  -0.00050   0.00000  -0.00824  -0.00824   3.09791
    D8       -1.03470   0.00168   0.00000   0.03185   0.03192  -1.00278
    D9        1.04122   0.00017   0.00000   0.00416   0.00420   1.04542
   D10        1.11513   0.00031   0.00000   0.00964   0.00975   1.12488
   D11       -0.98364   0.00141   0.00000   0.02689   0.02699  -0.95665
   D12       -3.06258   0.00039   0.00000   0.01071   0.01077  -3.05181
   D13       -1.00461  -0.00116   0.00000  -0.02606  -0.02613  -1.03074
   D14       -3.10338  -0.00007   0.00000  -0.00881  -0.00889  -3.11227
   D15        1.10087  -0.00109   0.00000  -0.02499  -0.02511   1.07576
   D16       -3.10890  -0.00037   0.00000  -0.00668  -0.00666  -3.11556
   D17        1.07551   0.00072   0.00000   0.01057   0.01058   1.08609
   D18       -1.00342  -0.00030   0.00000  -0.00561  -0.00564  -1.00906
   D19        3.06892  -0.00276   0.00000  -0.11246  -0.11256   2.95636
   D20        0.92876  -0.00200   0.00000  -0.09316  -0.09312   0.83564
   D21       -1.08016  -0.00021   0.00000  -0.07087  -0.07098  -1.15114
   D22       -1.10275  -0.00120   0.00000  -0.07461  -0.07457  -1.17732
   D23        3.04028  -0.00044   0.00000  -0.05531  -0.05513   2.98515
   D24        1.03136   0.00135   0.00000  -0.03302  -0.03300   0.99836
   D25        1.00014  -0.00162   0.00000  -0.08761  -0.08768   0.91246
   D26       -1.14001  -0.00086   0.00000  -0.06831  -0.06824  -1.20826
   D27        3.13424   0.00093   0.00000  -0.04602  -0.04610   3.08814
   D28        2.53327   0.00087   0.00000   0.05735   0.05721   2.59048
   D29       -1.72151   0.00152   0.00000   0.09544   0.09621  -1.62530
   D30        0.41409   0.00082   0.00000   0.06869   0.06914   0.48324
   D31       -1.61637   0.00113   0.00000   0.04571   0.04506  -1.57131
   D32        0.41203   0.00178   0.00000   0.08379   0.08406   0.49610
   D33        2.54764   0.00108   0.00000   0.05704   0.05699   2.60464
   D34        0.41237  -0.00056   0.00000   0.02444   0.02371   0.43608
   D35        2.44077   0.00010   0.00000   0.06252   0.06271   2.50348
   D36       -1.70680  -0.00060   0.00000   0.03577   0.03564  -1.67116
   D37        2.88149   0.00094   0.00000   0.01279   0.01263   2.89413
   D38        0.81279   0.00025   0.00000   0.01414   0.01425   0.82704
   D39       -1.30195   0.00322   0.00000   0.05553   0.05559  -1.24636
   D40        0.73638  -0.00200   0.00000  -0.03450  -0.03460   0.70178
   D41       -1.33232  -0.00268   0.00000  -0.03315  -0.03299  -1.36530
   D42        2.83612   0.00029   0.00000   0.00824   0.00835   2.84448
   D43       -1.24458  -0.00068   0.00000  -0.01479  -0.01496  -1.25954
   D44        2.96990  -0.00137   0.00000  -0.01343  -0.01334   2.95656
   D45        0.85516   0.00160   0.00000   0.02796   0.02800   0.88316
   D46       -2.78482  -0.00228   0.00000  -0.02726  -0.02705  -2.81187
   D47       -0.72569  -0.00069   0.00000  -0.01773  -0.01784  -0.74353
   D48        1.38126  -0.00374   0.00000  -0.05987  -0.05988   1.32139
   D49       -0.65497   0.00208   0.00000   0.03092   0.03095  -0.62402
   D50        1.40415   0.00367   0.00000   0.04044   0.04016   1.44431
   D51       -2.77207   0.00061   0.00000  -0.00169  -0.00188  -2.77395
   D52        1.32606   0.00028   0.00000   0.01294   0.01320   1.33926
   D53       -2.89800   0.00187   0.00000   0.02246   0.02241  -2.87558
   D54       -0.79104  -0.00118   0.00000  -0.01967  -0.01963  -0.81066
   D55       -0.53639   0.00056   0.00000   0.02223   0.02234  -0.51405
   D56       -2.67237   0.00053   0.00000   0.00852   0.00862  -2.66376
   D57        1.52758   0.00164   0.00000   0.02860   0.02872   1.55630
   D58        1.54188  -0.00092   0.00000  -0.00570  -0.00563   1.53624
   D59       -0.59411  -0.00095   0.00000  -0.01941  -0.01935  -0.61346
   D60       -2.67733   0.00016   0.00000   0.00067   0.00075  -2.67659
   D61       -2.63629  -0.00151   0.00000  -0.01574  -0.01593  -2.65222
   D62        1.51091  -0.00154   0.00000  -0.02945  -0.02965   1.48126
   D63       -0.57232  -0.00043   0.00000  -0.00937  -0.00955  -0.58187
   D64        0.13068  -0.00056   0.00000  -0.00828  -0.00827   0.12242
   D65       -1.97607  -0.00087   0.00000  -0.01728  -0.01726  -1.99332
   D66        2.22776   0.00001   0.00000   0.00031   0.00032   2.22808
   D67        2.25987   0.00051   0.00000   0.01164   0.01165   2.27152
   D68        0.15312   0.00020   0.00000   0.00265   0.00266   0.15578
   D69       -1.92624   0.00108   0.00000   0.02024   0.02023  -1.90600
   D70       -1.93800  -0.00021   0.00000  -0.00387  -0.00385  -1.94186
   D71        2.23843  -0.00052   0.00000  -0.01286  -0.01285   2.22559
   D72        0.15907   0.00035   0.00000   0.00473   0.00473   0.16380
   D73        0.32547  -0.00059   0.00000  -0.01243  -0.01240   0.31307
   D74       -1.75594   0.00112   0.00000   0.01464   0.01458  -1.74135
   D75        2.44332   0.00145   0.00000   0.02155   0.02167   2.46499
   D76        2.44026  -0.00054   0.00000  -0.00345  -0.00345   2.43681
   D77        0.35886   0.00117   0.00000   0.02361   0.02353   0.38239
   D78       -1.72507   0.00150   0.00000   0.03052   0.03061  -1.69446
   D79       -1.76319  -0.00161   0.00000  -0.02335  -0.02333  -1.78653
   D80        2.43859   0.00010   0.00000   0.00372   0.00365   2.44224
   D81        0.35466   0.00043   0.00000   0.01063   0.01073   0.36539
         Item               Value     Threshold  Converged?
 Maximum Force            0.015690     0.000450     NO 
 RMS     Force            0.003037     0.000300     NO 
 Maximum Displacement     0.262551     0.001800     NO 
 RMS     Displacement     0.080451     0.001200     NO 
 Predicted change in Energy=-4.770005D-03
 GradGradGradGradGradGradGradGradGradGradGradGradGradGradGradGradGradGrad

                          Input orientation:                          
 ---------------------------------------------------------------------
 Center     Atomic      Atomic             Coordinates (Angstroms)
 Number     Number       Type             X           Y           Z
 ---------------------------------------------------------------------
      1          6           0        1.033474    0.051789   -0.081428
      2          6           0        2.563909   -0.076893    0.005549
      3          6           0        2.942880   -0.940772    1.219988
      4          6           0        3.133570   -0.623292   -1.325192
      5          6           0        4.670284   -0.574336   -1.495358
      6          6           0        5.265900   -1.710818   -2.350816
      7          6           0        6.704090   -1.246573   -2.670169
      8          6           0        6.644126    0.309431   -2.689372
      9          6           0        5.216873    0.685938   -2.202966
     10          1           0        0.612107    0.471521    0.838675
     11          1           0        0.572002   -0.929790   -0.239381
     12          1           0        0.730570    0.698840   -0.911999
     13          1           0        2.971575    0.931955    0.157753
     14          1           0        2.575037   -1.965557    1.092488
     15          1           0        2.497691   -0.539389    2.136755
     16          1           0        4.022657   -0.994557    1.386206
     17          1           0        2.686383   -0.047905   -2.144947
     18          1           0        2.770072   -1.652368   -1.449771
     19          1           0        5.149601   -0.623837   -0.511937
     20          1           0        4.679812   -1.813738   -3.272405
     21          1           0        5.235909   -2.678719   -1.838742
     22          1           0        7.081582   -1.664670   -3.608310
     23          1           0        7.385033   -1.588775   -1.883292
     24          1           0        6.840239    0.712505   -3.687594
     25          1           0        7.410999    0.734109   -2.033925
     26          1           0        4.574551    0.922481   -3.059074
     27          1           0        5.215093    1.567962   -1.554045
 ---------------------------------------------------------------------
                    Distance matrix (angstroms):
                    1          2          3          4          5
     1  C    0.000000
     2  C    1.538296   0.000000
     3  C    2.514893   1.537780   0.000000
     4  C    2.532407   1.547236   2.571983   0.000000
     5  C    3.951913   2.633816   3.239028   1.546882   0.000000
     6  C    5.115695   3.939914   4.328976   2.604121   1.542127
     7  C    6.367355   5.066430   5.419736   3.866012   2.443041
     8  C    6.192509   4.905101   5.526783   3.880072   2.470378
     9  C    4.733275   3.535204   4.419711   2.612417   1.545238
    10  H    1.095588   2.191892   2.751813   3.498387   4.796909
    11  H    1.096086   2.180624   2.784051   2.799028   4.301133
    12  H    1.095571   2.191983   3.482529   2.773656   4.181224
    13  H    2.141993   1.098696   2.153201   2.155032   2.808434
    14  H    2.797173   2.179131   1.096243   2.821137   3.608671
    15  H    2.722822   2.181817   1.095337   3.520861   4.232450
    16  H    3.490559   2.208227   1.093819   2.877498   2.983189
    17  H    2.645781   2.154176   3.490815   1.096834   2.152896
    18  H    2.791467   2.154665   2.768364   1.098475   2.185185
    19  H    4.193365   2.693092   2.823053   2.173882   1.095131
    20  H    5.192139   4.270674   4.894956   2.756748   2.166588
    21  H    5.310771   4.160588   4.199318   2.984685   2.205963
    22  H    7.208657   5.999199   6.400417   4.678022   3.386407
    23  H    6.802975   5.394140   5.457378   4.395290   2.923943
    24  H    6.867277   5.705213   6.481288   4.593984   3.342239
    25  H    6.704523   5.320851   5.775575   4.543263   3.084412
    26  H    4.707835   3.799125   4.944131   2.733530   2.166757
    27  H    4.685437   3.488074   4.376295   3.030958   2.211267
                    6          7          8          9         10
     6  C    0.000000
     7  C    1.544636   0.000000
     8  C    2.468913   1.557277   0.000000
     9  C    2.401812   2.482879   1.554156   0.000000
    10  H    6.049235   7.237133   6.989896   5.522810   0.000000
    11  H    5.205847   6.603907   6.663994   5.295382   1.768469
    12  H    5.333466   6.523705   6.187151   4.668370   1.769341
    13  H    4.305937   5.164765   4.688421   3.267244   2.498548
    14  H    4.377440   5.632371   6.002960   4.986957   3.139565
    15  H    5.401252   6.426540   6.419106   5.265791   2.502475
    16  H    4.003001   4.869063   5.018249   4.139127   3.752469
    17  H    3.075967   4.225474   4.010963   2.635389   3.670752
    18  H    2.654139   4.138905   4.515922   3.467248   3.795352
    19  H    2.139282   2.731703   2.801039   2.140003   4.859302
    20  H    1.097004   2.186793   2.950644   2.771374   6.218489
    21  H    1.095423   2.213113   3.411112   3.384367   6.202590
    22  H    2.209100   1.094265   2.221011   3.313230   8.135914
    23  H    2.173522   1.095427   2.191323   3.158707   7.584620
    24  H    3.184024   2.211713   1.094247   2.200033   7.702910
    25  H    3.267955   2.197186   1.094558   2.201155   7.385507
    26  H    2.813157   3.064470   2.189897   1.096107   5.576449
    27  H    3.374584   3.374085   2.216981   1.095020   5.302337
                   11         12         13         14         15
    11  H    0.000000
    12  H    1.769179   0.000000
    13  H    3.062966   2.494156   0.000000
    14  H    2.618938   3.810385   3.070269   0.000000
    15  H    3.083296   3.735081   2.511149   1.769303   0.000000
    16  H    3.814937   4.357427   2.515018   1.767687   1.759552
    17  H    2.979851   2.429607   2.518708   3.764408   4.313947
    18  H    2.611260   3.158630   3.050157   2.568892   3.765114
    19  H    4.595901   4.630049   2.759125   3.317043   3.749044
    20  H    5.182153   5.242239   4.714116   4.848239   5.970312
    21  H    5.231515   5.706561   4.706397   4.022556   5.280071
    22  H    7.366435   7.293259   6.149622   6.518971   7.435327
    23  H    7.039468   7.103412   5.477094   5.668624   6.414679
    24  H    7.340171   6.710601   5.459067   6.943569   7.372110
    25  H    7.263665   6.774075   4.954905   6.359968   6.569396
    26  H    5.234690   4.408643   3.594106   5.438225   5.783343
    27  H    5.433728   4.612867   2.892772   5.143908   5.044522
                   16         17         18         19         20
    16  H    0.000000
    17  H    3.892405   0.000000
    18  H    3.169297   1.750592   0.000000
    19  H    2.238389   3.010957   2.756731   0.000000
    20  H    4.775517   2.891900   2.644833   3.042490   0.000000
    21  H    3.835189   3.676279   2.699083   2.447530   1.764320
    22  H    5.895020   4.906438   4.821676   3.795182   2.429723
    23  H    4.727397   4.951773   4.635714   2.794437   3.049338
    24  H    6.049486   4.495832   5.212172   3.837820   3.349885
    25  H    5.115315   4.790185   5.251162   3.045387   3.935065
    26  H    4.872385   2.311376   3.532116   3.034747   2.746540
    27  H    4.078416   3.058524   4.044691   2.427809   3.830820
                   21         22         23         24         25
    21  H    0.000000
    22  H    2.750668   0.000000
    23  H    2.410124   1.753149   0.000000
    24  H    4.182407   2.390710   2.974592   0.000000
    25  H    4.051729   2.888139   2.327908   1.749529   0.000000
    26  H    3.859436   3.644203   3.948124   2.360608   3.021895
    27  H    4.256264   4.260716   3.844741   2.815127   2.397415
                   26         27
    26  H    0.000000
    27  H    1.758424   0.000000
 Stoichiometry    C9H18
 Framework group  C1[X(C9H18)]
 Deg. of freedom    75
 Full point group                 C1      NOp   1
 Largest Abelian subgroup         C1      NOp   1
 Largest concise Abelian subgroup C1      NOp   1
                         Standard orientation:                         
 ---------------------------------------------------------------------
 Center     Atomic      Atomic             Coordinates (Angstroms)
 Number     Number       Type             X           Y           Z
 ---------------------------------------------------------------------
      1          6           0       -3.296788   -0.702368    0.517483
      2          6           0       -2.068769   -0.202658   -0.262654
      3          6           0       -2.393858    1.141850   -0.934504
      4          6           0       -0.834533   -0.129769    0.667554
      5          6           0        0.534395    0.109744   -0.011793
      6          6           0        1.549891    0.903684    0.834719
      7          6           0        2.903175    0.692670    0.120581
      8          6           0        2.801561   -0.705153   -0.558298
      9          6           0        1.330815   -1.167380   -0.361694
     10          1           0       -4.174683   -0.796158   -0.131221
     11          1           0       -3.552937   -0.004060    1.322566
     12          1           0       -3.113026   -1.681647    0.973027
     13          1           0       -1.855213   -0.939746   -1.048929
     14          1           0       -2.587420    1.912196   -0.178958
     15          1           0       -3.288949    1.057477   -1.560170
     16          1           0       -1.587172    1.504300   -1.578186
     17          1           0       -0.773743   -1.074311    1.221799
     18          1           0       -1.025936    0.646555    1.420769
     19          1           0        0.388269    0.663022   -0.945518
     20          1           0        1.579110    0.485897    1.848632
     21          1           0        1.279419    1.961053    0.928347
     22          1           0        3.754582    0.767633    0.803884
     23          1           0        3.045439    1.471139   -0.636855
     24          1           0        3.502715   -1.422478   -0.121032
     25          1           0        3.057406   -0.638726   -1.620460
     26          1           0        1.263326   -1.871686    0.475473
     27          1           0        0.933487   -1.684183   -1.241530
 ---------------------------------------------------------------------
 Rotational constants (GHZ):           3.4539700           0.7410806           0.7070950
 Standard basis: 6-31G(2df,p) (6D, 7F)
 There are   369 symmetry adapted cartesian basis functions of A   symmetry.
 There are   342 symmetry adapted basis functions of A   symmetry.
   342 basis functions,   522 primitive gaussians,   369 cartesian basis functions
    36 alpha electrons       36 beta electrons
       nuclear repulsion energy       474.4068220294 Hartrees.
[...]
 1410,0.00000850,0.00000404,0.00006857,0.00001099,0.00000126,0.00008971
 ,0.00001988,0.00007397,0.00015914,0.00006635,0.00031848,0.00015241,-0.
 00002769,0.00014093,0.00066061,-0.00114470,-0.00291645,-0.03007869,0.0
 6176869,0.00002780,-0.00003315,-0.00003399,0.00021826,-0.00026833,0.00
 027955,-0.00029325,0.00003352,-0.00004413,-0.00228210,0.00110017,0.000
 93716,-0.01278893,0.00560298,-0.02528668,-0.10974165,0.04314847,-0.212
 90934,0.00443157,-0.00104110,0.00463234,-0.00010055,-0.00027456,-0.000
 04702,-0.00013123,0.00112153,0.00052801,0.00000947,0.00000603,0.000014
 47,0.00000135,0.00000293,-0.00001091,0.00004878,-0.00002852,0.00002331
 ,-0.00001529,0.00003247,0.00001119,-0.00000121,-0.00000426,0.00000919,
 0.00015237,-0.00003126,0.00008418,0.00020439,0.00007652,0.00016654,0.0
 0133024,-0.00050473,0.00054650,0.00016084,0.00007275,-0.00008176,0.001
 87079,-0.00402237,-0.00321467,0.11843704,-0.04499731,0.23614809,-0.000
 00262,0.00001032,0.00001019,-0.00006517,-0.00024498,0.00017622,0.00000
 781,0.00003355,0.00002330,0.00079571,0.00061856,-0.00057719,-0.0000642
 8,0.01195197,-0.00381364,-0.04744655,-0.01430852,0.00252796,-0.0005923
 8,-0.02978798,0.00405457,-0.00477137,-0.00172935,0.00060072,-0.0018304
 9,0.00076700,0.00270761,-0.00000586,-0.00000158,0.00000496,-0.00001396
 ,-0.00000652,0.00001129,0.00000394,0.00000054,-0.00000092,0.00001646,-
 0.00007052,-0.00005277,-0.00000308,-0.00000503,0.00001157,-0.00001053,
 -0.00000142,0.00001536,-0.00001690,-0.00000293,-0.00001704,0.00007344,
 0.00003021,0.00009540,-0.00022342,-0.00032201,0.00020840,0.00038873,-0
 .00086837,-0.00021163,0.00100252,0.01697548,-0.00307599,0.05072157,0.0
 0000873,-0.00003501,-0.00006974,0.00027218,0.00029421,-0.00016118,-0.0
 0004800,-0.00007146,-0.00000888,-0.00058258,-0.00042877,0.00012642,-0.
 00207665,-0.01416985,0.00498637,-0.01572773,-0.29675809,0.04685709,0.0
 0149796,-0.00557739,0.00095417,-0.00030518,0.00002508,-0.00065431,-0.0
 0006634,-0.00106854,-0.00309801,0.00003699,-0.00000202,-0.00000628,0.0
 0003627,0.00001959,-0.00001677,-0.00000650,-0.00000477,0.00000317,-0.0
 0010125,0.00017665,0.00012753,0.00004475,0.00004119,-0.00003596,0.0000
 1516,0.00002395,-0.00001809,0.00002604,-0.00002771,0.00004589,-0.00005
 059,0.00006260,-0.00006782,0.00070721,0.00044683,-0.00019700,-0.000348
 75,0.00109806,-0.00019044,-0.00025227,-0.00638057,0.00132460,0.0181834
 4,0.32303831,0.00001029,0.00003951,-0.00003352,0.00004427,0.00006669,-
 0.00006200,-0.00002737,0.00001409,0.00003408,-0.00100813,-0.00008944,0
 .00028988,-0.00223178,-0.02451920,0.00511792,0.00291497,0.04933561,-0.
 05642283,-0.00059620,0.00429494,-0.00134618,0.00136910,-0.00148730,-0.
 00025448,0.00103385,-0.00296474,-0.00344584,0.00000216,-0.00001116,-0.
 00000311,0.00001634,-0.00000062,0.00000261,-0.00000160,-0.00000146,-0.
 00000173,-0.00003949,0.00008568,0.00003037,0.00002814,0.00001665,-0.00
 002050,-0.00000778,0.00001386,0.00000391,-0.00001273,-0.00003235,0.000
 00071,0.00012618,0.00001496,0.00000025,0.00025002,0.00033969,0.0001410
 6,-0.00050982,0.00065313,0.00147823,0.00158117,0.02649974,-0.00501040,
 -0.00231509,-0.04990671,0.05828731,-0.00000478,0.00015176,0.00024400,-
 0.00063948,-0.00021238,-0.00024796,-0.00004556,0.00004828,-0.00004469,
 0.00019459,0.00121080,0.00161907,-0.00575869,-0.00190438,-0.00014050,-
 0.00923234,0.00612910,0.02816690,-0.07490015,0.01400831,0.07958252,-0.
 00013807,-0.00096230,-0.00112262,-0.00094386,-0.00032288,0.00030519,-0
 .00012442,0.00001305,0.00002247,-0.00000178,-0.00001752,-0.00000280,0.
 00000936,0.00000182,-0.00001764,0.00001711,0.00002780,-0.00000629,0.00
 000133,-0.00001528,0.00000065,-0.00001112,0.00000533,0.00004495,0.0000
 0628,-0.00001084,-0.00003114,-0.00003318,0.00006116,-0.00010250,0.0000
 7984,-0.00002223,0.00001078,0.00020765,-0.00017960,0.00017346,0.001873
 08,0.00058169,-0.00043601,-0.00048674,-0.00054855,0.00012751,0.0823166
 5,-0.00000859,0.00010026,0.00006210,-0.00019270,-0.00015542,-0.0001049
 2,-0.00001105,0.00002604,0.00000074,-0.00002474,0.00076201,0.00033829,
 -0.00209177,-0.00219268,-0.00032199,-0.00301856,0.00218464,0.01130984,
 0.01367022,-0.05203661,-0.03676672,0.01012683,-0.00477996,-0.02701956,
 -0.00023928,-0.00356468,-0.00187298,-0.00003732,-0.00000069,0.00000721
 ,0.00002218,0.00000220,-0.00000299,0.00000308,-0.00000485,-0.00000026,
 -0.00002318,0.00011252,0.00001760,0.00001403,0.00001150,-0.00001182,-0
 .00000137,0.00000189,0.00001141,0.00000926,-0.00002826,0.00001107,-0.0
 0007218,0.00000337,-0.00001389,0.00014253,0.00003815,0.00000007,0.0000
 3092,-0.00011570,-0.00030226,0.00074115,0.00057787,-0.00051897,0.00005
 638,-0.00025194,0.00007913,-0.01527138,0.05748269,-0.00002137,-0.00003
 995,-0.00006570,0.00007911,0.00006371,0.00009744,-0.00001589,-0.000025
 16,-0.00000357,-0.00023621,-0.00022619,-0.00003883,0.00054635,0.000220
 34,0.00078912,-0.00142338,0.00000545,-0.00064504,0.08223480,-0.0382829
 9,-0.27543841,0.00051046,0.00091708,-0.00359887,-0.00066065,0.00006614
 ,0.00010089,0.00003617,-0.00000834,-0.00001746,0.00000415,0.00001086,0
 .00000135,-0.00000460,0.00000147,0.00000828,-0.00000991,0.00000656,-0.
 00000091,-0.00000036,0.00000883,0.00000202,0.00001725,-0.00000808,-0.0
 0002457,0.00001356,0.00000888,0.00002373,0.00009854,-0.00002006,-0.000
 00520,0.00001651,0.00003271,-0.00000920,-0.00017392,0.00011067,0.00041
 586,0.00027417,-0.00005831,0.00135950,0.00052358,0.00006599,-0.0001953
 5,-0.08931809,0.04105729,0.29554681,0.00001186,0.00000947,0.00002791,-
 0.00001372,-0.00009618,0.00005657,-0.00006562,0.00004632,0.00000673,-0
 .00013803,-0.00005038,0.00039730,0.00063270,0.00003612,-0.00136910,-0.
 02069996,0.01379934,-0.02204470,-0.13687986,0.07724843,-0.09462334,0.0
 0084842,-0.00273186,0.00031302,-0.00019745,-0.00008232,0.00069217,-0.0
 0002267,0.00000884,0.00000855,-0.00000310,-0.00000487,-0.00000510,0.00
 001173,-0.00000826,-0.00000031,0.00000383,0.00000302,0.00000673,-0.000
 01145,-0.00001367,0.00000207,0.00001336,-0.00000733,0.00003465,0.00001
 756,0.00001794,0.00000056,0.00027642,-0.00008811,0.00014651,-0.0000270
 7,-0.00000700,-0.00003120,0.00002752,0.00016851,0.00093059,-0.00557787
 ,-0.00149451,0.00174437,0.00188082,-0.00021940,-0.00007336,0.00706131,
 -0.00557300,0.00693857,0.15104916,0.00000038,0.00001638,-0.00001756,0.
 00002792,-0.00010592,0.00006616,0.00001387,0.00003434,0.00002596,-0.00
 008003,0.00013586,-0.00019345,0.00016535,-0.00028507,-0.00004195,-0.00
 893776,0.00491841,-0.00817837,0.07734138,-0.10719601,0.08103198,0.0158
 7583,-0.01842941,0.01905933,-0.00074025,-0.00168163,-0.00008296,0.0000
 0404,-0.00000293,0.00000006,0.00001144,0.00000603,-0.00000137,-0.00000
 455,-0.00000506,-0.00000224,-0.00001380,0.00006236,0.00001343,0.000003
 85,0.00000999,-0.00000994,-0.00000391,-0.00000271,0.00000444,-0.000003
 27,-0.00001821,0.00000120,-0.00001319,-0.00007272,0.00005261,0.0000643
 5,0.00002058,-0.00002211,0.00023182,0.00029338,-0.00018852,-0.00319590
 ,0.00042374,0.00032849,0.00051949,0.00097437,-0.00071840,-0.00291956,0
 .00248610,-0.00282152,-0.07993355,0.12150184,0.00000080,0.00001621,0.0
 0002202,-0.00003248,-0.00000900,-0.00004703,-0.00000127,0.00001596,0.0
 0000318,0.00007237,0.00001999,0.00018385,-0.00003594,0.00016629,0.0003
 7199,0.00182213,-0.00252913,0.00180807,-0.09528935,0.08127275,-0.15332
 524,0.00483862,-0.00537136,0.00465231,0.00004948,-0.00057665,-0.000383
 17,-0.00001537,0.00000479,0.00000778,-0.00000025,-0.00000398,-0.000001
 65,0.00000258,-0.00000197,0.,0.00000024,0.00000647,0.00000771,-0.00000
 245,-0.00000547,-0.00000131,-0.00001037,0.00000255,0.00001141,-0.00000
 338,-0.00000155,-0.00001208,0.00006871,-0.00004937,-0.00008677,-0.0000
 0686,-0.00000536,-0.00000402,0.00012508,0.00023155,0.00010702,0.000557
 92,-0.00034602,0.00111787,-0.00037368,-0.00046417,0.00074401,-0.018710
 28,0.01527243,-0.02007110,0.10602705,-0.08660625,0.16237596,0.00001133
 ,-0.00000666,0.00006519,0.00005127,-0.00008088,-0.00015548,-0.00000141
 ,0.00001473,-0.00002454,0.00011163,-0.00130014,0.00033432,-0.00408396,
 0.00153655,0.00178848,-0.00046011,0.00015960,0.00014863,-0.00083519,0.
 00212051,-0.00032165,-0.04806814,-0.01754596,0.02103767,-0.00572718,-0
 .01617331,0.02327747,-0.00003484,0.00001905,0.00001545,-0.00000990,0.0
 0000558,-0.00000707,-0.00000359,-0.00000074,-0.00001263,0.00007024,-0.
 00002144,0.00001120,-0.00000867,-0.00001142,-0.00000438,-0.00001418,0.
 00000461,0.00003003,-0.00001056,0.00001524,-0.00004461,-0.00005746,0.0
 0004409,-0.00007838,-0.00052715,-0.00004526,0.00000639,0.00013331,-0.0
 0010415,0.00013081,-0.00010788,-0.00016473,-0.00015999,0.00000825,-0.0
 0013124,-0.00020235,0.00082060,0.00008542,-0.00008092,0.00034996,0.001
 10315,0.00024924,0.05523375,0.00000209,0.00002513,0.00002682,-0.000057
 25,-0.00001983,-0.00001099,-0.00001402,0.00001105,0.00000564,0.0000156
 0,0.00020227,0.00016373,0.00033627,-0.00118112,-0.00111946,0.00027288,
 -0.00145320,0.00034792,-0.00029572,-0.01738999,0.02428276,-0.01814381,
 -0.13094675,0.12140074,0.00233447,0.00463673,-0.00604389,-0.00001534,0
 .00000379,0.00000498,0.00000702,-0.00000295,-0.00000242,0.00000115,-0.
 00000065,-0.00000330,-0.00001893,0.00002372,0.00000636,0.00001221,0.00
 000359,-0.00000307,-0.00000451,0.00000474,0.00000787,-0.00000198,-0.00
 001719,0.00000600,-0.00001316,0.00000137,-0.00000957,0.00006855,0.0000
 5973,0.00000382,0.00006682,0.00008552,-0.00008322,-0.00048595,-0.00001
 123,-0.00009551,-0.00075888,-0.00013808,-0.00016617,0.00022753,0.00207
 235,-0.00008484,-0.00091643,-0.00483317,-0.00107686,0.01660601,0.14358
 044,-0.00001356,-0.00000423,-0.00003907,-0.00003482,0.00005763,0.00008
 530,-0.00002964,-0.00001772,0.00000504,-0.00021989,0.00060108,-0.00000
 418,0.00149048,-0.00166456,-0.00045088,-0.00003137,-0.00064126,-0.0002
 4000,-0.00109220,-0.00695031,0.00779284,0.02252452,0.12263143,-0.22187
 232,0.00045938,0.00655296,-0.00933490,0.00002898,-0.00001332,-0.000018
 91,0.00001016,0.00000151,0.00000335,0.00000441,0.00000178,0.00001393,-
 0.00004494,0.00002741,0.00000248,0.00001216,0.00001186,0.00000036,0.00
 002201,-0.00000600,-0.00002739,0.00002082,-0.00000614,0.00004381,0.000
 07921,0.00000179,0.00002500,0.00025465,0.00004393,-0.00000909,-0.00018
 720,-0.00022568,0.00005074,-0.00003948,0.00001364,0.00002177,-0.000156
 89,0.00005698,0.00000529,0.00003983,0.00037650,0.00173325,0.00020100,-
 0.00171426,0.00081542,-0.02632662,-0.13112694,0.23785517,0.00001620,-0
 .00000214,0.00004798,0.00006073,-0.00005336,-0.00013290,-0.00009016,0.
 00000408,-0.00000783,-0.00017243,-0.00068142,0.00032527,-0.00102777,0.
 00057527,-0.00038564,-0.00034034,-0.00003075,0.00094075,0.00238784,0.0
 0203671,0.00138925,-0.19140785,-0.04267643,-0.12285722,-0.02011809,-0.
 00297304,-0.01785215,-0.00003611,0.00001673,0.00002057,-0.00001032,-0.
 00000784,-0.00000093,0.00002416,-0.00000153,0.00000340,0.00002608,-0.0
 0003869,-0.00007430,0.00001647,-0.00000688,0.00001406,-0.00000395,0.00
 000691,0.00004084,0.00001626,-0.00001027,-0.00000700,0.00019074,0.0000
 3285,0.00008784,-0.00028993,-0.00007169,0.00015663,-0.00001710,-0.0004
 7655,0.00027577,0.00016246,0.00010221,0.00000123,-0.00005607,-0.000120
 15,-0.00013355,-0.00021598,0.00003227,0.00040995,0.00141309,-0.0002164
 5,0.00049958,0.00306714,0.00098351,0.00200403,0.20841688,-0.00000419,0
 .00002251,0.00003593,-0.00007841,-0.00003553,-0.00002387,-0.00002291,0
 .00001909,0.00000437,0.00000290,0.00014201,0.00023089,0.00032265,-0.00
 057634,-0.00024617,0.00090210,-0.00453519,-0.00108227,-0.02271849,-0.0
 0898473,-0.01906665,-0.04234859,-0.05588619,-0.03340510,0.00643853,-0.
 00015077,0.00339448,-0.00001435,0.00000367,0.00000189,0.00000708,0.000
 00239,-0.00000586,-0.00000060,-0.00000355,-0.00000223,-0.00001153,0.00
 003485,0.00003984,0.00000523,0.00000211,-0.00000895,0.00000139,0.00000
 071,0.00000613,-0.00000372,-0.00000296,0.00000213,-0.00001798,-0.00002
 813,-0.00004488,0.00007386,0.00007976,-0.00005802,-0.00008101,0.000027
 47,0.00021262,-0.00014261,0.00007179,-0.00010698,-0.00130021,-0.000391
 45,0.00023341,-0.00045108,-0.00239869,-0.00085818,-0.00018737,0.001856
 68,0.00006155,0.01414460,0.00442692,0.01228483,0.04354321,0.06528879,0
 .00000155,0.00000933,0.00000878,-0.00003889,0.00001279,0.00000411,0.00
 002309,0.00000930,0.00000081,0.00015526,0.00028363,-0.00006902,0.00059
 407,-0.00024002,-0.00020680,0.00115294,-0.00065155,-0.00033427,-0.0043
 6970,-0.00026349,-0.00398013,-0.12443745,-0.03457271,-0.15349332,0.012
 41454,0.00276702,0.00951429,-0.00000769,0.00000131,0.00000494,-0.00000
 162,-0.00000133,-0.00000162,-0.00000255,-0.00000293,-0.00000320,0.0000
 0217,0.00000229,0.00003342,-0.00000567,-0.00000231,-0.00000310,-0.0000
 1026,0.00000173,0.00000482,-0.00000844,0.00000223,-0.00001751,-0.00005
 837,0.00001617,-0.00003967,0.00012718,0.00003058,-0.00008969,0.0000191
 9,0.00014608,-0.00009923,0.00018900,0.00011649,-0.00003538,-0.00028721
 ,0.00001958,0.00012958,-0.00013887,-0.00102743,0.00005469,0.00058117,0
 .00027809,0.00178315,-0.02081997,-0.00575741,-0.01807062,0.13285726,0.
 03879109,0.16306989,-0.00001149,0.00002576,-0.00004267,0.00015959,0.00
 000506,0.00006272,-0.00003259,-0.00010627,0.00002715,0.00118661,-0.000
 27595,0.00141741,0.00675320,-0.00642653,0.00873488,-0.00009360,0.00028
 907,0.00003600,-0.00142182,-0.00050650,0.00027437,-0.01979787,0.010905
 31,-0.01678466,-0.13661272,0.06982921,-0.10080084,0.00001691,-0.000004
 08,-0.00001131,0.00000339,-0.00000517,0.00000484,-0.00000335,0.0000086
 0,0.00000740,-0.00003686,-0.00001864,-0.00002252,0.00002041,0.00002900
 ,0.00003631,-0.00002392,0.00002217,-0.00001892,0.00001325,-0.00002824,
 -0.00004480,0.00036294,0.00021774,-0.00041465,0.00021500,0.00008016,-0
 .00000035,-0.00025183,-0.00292843,0.00084279,0.00026040,0.00023705,0.0
 0005251,0.00004343,0.00014497,0.00012091,-0.00008363,0.00045385,0.0000
 7155,0.00011527,0.00020174,0.00007502,0.00172069,-0.00045717,-0.000258
 78,-0.00397326,0.00196721,0.00252597,0.15330316,-0.00002279,0.00007472
 ,0.00008610,-0.00032825,0.00008905,0.00000791,0.00013583,0.00008228,0.
 00001152,0.00205596,0.00144705,0.00036722,0.01689234,-0.01564588,0.022
 52616,0.00035799,0.00105043,0.00101774,0.00001907,-0.00029078,-0.00068
 763,0.00097249,-0.00128873,0.00308897,0.07050569,-0.10040898,0.0722936
 8,-0.00002510,-0.00000112,-0.00001204,0.00001750,-0.00000040,-0.000006
 54,-0.00004146,0.00000972,-0.00001534,-0.00006632,0.00004291,0.0001534
 0,0.00005549,0.00001648,-0.00003631,-0.00009401,0.00002526,-0.00003743
 ,-0.00007974,-0.00010613,-0.00006990,-0.00108286,0.00013112,-0.0007082
 2,0.00016879,0.00028183,-0.00054279,-0.00194309,-0.00538457,0.00053753
 ,-0.00018319,-0.00019170,-0.00077895,-0.00036285,0.00016595,-0.0003768
 8,0.00013977,-0.00016194,-0.00007090,-0.00007689,0.00006185,-0.0000031
 2,-0.00037093,0.00116460,-0.00035324,-0.00013506,0.00021880,-0.0001556
 5,-0.07508724,0.10943691,0.00004541,-0.00016326,-0.00003920,0.00012730
 ,0.00048887,-0.00010383,-0.00030425,-0.00011273,-0.00004686,-0.0008736
 3,-0.00038055,0.00049201,-0.00399383,0.00520771,-0.00764397,-0.0001180
 3,-0.00035967,0.00012745,0.00070755,0.00011629,-0.00037468,0.01100327,
 -0.00648574,0.00822133,-0.10112866,0.07237411,-0.15457913,0.00001814,0
 .00000525,0.00000258,-0.00007275,-0.00003136,0.00002133,0.00006960,0.0
 0001890,0.00003725,0.00001165,-0.00034665,-0.00035105,0.00007730,-0.00
 003418,0.00008395,0.00006812,-0.00000021,0.00001993,0.00009132,-0.0000
 4274,0.00018885,0.00080003,0.00012665,0.00027131,0.00012476,-0.0002073
 6,0.00028335,0.00104221,0.00213304,0.00090441,-0.00023558,-0.00007897,
 0.00049738,0.00008682,0.00012350,0.00014354,-0.00000392,-0.00015629,-0
 .00000283,-0.00002111,-0.00007699,-0.00004005,-0.00008159,-0.00023415,
 0.00204662,0.00240547,-0.00070842,0.00007436,0.10631322,-0.08369686,0.
 16771671,-0.00002016,0.00027302,-0.00000263,-0.00028418,-0.00051335,0.
 00011870,-0.00003429,0.00012543,0.00014406,0.00028242,-0.00035299,-0.0
 0055534,-0.00106366,-0.00546271,-0.01158758,-0.00195097,-0.00209022,0.
 00151336,-0.00310361,0.00080943,0.00258991,0.00136722,0.01652209,0.022
 17575,-0.04715203,-0.01282135,-0.01840031,-0.00002421,-0.00000438,0.00
 001207,0.00012816,0.00000402,-0.00001505,0.00002487,-0.00002517,0.0000
 1692,-0.00085606,0.00025914,0.00022022,0.00004350,0.00006337,-0.000098
 14,0.00000202,0.00000127,0.00002160,0.00005380,-0.00009562,0.00005810,
 0.00016419,-0.00006322,0.00015171,-0.00014965,-0.00007201,0.00037931,0
 .00066334,0.00077580,0.00054036,-0.00002192,0.00018018,0.00033519,0.00
 064674,-0.00038854,-0.00046567,0.00003199,0.00117700,0.00017060,-0.000
 07622,0.00049759,0.00009284,-0.00162798,0.00024902,0.00128373,0.001961
 30,-0.00002570,-0.00045668,-0.00183132,-0.01142114,-0.01615881,0.05282
 670,-0.00001378,0.00029501,0.00013074,-0.00015767,-0.00032774,-0.00017
 774,-0.00034965,0.00013539,0.00007412,0.00052504,-0.00059611,-0.000082
 77,-0.00078874,-0.01442297,-0.02369873,-0.00131870,-0.00515788,0.00181
 703,-0.00032400,-0.00097665,-0.00024925,-0.00146411,-0.00171255,-0.002
 04159,-0.01163556,-0.13248602,-0.12163073,-0.00006333,0.00001233,0.000
 00888,0.00012972,0.00000751,-0.00002289,0.00005006,-0.00002135,0.00002
 727,-0.00020923,0.00053200,0.00005004,0.00016759,0.00005387,-0.0000546
 2,0.00006151,0.00001822,0.00002104,0.00013641,-0.00023854,0.00022110,-
 0.00003356,-0.00001155,0.00003592,-0.00031749,-0.00002756,0.00020414,0
 .00067634,0.00166499,0.00010913,-0.00017228,0.00014062,-0.00014447,0.0
 0062420,-0.00106115,-0.00141265,0.00023159,-0.00017015,-0.00007148,0.0
 0015313,-0.00016908,-0.00002026,0.00009769,-0.00030777,0.00006033,0.00
 016848,0.00079598,0.00018709,0.00142730,0.00918128,0.01252179,0.012399
 03,0.14484985,-0.00007256,0.00029263,-0.00001509,0.00037794,-0.0010507
 2,-0.00018438,0.00010805,0.00009379,0.00021908,-0.00024695,-0.00035514
 ,-0.00009371,0.00068019,0.00643925,0.00771260,0.00102990,0.00148632,0.
 00020517,0.00079128,0.00075240,-0.00049384,-0.00206604,-0.00524119,-0.
 00835687,-0.01768540,-0.12383352,-0.22136499,-0.00002703,-0.00000462,0
 .00001597,0.00011995,0.00005431,0.00000746,0.00001202,-0.00002313,0.00
 000577,0.00032680,0.00068852,-0.00012638,-0.00003118,0.00004671,-0.000
 04686,-0.00002719,-0.00000127,0.00003183,-0.00011399,-0.00004227,-0.00
 001976,0.00014141,0.00003910,0.00010084,-0.00005626,0.00004458,0.00007
 041,-0.00008242,-0.00069493,0.00110825,0.00004949,0.00023491,0.0002972
 4,-0.00017591,0.00020407,0.00038719,-0.00001401,-0.00042361,-0.0000158
 8,0.00005271,-0.00018587,-0.00003935,0.00122531,-0.00043883,-0.0004330
 3,-0.00002834,0.00031841,0.00176072,-0.00220355,-0.01253845,-0.0179507
 7,0.01791579,0.13413854,0.23721838\\-0.00000484,-0.00000081,0.00000107
 ,0.00000574,0.00000145,0.00000370,-0.00000377,-0.00000071,0.00000050,0
 .00000316,-0.00000429,-0.00000307,-0.00000656,0.00000533,0.00000729,0.
 00000478,-0.00000757,-0.00000987,-0.00000584,0.00000115,-0.00000088,0.
 00000372,0.00000173,-0.00000209,-0.00000505,-0.00000424,0.00000267,0.0
 0000030,0.00000009,-0.00000075,0.00000262,-0.00000015,0.00000030,0.000
 00016,0.00000063,-0.00000012,-0.00000006,0.00000194,0.00000018,0.00000
 109,0.00000062,-0.00000024,0.00000067,-0.00000019,-0.00000036,0.000000
 63,-0.00000097,0.00000028,0.00000272,-0.00000057,-0.00000039,-0.000001
 44,-0.00000014,0.00000024,0.00000106,0.00000081,-0.00000267,-0.0000007
 7,0.00000204,0.00000166,0.00000078,0.00000122,0.00000033,0.00000106,-0
 .00000114,0.00000068,0.,-0.00000085,0.00000110,-0.00000079,0.00000209,
 0.00000159,0.00000108,-0.00000038,-0.00000085,0.00000051,0.00000048,-0
 .00000068,-0.00000096,0.00000242,0.00000039\\\@


 It is also a good rule not to put too much confidence in
 experimental results until they have been confirmed by
 Theory.
                             -- Sir Arthur Eddington
 Job cpu time:       0 days  2 hours 47 minutes 23.5 seconds.
 Elapsed time:       0 days  0 hours 41 minutes 52.0 seconds.
 File lengths (MBytes):  RWF=    226 Int=      0 D2E=      0 Chk=     11 Scr=      1
 Normal termination of Gaussian 16 at Sun May 28 18:10:57 2023.
### All Done ###
