### Starting Gaussian ###
 Entering Gaussian System, Link 0=g16
 Initial command:
 /cluster/software/gaussian/gaussian-16-A.03/avx2/g16/l1.exe "/local/scratch/cz9n3/Gau-22033.inp" -scrdir="/local/scratch/cz9n3/"
 Entering Link 1 = /cluster/software/gaussian/gaussian-16-A.03/avx2/g16/l1.exe PID=     22034.
  
 Copyright (c) 1988,1990,1992,1993,1995,1998,2003,2009,2016,
            Gaussian, Inc.  All Rights Reserved.
  
 This is part of the Gaussian(R) 16 program.  It is based on
 the Gaussian(R) 09 system (copyright 2009, Gaussian, Inc.),
 the Gaussian(R) 03 system (copyright 2003, Gaussian, Inc.),
 the Gaussian(R) 98 system (copyright 1998, Gaussian, Inc.),
 the Gaussian(R) 94 system (copyright 1995, Gaussian, Inc.),
 the Gaussian 92(TM) system (copyright 1992, Gaussian, Inc.),
 the Gaussian 90(TM) system (copyright 1990, Gaussian, Inc.),
 the Gaussian 88(TM) system (copyright 1988, Gaussian, Inc.),
 the Gaussian 86(TM) system (copyright 1986, Carnegie Mellon
 University), and the Gaussian 82(TM) system (copyright 1983,
 Carnegie Mellon University). Gaussian is a federally registered
 trademark of Gaussian, Inc.
  
 This software contains proprietary and confidential information,
 including trade secrets, belonging to Gaussian, Inc.
  
 This software is provided under written license and may be
 used, copied, transmitted, or stored only in accord with that
 written license.
  
 The following legend is applicable only to US Government
 contracts under FAR:
  
                    RESTRICTED RIGHTS LEGEND
  
 Use, reproduction and disclosure by the US Government is
 subject to restrictions as set forth in subparagraphs (a)
 and (c) of the Commercial Computer Software - Restricted
 Rights clause in FAR 52.227-19.
  
 Gaussian, Inc.
 340 Quinnipiac St., Bldg. 40, Wallingford CT 06492
  
  
 ---------------------------------------------------------------
 Warning -- This program may not be used in any manner that
 competes with the business of Gaussian, Inc. or will provide
 assistance to any competitor of Gaussian, Inc.  The licensee
 of this program is prohibited from giving any competitor of
 Gaussian, Inc. access to this program.  By using this program,
 the user acknowledges that Gaussian, Inc. is engaged in the
 business of creating and licensing software in the field of
 computational chemistry and represents and warrants to the
 licensee that it is not a competitor of Gaussian, Inc. and that
 it will not use this program in any manner prohibited above.
 ---------------------------------------------------------------
  

 Cite this work as:
 Gaussian 16, Revision A.03,
 M. J. Frisch, G. W. Trucks, H. B. Schlegel, G. E. Scuseria, 
 M. A. Robb, J. R. Cheeseman, G. Scalmani, V. Barone, 
 G. A. Petersson, H. Nakatsuji, X. Li, M. Caricato, A. V. Marenich, 
 J. Bloino, B. G. Janesko, R. Gomperts, B. Mennucci, H. P. Hratchian, 
 J. V. Ortiz, A. F. Izmaylov, J. L. Sonnenberg, D. Williams-Young, 
 F. Ding, F. Lipparini, F. Egidi, J. Goings, B. Peng, A. Petrone, 
 T. Henderson, D. Ranasinghe, V. G. Zakrzewski, J. Gao, N. Rega, 
 G. Zheng, W. Liang, M. Hada, M. Ehara, K. Toyota, R. Fukuda, 
 J. Hasegawa, M. Ishida, T. Nakajima, Y. Honda, O. Kitao, H. Nakai, 
 T. Vreven, K. Throssell, J. A. Montgomery, Jr., J. E. Peralta, 
 F. Ogliaro, M. J. Bearpark, J. J. Heyd, E. N. Brothers, K. N. Kudin, 
 V. N. Staroverov, T. A. Keith, R. Kobayashi, J. Normand, 
 K. Raghavachari, A. P. Rendell, J. C. Burant, S. S. Iyengar, 
 J. Tomasi, M. Cossi, J. M. Millam, M. Klene, C. Adamo, R. Cammi, 
 J. W. Ochterski, R. L. Martin, K. Morokuma, O. Farkas, 
 J. B. Foresman, and D. J. Fox, Gaussian, Inc., Wallingford CT, 2016.
 
 ******************************************
 Gaussian 16:  ES64L-G16RevA.03 25-Dec-2016
                24-May-2023 
 ******************************************
 %chk=CCqCrCCCCCCCCqCrOO.chk
 %NProcShared=20
 Will use up to   20 processors via shared memory.
 -----------------------------
 # opt freq b3lyp/6-31g(2df,p)
 -----------------------------
 1/18=20,19=15,26=3,38=1/1,3;
 2/9=110,12=2,17=6,18=5,40=1/2;
 3/5=1,6=6,7=104,11=2,25=1,30=1,71=1,74=-5/1,2,3;
 4//1;
 5/5=2,38=5/2;
 6/7=2,8=2,9=2,10=2,28=1/1;
 7//1,2,3,16;
 1/18=20,19=15,26=3/3(2);
 2/9=110/2;
 99//99;
 2/9=110/2;
 3/5=1,6=6,7=104,11=2,25=1,30=1,71=1,74=-5/1,2,3;
 4/5=5,16=3,69=1/1;
 5/5=2,38=5/2;
 7//1,2,3,16;
 1/18=20,19=15,26=3/3(-5);
 2/9=110/2;
 6/7=2,8=2,9=2,10=2,19=2,28=1/1;
 99/9=1/99;
 -------------------
 Title Card Required
 -------------------
 Symbolic Z-matrix:
 Charge =  0 Multiplicity = 1
 C                     0.94921  -0.10432  -0.01147 
 C                     2.47558  -0.13711  -0.0312 
 C                     2.95992  -1.49264  -0.55022 
 C                     3.00303   1.02365  -0.88408 
 C                     4.5246    1.07551  -0.89542 
 C                     5.01894   2.22315  -1.75524 
 C                     6.53657   2.22706  -1.7636 
 C                     7.04768   3.36946  -2.62405 
 C                     8.56419   3.35516  -2.62293 
 C                     9.12907   4.46604  -3.4963 
 C                     10.66046   4.44821  -3.52501 
 C                     11.19949   3.13278  -4.08342 
 O                     11.07587   5.53485  -4.36314 
 O                     12.51749   5.64606  -4.1919 
 H                     0.55379  -0.90914   0.61574 
 H                     0.54046  -0.22544  -1.02057 
 H                     0.58449   0.84696   0.38994 
 H                     2.83692  -0.00908   0.99727 
 H                     2.65485  -1.64484  -1.59113 
 H                     2.55186  -2.30866   0.05279 
 H                     4.04942  -1.58093  -0.50138 
 H                     2.61646   1.9734   -0.49121 
 H                     2.63059   0.93406  -1.91259 
 H                     4.9399    0.14772  -1.30171 
 H                     4.90206   1.18111   0.12901 
 H                     4.64119   3.17719  -1.37077 
 H                     4.64457   2.10812  -2.77995 
 H                     6.91008   1.26982  -2.15165 
 H                     6.91834   2.32617  -0.73967 
 H                     6.67485   4.32621  -2.24202 
 H                     6.67467   3.25385  -3.64917 
 H                     8.88658   2.37548  -2.98978 
 H                     8.94156   3.45921  -1.59844 
 H                     8.78076   5.44107  -3.12994 
 H                     8.73639   4.38105  -4.51807 
 H                     11.04026   4.61789  -2.51008 
 H                     10.83087   2.9689   -5.10157 
 H                     10.91869   2.27622  -3.46494 
 H                     12.29154   3.14406  -4.13415 
 H                     12.65339   6.30041  -4.90639 
 

 GradGradGradGradGradGradGradGradGradGradGradGradGradGradGradGradGradGrad
 Berny optimization.
 Initialization pass.
                           ----------------------------
                           !    Initial Parameters    !
                           ! (Angstroms and Degrees)  !
 --------------------------                            --------------------------
 ! Name  Definition              Value          Derivative Info.                !
 --------------------------------------------------------------------------------
 ! R1    R(1,2)                  1.5268         estimate D2E/DX2                !
 ! R2    R(1,15)                 1.0943         estimate D2E/DX2                !
 ! R3    R(1,16)                 1.0955         estimate D2E/DX2                !
 ! R4    R(1,17)                 1.095          estimate D2E/DX2                !
 ! R5    R(2,3)                  1.5302         estimate D2E/DX2                !
 ! R6    R(2,4)                  1.5339         estimate D2E/DX2                !
 ! R7    R(2,18)                 1.0976         estimate D2E/DX2                !
 ! R8    R(3,19)                 1.0953         estimate D2E/DX2                !
 ! R9    R(3,20)                 1.0936         estimate D2E/DX2                !
 ! R10   R(3,21)                 1.0942         estimate D2E/DX2                !
 ! R11   R(4,5)                  1.5225         estimate D2E/DX2                !
 ! R12   R(4,22)                 1.0981         estimate D2E/DX2                !
 ! R13   R(4,23)                 1.0975         estimate D2E/DX2                !
 ! R14   R(5,6)                  1.5168         estimate D2E/DX2                !
 ! R15   R(5,24)                 1.0947         estimate D2E/DX2                !
 ! R16   R(5,25)                 1.0969         estimate D2E/DX2                !
 ! R17   R(6,7)                  1.5177         estimate D2E/DX2                !
 ! R18   R(6,26)                 1.0958         estimate D2E/DX2                !
 ! R19   R(6,27)                 1.097          estimate D2E/DX2                !
 ! R20   R(7,8)                  1.5188         estimate D2E/DX2                !
 ! R21   R(7,28)                 1.0984         estimate D2E/DX2                !
 ! R22   R(7,29)                 1.0973         estimate D2E/DX2                !
 ! R23   R(8,9)                  1.5166         estimate D2E/DX2                !
 ! R24   R(8,30)                 1.0956         estimate D2E/DX2                !
 ! R25   R(8,31)                 1.097          estimate D2E/DX2                !
 ! R26   R(9,10)                 1.5218         estimate D2E/DX2                !
 ! R27   R(9,32)                 1.0947         estimate D2E/DX2                !
 ! R28   R(9,33)                 1.0967         estimate D2E/DX2                !
 ! R29   R(10,11)                1.5318         estimate D2E/DX2                !
 ! R30   R(10,34)                1.0983         estimate D2E/DX2                !
 ! R31   R(10,35)                1.0979         estimate D2E/DX2                !
 ! R32   R(11,12)                1.5273         estimate D2E/DX2                !
 ! R33   R(11,13)                1.4338         estimate D2E/DX2                !
 ! R34   R(11,36)                1.0969         estimate D2E/DX2                !
 ! R35   R(12,37)                1.0952         estimate D2E/DX2                !
 ! R36   R(12,38)                1.0932         estimate D2E/DX2                !
 ! R37   R(12,39)                1.0933         estimate D2E/DX2                !
 ! R38   R(13,14)                1.456          estimate D2E/DX2                !
 ! R39   R(14,40)                0.9783         estimate D2E/DX2                !
 ! A1    A(2,1,15)             110.6614         estimate D2E/DX2                !
 ! A2    A(2,1,16)             111.0226         estimate D2E/DX2                !
 ! A3    A(2,1,17)             110.8767         estimate D2E/DX2                !
 ! A4    A(15,1,16)            108.1696         estimate D2E/DX2                !
 ! A5    A(15,1,17)            107.9665         estimate D2E/DX2                !
 ! A6    A(16,1,17)            108.0261         estimate D2E/DX2                !
 ! A7    A(1,2,3)              109.8668         estimate D2E/DX2                !
 ! A8    A(1,2,4)              109.553          estimate D2E/DX2                !
 ! A9    A(1,2,18)             108.3303         estimate D2E/DX2                !
 ! A10   A(3,2,4)              111.8959         estimate D2E/DX2                !
 ! A11   A(3,2,18)             108.4791         estimate D2E/DX2                !
 ! A12   A(4,2,18)             108.634          estimate D2E/DX2                !
 ! A13   A(2,3,19)             110.9331         estimate D2E/DX2                !
 ! A14   A(2,3,20)             110.8467         estimate D2E/DX2                !
 ! A15   A(2,3,21)             111.8094         estimate D2E/DX2                !
 ! A16   A(19,3,20)            108.4447         estimate D2E/DX2                !
 ! A17   A(19,3,21)            107.9714         estimate D2E/DX2                !
 ! A18   A(20,3,21)            106.6613         estimate D2E/DX2                !
 ! A19   A(2,4,5)              111.9354         estimate D2E/DX2                !
 ! A20   A(2,4,22)             109.5432         estimate D2E/DX2                !
 ! A21   A(2,4,23)             110.0345         estimate D2E/DX2                !
 ! A22   A(5,4,22)             108.9672         estimate D2E/DX2                !
 ! A23   A(5,4,23)             109.5688         estimate D2E/DX2                !
 ! A24   A(22,4,23)            106.6435         estimate D2E/DX2                !
 ! A25   A(4,5,6)              110.8365         estimate D2E/DX2                !
 ! A26   A(4,5,24)             110.6735         estimate D2E/DX2                !
 ! A27   A(4,5,25)             109.8917         estimate D2E/DX2                !
 ! A28   A(6,5,24)             107.8922         estimate D2E/DX2                !
 ! A29   A(6,5,25)             110.1471         estimate D2E/DX2                !
 ! A30   A(24,5,25)            107.3185         estimate D2E/DX2                !
 ! A31   A(5,6,7)              109.3278         estimate D2E/DX2                !
 ! A32   A(5,6,26)             110.3348         estimate D2E/DX2                !
 ! A33   A(5,6,27)             109.8125         estimate D2E/DX2                !
 ! A34   A(7,6,26)             110.1463         estimate D2E/DX2                !
 ! A35   A(7,6,27)             109.6568         estimate D2E/DX2                !
 ! A36   A(26,6,27)            107.5414         estimate D2E/DX2                !
 ! A37   A(6,7,8)              109.9731         estimate D2E/DX2                !
 ! A38   A(6,7,28)             109.862          estimate D2E/DX2                !
 ! A39   A(6,7,29)             110.0605         estimate D2E/DX2                !
 ! A40   A(8,7,28)             109.9343         estimate D2E/DX2                !
 ! A41   A(8,7,29)             110.0992         estimate D2E/DX2                !
 ! A42   A(28,7,29)            106.8632         estimate D2E/DX2                !
 ! A43   A(7,8,9)              109.2082         estimate D2E/DX2                !
 ! A44   A(7,8,30)             110.169          estimate D2E/DX2                !
 ! A45   A(7,8,31)             109.6166         estimate D2E/DX2                !
 ! A46   A(9,8,30)             110.381          estimate D2E/DX2                !
 ! A47   A(9,8,31)             109.8594         estimate D2E/DX2                !
 ! A48   A(30,8,31)            107.5883         estimate D2E/DX2                !
 ! A49   A(8,9,10)             111.3378         estimate D2E/DX2                !
 ! A50   A(8,9,32)             107.6192         estimate D2E/DX2                !
 ! A51   A(8,9,33)             110.1126         estimate D2E/DX2                !
 ! A52   A(10,9,32)            110.5881         estimate D2E/DX2                !
 ! A53   A(10,9,33)            109.8235         estimate D2E/DX2                !
 ! A54   A(32,9,33)            107.2548         estimate D2E/DX2                !
 ! A55   A(9,10,11)            111.9229         estimate D2E/DX2                !
 ! A56   A(9,10,34)            109.8095         estimate D2E/DX2                !
 ! A57   A(9,10,35)            110.1714         estimate D2E/DX2                !
 ! A58   A(11,10,34)           109.4905         estimate D2E/DX2                !
 ! A59   A(11,10,35)           109.8297         estimate D2E/DX2                !
 ! A60   A(34,10,35)           105.4105         estimate D2E/DX2                !
 ! A61   A(10,11,12)           111.6981         estimate D2E/DX2                !
 ! A62   A(10,11,13)           106.9651         estimate D2E/DX2                !
 ! A63   A(10,11,36)           109.0886         estimate D2E/DX2                !
 ! A64   A(12,11,13)           109.6793         estimate D2E/DX2                !
 ! A65   A(12,11,36)           110.4464         estimate D2E/DX2                !
 ! A66   A(13,11,36)           108.8639         estimate D2E/DX2                !
 ! A67   A(11,12,37)           110.4869         estimate D2E/DX2                !
 ! A68   A(11,12,38)           112.1687         estimate D2E/DX2                !
 ! A69   A(11,12,39)           111.1373         estimate D2E/DX2                !
 ! A70   A(37,12,38)           108.8002         estimate D2E/DX2                !
 ! A71   A(37,12,39)           107.1345         estimate D2E/DX2                !
 ! A72   A(38,12,39)           106.9124         estimate D2E/DX2                !
 ! A73   A(11,13,14)           106.0216         estimate D2E/DX2                !
 ! A74   A(13,14,40)            95.8965         estimate D2E/DX2                !
 ! D1    D(15,1,2,3)            58.2819         estimate D2E/DX2                !
 ! D2    D(15,1,2,4)          -178.4115         estimate D2E/DX2                !
 ! D3    D(15,1,2,18)          -60.0608         estimate D2E/DX2                !
 ! D4    D(16,1,2,3)           -61.8476         estimate D2E/DX2                !
 ! D5    D(16,1,2,4)            61.459          estimate D2E/DX2                !
 ! D6    D(16,1,2,18)          179.8097         estimate D2E/DX2                !
 ! D7    D(17,1,2,3)           178.0606         estimate D2E/DX2                !
 ! D8    D(17,1,2,4)           -58.6328         estimate D2E/DX2                !
 ! D9    D(17,1,2,18)           59.7179         estimate D2E/DX2                !
 ! D10   D(1,2,3,19)            64.0352         estimate D2E/DX2                !
 ! D11   D(1,2,3,20)           -56.5048         estimate D2E/DX2                !
 ! D12   D(1,2,3,21)          -175.3753         estimate D2E/DX2                !
 ! D13   D(4,2,3,19)           -57.8859         estimate D2E/DX2                !
 ! D14   D(4,2,3,20)          -178.426          estimate D2E/DX2                !
 ! D15   D(4,2,3,21)            62.7036         estimate D2E/DX2                !
 ! D16   D(18,2,3,19)         -177.714          estimate D2E/DX2                !
 ! D17   D(18,2,3,20)           61.7459         estimate D2E/DX2                !
 ! D18   D(18,2,3,21)          -57.1245         estimate D2E/DX2                !
 ! D19   D(1,2,4,5)            177.7185         estimate D2E/DX2                !
 ! D20   D(1,2,4,22)            56.7367         estimate D2E/DX2                !
 ! D21   D(1,2,4,23)           -60.1958         estimate D2E/DX2                !
 ! D22   D(3,2,4,5)            -60.1806         estimate D2E/DX2                !
 ! D23   D(3,2,4,22)           178.8377         estimate D2E/DX2                !
 ! D24   D(3,2,4,23)            61.9051         estimate D2E/DX2                !
 ! D25   D(18,2,4,5)            59.5567         estimate D2E/DX2                !
 ! D26   D(18,2,4,22)          -61.4251         estimate D2E/DX2                !
 ! D27   D(18,2,4,23)         -178.3576         estimate D2E/DX2                !
 ! D28   D(2,4,5,6)            179.4779         estimate D2E/DX2                !
 ! D29   D(2,4,5,24)            59.8105         estimate D2E/DX2                !
 ! D30   D(2,4,5,25)           -58.5418         estimate D2E/DX2                !
 ! D31   D(22,4,5,6)           -59.2075         estimate D2E/DX2                !
 ! D32   D(22,4,5,24)         -178.8748         estimate D2E/DX2                !
 ! D33   D(22,4,5,25)           62.7729         estimate D2E/DX2                !
 ! D34   D(23,4,5,6)            57.126          estimate D2E/DX2                !
 ! D35   D(23,4,5,24)          -62.5413         estimate D2E/DX2                !
 ! D36   D(23,4,5,25)          179.1064         estimate D2E/DX2                !
 ! D37   D(4,5,6,7)           -178.9394         estimate D2E/DX2                !
 ! D38   D(4,5,6,26)            59.7797         estimate D2E/DX2                !
 ! D39   D(4,5,6,27)           -58.5905         estimate D2E/DX2                !
 ! D40   D(24,5,6,7)           -57.6195         estimate D2E/DX2                !
 ! D41   D(24,5,6,26)         -178.9004         estimate D2E/DX2                !
 ! D42   D(24,5,6,27)           62.7293         estimate D2E/DX2                !
 ! D43   D(25,5,6,7)            59.2297         estimate D2E/DX2                !
 ! D44   D(25,5,6,26)          -62.0511         estimate D2E/DX2                !
 ! D45   D(25,5,6,27)          179.5786         estimate D2E/DX2                !
 ! D46   D(5,6,7,8)            179.8557         estimate D2E/DX2                !
 ! D47   D(5,6,7,28)            58.7248         estimate D2E/DX2                !
 ! D48   D(5,6,7,29)           -58.6797         estimate D2E/DX2                !
 ! D49   D(26,6,7,8)           -58.7493         estimate D2E/DX2                !
 ! D50   D(26,6,7,28)         -179.8802         estimate D2E/DX2                !
 ! D51   D(26,6,7,29)           62.7153         estimate D2E/DX2                !
 ! D52   D(27,6,7,8)            59.4116         estimate D2E/DX2                !
 ! D53   D(27,6,7,28)          -61.7194         estimate D2E/DX2                !
 ! D54   D(27,6,7,29)         -179.1239         estimate D2E/DX2                !
 ! D55   D(6,7,8,9)           -179.8653         estimate D2E/DX2                !
 ! D56   D(6,7,8,30)            58.745          estimate D2E/DX2                !
 ! D57   D(6,7,8,31)           -59.4624         estimate D2E/DX2                !
 ! D58   D(28,7,8,9)           -58.7778         estimate D2E/DX2                !
 ! D59   D(28,7,8,30)          179.8326         estimate D2E/DX2                !
 ! D60   D(28,7,8,31)           61.6252         estimate D2E/DX2                !
 ! D61   D(29,7,8,9)            58.6932         estimate D2E/DX2                !
 ! D62   D(29,7,8,30)          -62.6964         estimate D2E/DX2                !
 ! D63   D(29,7,8,31)          179.0962         estimate D2E/DX2                !
 ! D64   D(7,8,9,10)           178.8286         estimate D2E/DX2                !
 ! D65   D(7,8,9,32)            57.4849         estimate D2E/DX2                !
 ! D66   D(7,8,9,33)           -59.1134         estimate D2E/DX2                !
 ! D67   D(30,8,9,10)          -59.9105         estimate D2E/DX2                !
 ! D68   D(30,8,9,32)          178.7458         estimate D2E/DX2                !
 ! D69   D(30,8,9,33)           62.1475         estimate D2E/DX2                !
 ! D70   D(31,8,9,10)           58.5745         estimate D2E/DX2                !
 ! D71   D(31,8,9,32)          -62.7692         estimate D2E/DX2                !
 ! D72   D(31,8,9,33)         -179.3675         estimate D2E/DX2                !
 ! D73   D(8,9,10,11)         -178.9683         estimate D2E/DX2                !
 ! D74   D(8,9,10,34)           59.212          estimate D2E/DX2                !
 ! D75   D(8,9,10,35)          -56.4607         estimate D2E/DX2                !
 ! D76   D(32,9,10,11)         -59.3726         estimate D2E/DX2                !
 ! D77   D(32,9,10,34)         178.8076         estimate D2E/DX2                !
 ! D78   D(32,9,10,35)          63.1349         estimate D2E/DX2                !
 ! D79   D(33,9,10,11)          58.8065         estimate D2E/DX2                !
 ! D80   D(33,9,10,34)         -63.0132         estimate D2E/DX2                !
 ! D81   D(33,9,10,35)        -178.6859         estimate D2E/DX2                !
 ! D82   D(9,10,11,12)          60.3885         estimate D2E/DX2                !
 ! D83   D(9,10,11,13)        -179.5907         estimate D2E/DX2                !
 ! D84   D(9,10,11,36)         -61.9924         estimate D2E/DX2                !
 ! D85   D(34,10,11,12)       -177.6088         estimate D2E/DX2                !
 ! D86   D(34,10,11,13)        -57.5881         estimate D2E/DX2                !
 ! D87   D(34,10,11,36)         60.0103         estimate D2E/DX2                !
 ! D88   D(35,10,11,12)        -62.3134         estimate D2E/DX2                !
 ! D89   D(35,10,11,13)         57.7073         estimate D2E/DX2                !
 ! D90   D(35,10,11,36)        175.3057         estimate D2E/DX2                !
 ! D91   D(10,11,12,37)         59.118          estimate D2E/DX2                !
 ! D92   D(10,11,12,38)        -62.4644         estimate D2E/DX2                !
 ! D93   D(10,11,12,39)        177.9108         estimate D2E/DX2                !
 ! D94   D(13,11,12,37)        -59.2954         estimate D2E/DX2                !
 ! D95   D(13,11,12,38)        179.1222         estimate D2E/DX2                !
 ! D96   D(13,11,12,39)         59.4974         estimate D2E/DX2                !
 ! D97   D(36,11,12,37)       -179.2822         estimate D2E/DX2                !
 ! D98   D(36,11,12,38)         59.1354         estimate D2E/DX2                !
 ! D99   D(36,11,12,39)        -60.4894         estimate D2E/DX2                !
 ! D100  D(10,11,13,14)        170.3232         estimate D2E/DX2                !
 ! D101  D(12,11,13,14)        -68.3702         estimate D2E/DX2                !
 ! D102  D(36,11,13,14)         52.5775         estimate D2E/DX2                !
 ! D103  D(11,13,14,40)        171.5472         estimate D2E/DX2                !
 --------------------------------------------------------------------------------
 Trust Radius=3.00D-01 FncErr=1.00D-07 GrdErr=1.00D-06 EigMax=2.50D+02 EigMin=1.00D-04
 Number of steps in this run=    226 maximum allowed number of steps=    240.
 GradGradGradGradGradGradGradGradGradGradGradGradGradGradGradGradGradGrad

                          Input orientation:                          
 ---------------------------------------------------------------------
 Center     Atomic      Atomic             Coordinates (Angstroms)
 Number     Number       Type             X           Y           Z
 ---------------------------------------------------------------------
      1          6           0        0.949210   -0.104320   -0.011470
      2          6           0        2.475580   -0.137110   -0.031200
      3          6           0        2.959920   -1.492640   -0.550220
      4          6           0        3.003030    1.023650   -0.884080
      5          6           0        4.524600    1.075510   -0.895420
      6          6           0        5.018940    2.223150   -1.755240
      7          6           0        6.536570    2.227060   -1.763600
      8          6           0        7.047680    3.369460   -2.624050
      9          6           0        8.564190    3.355160   -2.622930
     10          6           0        9.129070    4.466040   -3.496300
     11          6           0       10.660460    4.448210   -3.525010
     12          6           0       11.199490    3.132780   -4.083420
     13          8           0       11.075870    5.534850   -4.363140
     14          8           0       12.517490    5.646060   -4.191900
     15          1           0        0.553790   -0.909140    0.615740
     16          1           0        0.540460   -0.225440   -1.020570
     17          1           0        0.584490    0.846960    0.389940
     18          1           0        2.836920   -0.009080    0.997270
     19          1           0        2.654850   -1.644840   -1.591130
     20          1           0        2.551860   -2.308660    0.052790
     21          1           0        4.049420   -1.580930   -0.501380
     22          1           0        2.616460    1.973400   -0.491210
     23          1           0        2.630590    0.934060   -1.912590
     24          1           0        4.939900    0.147720   -1.301710
     25          1           0        4.902060    1.181110    0.129010
     26          1           0        4.641190    3.177190   -1.370770
     27          1           0        4.644570    2.108120   -2.779950
     28          1           0        6.910080    1.269820   -2.151650
     29          1           0        6.918340    2.326170   -0.739670
     30          1           0        6.674850    4.326210   -2.242020
     31          1           0        6.674670    3.253850   -3.649170
     32          1           0        8.886580    2.375480   -2.989780
     33          1           0        8.941560    3.459210   -1.598440
     34          1           0        8.780760    5.441070   -3.129940
     35          1           0        8.736390    4.381050   -4.518070
     36          1           0       11.040260    4.617890   -2.510080
     37          1           0       10.830870    2.968900   -5.101570
     38          1           0       10.918690    2.276220   -3.464940
     39          1           0       12.291540    3.144060   -4.134150
     40          1           0       12.653390    6.300410   -4.906390
 ---------------------------------------------------------------------
                    Distance matrix (angstroms):
                    1          2          3          4          5
     1  C    0.000000
     2  C    1.526850   0.000000
     3  C    2.502127   1.530173   0.000000
     4  C    2.500388   1.533940   2.538708   0.000000
     5  C    3.867400   2.532944   3.027009   1.522496   0.000000
     6  C    5.002055   3.874509   4.415737   2.502322   1.516819
     7  C    6.302689   5.008208   5.301027   3.835056   2.475445
     8  C    7.488929   6.318465   6.682108   4.988939   3.823127
     9  C    8.762171   7.482258   7.694487   6.275830   4.949685
    10  C    9.997117   8.801411   9.068829   7.496807   6.281832
    11  C   11.286225  10.011200  10.170614   8.794223   7.479213
    12  C   11.494687  10.159689  10.088039   9.047992   7.677881
    13  O   12.380893  11.175948  11.392656   9.880563   8.650430
    14  O   13.578217  12.312450  12.472771  11.083018   9.779724
    15  H    1.094296   2.169755   2.736676   3.461779   4.689325
    16  H    1.095459   2.175165   2.771428   2.764617   4.193031
    17  H    1.095027   2.173010   3.464144   2.739285   4.150765
    18  H    2.142446   1.097592   2.147278   2.152580   2.758056
    19  H    2.788859   2.176871   1.095320   2.782443   3.373467
    20  H    2.726120   2.174512   1.093628   3.490784   4.030312
    21  H    3.468673   2.186929   1.094162   2.832883   2.727221
    22  H    2.706805   2.164650   3.483515   1.098093   2.147229
    23  H    2.742176   2.170498   2.802389   1.097529   2.154511
    24  H    4.201648   2.787149   2.678776   2.166364   1.094687
    25  H    4.158977   2.766076   3.373752   2.158115   1.096852
    26  H    5.123155   4.179581   5.030634   2.749213   2.157918
    27  H    5.120064   4.159471   4.557984   2.732225   2.152238
    28  H    6.480787   5.112783   5.079324   4.114896   2.703033
    29  H    6.485990   5.129112   5.503480   4.128809   2.705254
    30  H    7.575480   6.514815   7.107876   5.121832   4.123585
    31  H    7.569086   6.497744   6.777317   5.108860   4.117172
    32  H    8.832983   7.494480   7.485927   6.393557   5.010303
    33  H    8.893530   7.562979   7.835790   6.458204   5.068116
    34  H   10.090063   8.970707   9.413473   7.611810   6.493542
    35  H   10.053266   8.929922   9.143942   7.572941   6.464469
    36  H   11.418039  10.104881  10.318504   8.953184   7.590086
    37  H   11.532606  10.255088  10.127783   9.101994   7.813173
    38  H   10.815912   9.428724   9.275878   8.419468   6.994893
    39  H   12.497876  11.133434  11.019196  10.066554   8.665658
    40  H   14.211567  12.992188  13.178437  11.711218  10.462537
                    6          7          8          9         10
     6  C    0.000000
     7  C    1.517658   0.000000
     8  C    2.486894   1.518778   0.000000
     9  C    3.821404   2.474328   1.516578   0.000000
    10  C    4.995499   3.838794   2.509082   1.521814   0.000000
    11  C    6.317414   5.004252   3.876546   2.530386   1.531763
    12  C    6.666862   5.286276   4.407188   3.021141   2.531587
    13  O    7.379356   6.189049   4.892817   3.753387   2.384071
    14  O    8.595457   7.304629   6.128612   4.830991   3.654818
    15  H    5.947298   7.161750   8.424563   9.635338  10.924141
    16  H    5.156754   6.520750   7.605154   8.931321  10.094724
    17  H    5.114689   6.478400   7.564388   8.890673  10.060340
    18  H    4.161775   5.129341   6.500692   7.564759   8.933646
    19  H    4.536210   5.485354   6.745894   7.809284   9.104288
    20  H    5.467427   6.304756   7.721329   8.682537  10.087234
    21  H    4.121063   4.720159   6.164548   7.017771   8.446197
    22  H    2.726180   4.129235   5.112113   6.467533   7.593281
    23  H    2.718589   4.117126   5.093921   6.447784   7.563945
    24  H    2.125875   2.662020   4.070741   5.016849   6.404159
    25  H    2.156364   2.710647   4.119697   5.070588   6.465389
    26  H    1.095767   2.156276   2.720087   4.121833   5.130310
    27  H    1.097003   2.150995   2.718496   4.116210   5.117000
    28  H    2.154620   1.098363   2.156521   2.703114   4.116773
    29  H    2.156320   1.097271   2.157793   2.704498   4.131026
    30  H    2.720635   2.157415   1.095591   2.158156   2.759704
    31  H    2.718594   2.151451   1.096984   2.152607   2.741688
    32  H    4.062749   2.654824   2.122100   1.094663   2.164672
    33  H    4.115748   2.707295   2.155623   1.096729   2.156557
    34  H    5.137713   4.151281   2.747919   2.157541   1.098282
    35  H    5.109716   4.131100   2.731733   2.161865   1.097923
    36  H    6.523868   5.153302   4.184765   2.781752   2.156000
    37  H    6.747785   5.489388   4.539943   3.380931   2.777489
    38  H    6.142714   4.701058   4.109378   2.723373   2.828256
    39  H    7.707010   6.291270   5.461618   4.027591   3.486503
    40  H    9.210788   7.992797   6.724844   5.532653   4.215934
                   11         12         13         14         15
    11  C    0.000000
    12  C    1.527328   0.000000
    13  O    1.433811   2.421459   0.000000
    14  O    2.308278   2.839977   1.456008   0.000000
    15  H   12.165188  12.318691  13.305203  14.464238   0.000000
    16  H   11.424956  11.587649  12.463891  13.710620   1.773453
    17  H   11.393902  11.743685  12.435318  13.653612   1.770823
    18  H   10.076022  10.277026  11.284921  12.354009   2.483617
    19  H   10.244752  10.101883  11.408136  12.537659   3.134642
    20  H   11.144745  11.022659  12.396767  13.439075   2.503568
    21  H    9.444507   9.282972  10.720005  11.728492   3.730776
    22  H    8.946204   9.376382   9.961796  11.189903   3.713352
    23  H    8.912237   9.108947   9.924476  11.187001   3.755388
    24  H    7.494137   7.472012   8.720301   9.798204   4.902196
    25  H    7.562075   7.823759   8.789220   9.828571   4.849072
    26  H    6.518271   7.097305   7.477830   8.722969   6.111559
    27  H    6.497851   6.761356   7.457251   8.746056   6.113023
    28  H    5.104276   5.059782   6.358850   7.399807   7.266962
    29  H    5.124903   5.491769   6.380456   7.368178   7.267177
    30  H    4.188799   5.028658   5.032786   6.299244   8.546523
    31  H    4.162743   4.547222   5.008321   6.336858   8.543133
    32  H    2.780167   2.668165   4.081755   5.032424   9.655252
    33  H    2.764853   3.373415   4.062896   4.929059   9.712866
    34  H    2.162203   3.476720   2.607126   3.890107  11.047096
    35  H    2.166270   2.795346   2.613125   4.000419  11.013494
    36  H    1.096869   2.169402   2.067829   2.463303  12.259073
    37  H    2.168626   1.095156   2.681306   3.292320  12.383263
    38  H    2.188111   1.093189   3.383805   3.800060  11.585751
    39  H    2.175381   1.093286   2.691871   2.512845  13.295287
    40  H    3.051332   3.581199   1.835694   0.978335  15.128511
                   16         17         18         19         20
    16  H    0.000000
    17  H    1.772433   0.000000
    18  H    3.064673   2.484974   0.000000
    19  H    2.609766   3.797380   3.067356   0.000000
    20  H    3.088307   3.733919   2.502273   1.775876   0.000000
    21  H    3.797330   4.323753   2.487332   1.771007   1.754817
    22  H    3.069999   2.484793   2.488856   3.781925   4.316960
    23  H    2.551232   3.081518   3.065839   2.598971   3.792644
    24  H    4.424179   4.724427   3.119683   2.918645   3.683912
    25  H    4.724772   4.338335   2.536776   3.999353   4.208057
    26  H    5.340086   4.998688   4.360656   5.219778   6.040395
    27  H    5.038317   5.303110   4.692284   4.411008   5.649053
    28  H    6.639820   6.830196   5.304895   5.188103   6.054681
    29  H    6.875098   6.601647   5.012818   5.888230   6.416836
    30  H    7.735645   7.491654   6.634564   7.227551   8.141664
    31  H    7.526190   7.694012   6.853061   6.662706   7.851343
    32  H    8.961043   9.093051   7.627652   7.546764   8.445536
    33  H    9.191793   8.978760   7.485544   8.097784   8.764882
    34  H   10.220632  10.033656   9.059097   9.492356  10.439697
    35  H   10.031227  10.150459   9.192169   9.047843  10.192811
    36  H   11.658571  11.487086  10.050131  10.506253  11.251592
    37  H   11.521758  11.817259  10.486537  10.022828  11.088826
    38  H   10.951754  11.121986   9.510464   9.336859  10.168549
    39  H   12.614904  12.759274  11.209978  11.057410  11.921577
    40  H   14.297181  14.263575  13.077689  13.194270  14.168644
                   21         22         23         24         25
    21  H    0.000000
    22  H    3.832328   0.000000
    23  H    3.213995   1.760894   0.000000
    24  H    2.102787   3.064048   2.514839   0.000000
    25  H    2.958589   2.497271   3.064105   1.765301   0.000000
    26  H    4.872960   2.514412   3.060672   3.044944   2.510324
    27  H    4.376663   3.060998   2.487337   2.472970   3.063935
    28  H    4.362745   4.656958   4.299293   2.421387   3.039971
    29  H    4.853135   4.323465   4.658166   2.995957   2.476116
    30  H    6.694551   5.007153   5.288785   4.621040   4.319285
    31  H    6.338424   5.299182   4.975110   4.262398   4.659725
    32  H    6.726324   6.761577   6.509642   4.836195   5.199016
    33  H    7.109120   6.590939   6.804661   5.202624   4.948877
    34  H    8.865855   7.548922   7.721378   6.790743   6.619088
    35  H    8.581765   7.711415   7.480044   6.532947   6.821807
    36  H    9.556782   9.057018   9.200551   7.658784   7.513571
    37  H    9.372874   9.472221   9.030767   7.556555   8.105921
    38  H    8.417076   8.823933   8.538371   6.704924   7.093348
    39  H   10.171288  10.404260  10.156445   8.428961   8.753977
    40  H   12.471886  11.787994  11.756576  10.504629  10.566248
                   26         27         28         29         30
    26  H    0.000000
    27  H    1.768816   0.000000
    28  H    3.065240   2.496005   0.000000
    29  H    2.511560   3.062731   1.763415   0.000000
    30  H    2.493010   3.054722   3.066760   2.513265   0.000000
    31  H    3.054836   2.487880   2.496870   3.063520   1.769188
    32  H    4.613813   4.255603   2.414850   2.989882   3.042407
    33  H    4.315617   4.656773   3.037496   2.472789   2.510749
    34  H    5.035461   5.323450   4.675021   4.345642   2.542867
    35  H    5.303342   4.993021   4.314522   4.669491   3.071377
    36  H    6.657458   6.875800   5.328830   5.037515   4.383348
    37  H    7.230103   6.663420   5.192446   5.894673   5.224157
    38  H    6.678645   6.313640   4.336649   4.840702   4.869104
    39  H    8.134201   7.834742   6.033506   6.408020   6.043579
    40  H    9.297874   9.286455   8.116713   8.126927   6.836613
                   31         32         33         34         35
    31  H    0.000000
    32  H    2.469590   0.000000
    33  H    3.063732   1.764460   0.000000
    34  H    3.080446   3.070616   2.509804   0.000000
    35  H    2.505246   2.525973   3.068570   1.747145   0.000000
    36  H    4.713439   3.145926   2.564794   2.483383   3.065279
    37  H    4.411877   2.931223   4.010214   3.768541   2.592583
    38  H    4.359060   2.089282   2.965186   3.833959   3.209646
    39  H    5.638837   3.673425   4.213254   4.313962   3.783732
    40  H    6.826948   5.767784   5.726485   4.346436   4.379226
                   36         37         38         39         40
    36  H    0.000000
    37  H    3.078771   0.000000
    38  H    2.531789   1.779347   0.000000
    39  H    2.524971   1.760721   1.756618   0.000000
    40  H    3.342957   3.802451   4.613141   3.269531   0.000000
 Stoichiometry    C12H26O2
 Framework group  C1[X(C12H26O2)]
 Deg. of freedom   114
 Full point group                 C1      NOp   1
 Largest Abelian subgroup         C1      NOp   1
 Largest concise Abelian subgroup C1      NOp   1
                         Standard orientation:                         
 ---------------------------------------------------------------------
 Center     Atomic      Atomic             Coordinates (Angstroms)
 Number     Number       Type             X           Y           Z
 ---------------------------------------------------------------------
      1          6           0       -6.760282   -0.622845    0.112133
      2          6           0       -5.514308    0.140108   -0.331402
      3          6           0       -5.561400    1.571266    0.208040
      4          6           0       -4.260083   -0.607451    0.138752
      5          6           0       -2.982117    0.078825   -0.323658
      6          6           0       -1.758759   -0.673017    0.165082
      7          6           0       -0.507008    0.053342   -0.291872
      8          6           0        0.727945   -0.685832    0.193101
      9          6           0        1.967221    0.055770   -0.269749
     10          6           0        3.236298   -0.629673    0.215566
     11          6           0        4.496293    0.122752   -0.223258
     12          6           0        4.525862    1.545808    0.330606
     13          8           0        5.619494   -0.613980    0.278197
     14          8           0        6.797076   -0.021686   -0.340227
     15          1           0       -7.666473   -0.119494   -0.238495
     16          1           0       -6.809696   -0.693746    1.204177
     17          1           0       -6.760228   -1.639848   -0.293809
     18          1           0       -5.507252    0.181785   -1.428180
     19          1           0       -5.529072    1.578070    1.302862
     20          1           0       -6.474908    2.078824   -0.114310
     21          1           0       -4.723091    2.171519   -0.158192
     22          1           0       -4.275792   -1.633454   -0.252248
     23          1           0       -4.258637   -0.688162    1.233309
     24          1           0       -2.928191    1.099647    0.067946
     25          1           0       -2.970721    0.147993   -1.418268
     26          1           0       -1.762408   -1.698378   -0.221345
     27          1           0       -1.771841   -0.732427    1.260397
     28          1           0       -0.507095    1.079539    0.099690
     29          1           0       -0.494873    0.130281   -1.386375
     30          1           0        0.730407   -1.711156   -0.192935
     31          1           0        0.715853   -0.744072    1.288471
     32          1           0        1.907660    1.076653    0.120811
     33          1           0        1.977813    0.126252   -1.364160
     34          1           0        3.272594   -1.658932   -0.165920
     35          1           0        3.220934   -0.724277    1.309297
     36          1           0        4.542188    0.137053   -1.319074
     37          1           0        4.492903    1.531860    1.425178
     38          1           0        3.693117    2.149790   -0.039261
     39          1           0        5.445624    2.061918    0.042607
     40          1           0        7.450649   -0.516217    0.194020
 ---------------------------------------------------------------------
 Rotational constants (GHZ):           3.0300136           0.1232499           0.1203235
 Standard basis: 6-31G(2df,p) (6D, 7F)
 There are   564 symmetry adapted cartesian basis functions of A   symmetry.
 There are   522 symmetry adapted basis functions of A   symmetry.
   522 basis functions,   798 primitive gaussians,   564 cartesian basis functions
    57 alpha electrons       57 beta electrons
       nuclear repulsion energy       888.2098882287 Hartrees.
 NAtoms=   40 NActive=   40 NUniq=   40 SFac= 1.00D+00 NAtFMM=   60 NAOKFM=F Big=F
 Integral buffers will be    131072 words long.
 Raffenetti 2 integral format.
 Two-electron integral symmetry is turned on.
 One-electron integrals computed using PRISM.
 PrsmSu:  requested number of processors reduced to:  12 ShMem   1 Linda.
 NBasis=   522 RedAO= T EigKep=  4.38D-04  NBF=   522
 NBsUse=   522 1.00D-06 EigRej= -1.00D+00 NBFU=   522
 ExpMin= 1.61D-01 ExpMax= 5.48D+03 ExpMxC= 8.25D+02 IAcc=3 IRadAn=         5 AccDes= 0.00D+00
 Harris functional with IExCor=  402 and IRadAn=       5 diagonalized for initial guess.
 HarFok:  IExCor=  402 AccDes= 0.00D+00 IRadAn=         5 IDoV= 1 UseB2=F ITyADJ=14
 ICtDFT=  3500011 ScaDFX=  1.000000  1.000000  1.000000  1.000000
 FoFCou: FMM=F IPFlag=           0 FMFlag=      100000 FMFlg1=           0
         NFxFlg=           0 DoJE=T BraDBF=F KetDBF=T FulRan=T
         wScrn=  0.000000 ICntrl=       500 IOpCl=  0 I1Cent=   200000004 NGrid=           0
         NMat0=    1 NMatS0=      1 NMatT0=    0 NMatD0=    1 NMtDS0=    0 NMtDT0=    0
 Petite list used in FoFCou.
 Requested convergence on RMS density matrix=1.00D-08 within 128 cycles.
 Requested convergence on MAX density matrix=1.00D-06.
 Requested convergence on             energy=1.00D-06.
 No special actions if energy rises.
 Integral accuracy reduced to 1.0D-05 until final iterations.
 Initial convergence to 1.0D-05 achieved.  Increase integral accuracy.
 SCF Done:  E(RB3LYP) =  -623.352771754     A.U. after   12 cycles
            NFock= 12  Conv=0.63D-08     -V/T= 2.0078

 **********************************************************************

            Population analysis using the SCF density.

 **********************************************************************

 Orbital symmetries:
       Occupied  (A) (A) (A) (A) (A) (A) (A) (A) (A) (A) (A) (A)
                 (A) (A) (A) (A) (A) (A) (A) (A) (A) (A) (A) (A)
                 (A) (A) (A) (A) (A) (A) (A) (A) (A) (A) (A) (A)
                 (A) (A) (A) (A) (A) (A) (A) (A) (A) (A) (A) (A)
                 (A) (A) (A) (A) (A) (A) (A) (A) (A)
       Virtual   (A) (A) (A) (A) (A) (A) (A) (A) (A) (A) (A) (A)
                 (A) (A) (A) (A) (A) (A) (A) (A) (A) (A) (A) (A)
                 (A) (A) (A) (A) (A) (A) (A) (A) (A) (A) (A) (A)
                 (A) (A) (A) (A) (A) (A) (A) (A) (A) (A) (A) (A)
                 (A) (A) (A) (A) (A) (A) (A) (A) (A) (A) (A) (A)
                 (A) (A) (A) (A) (A) (A) (A) (A) (A) (A) (A) (A)
                 (A) (A) (A) (A) (A) (A) (A) (A) (A) (A) (A) (A)
                 (A) (A) (A) (A) (A) (A) (A) (A) (A) (A) (A) (A)
                 (A) (A) (A) (A) (A) (A) (A) (A) (A) (A) (A) (A)
                 (A) (A) (A) (A) (A) (A) (A) (A) (A) (A) (A) (A)
                 (A) (A) (A) (A) (A) (A) (A) (A) (A) (A) (A) (A)
                 (A) (A) (A) (A) (A) (A) (A) (A) (A) (A) (A) (A)
                 (A) (A) (A) (A) (A) (A) (A) (A) (A) (A) (A) (A)
                 (A) (A) (A) (A) (A) (A) (A) (A) (A) (A) (A) (A)
                 (A) (A) (A) (A) (A) (A) (A) (A) (A) (A) (A) (A)
                 (A) (A) (A) (A) (A) (A) (A) (A) (A) (A) (A) (A)
                 (A) (A) (A) (A) (A) (A) (A) (A) (A) (A) (A) (A)
                 (A) (A) (A) (A) (A) (A) (A) (A) (A) (A) (A) (A)
                 (A) (A) (A) (A) (A) (A) (A) (A) (A) (A) (A) (A)
                 (A) (A) (A) (A) (A) (A) (A) (A) (A) (A) (A) (A)
                 (A) (A) (A) (A) (A) (A) (A) (A) (A) (A) (A) (A)
                 (A) (A) (A) (A) (A) (A) (A) (A) (A) (A) (A) (A)
                 (A) (A) (A) (A) (A) (A) (A) (A) (A) (A) (A) (A)
                 (A) (A) (A) (A) (A) (A) (A) (A) (A) (A) (A) (A)
                 (A) (A) (A) (A) (A) (A) (A) (A) (A) (A) (A) (A)
                 (A) (A) (A) (A) (A) (A) (A) (A) (A) (A) (A) (A)
                 (A) (A) (A) (A) (A) (A) (A) (A) (A) (A) (A) (A)
                 (A) (A) (A) (A) (A) (A) (A) (A) (A) (A) (A) (A)
                 (A) (A) (A) (A) (A) (A) (A) (A) (A) (A) (A) (A)
                 (A) (A) (A) (A) (A) (A) (A) (A) (A) (A) (A) (A)
                 (A) (A) (A) (A) (A) (A) (A) (A) (A) (A) (A) (A)
                 (A) (A) (A) (A) (A) (A) (A) (A) (A) (A) (A) (A)
                 (A) (A) (A) (A) (A) (A) (A) (A) (A) (A) (A) (A)
                 (A) (A) (A) (A) (A) (A) (A) (A) (A) (A) (A) (A)
                 (A) (A) (A) (A) (A) (A) (A) (A) (A) (A) (A) (A)
                 (A) (A) (A) (A) (A) (A) (A) (A) (A) (A) (A) (A)
                 (A) (A) (A) (A) (A) (A) (A) (A) (A) (A) (A) (A)
                 (A) (A) (A) (A) (A) (A) (A) (A) (A) (A) (A) (A)
                 (A) (A) (A) (A) (A) (A) (A) (A) (A)
 The electronic state is 1-A.
 Alpha  occ. eigenvalues --  -19.18122 -19.17936 -10.22775 -10.17831 -10.17758
 Alpha  occ. eigenvalues --  -10.17570 -10.17190 -10.17044 -10.16879 -10.16846
 Alpha  occ. eigenvalues --  -10.16768 -10.16606 -10.16474 -10.16449  -1.10063
 Alpha  occ. eigenvalues --   -0.90214  -0.81966  -0.80533  -0.77741  -0.74192
 Alpha  occ. eigenvalues --   -0.70726  -0.67681  -0.66866  -0.62104  -0.58109
 Alpha  occ. eigenvalues --   -0.57806  -0.56508  -0.55067  -0.50815  -0.48773
 Alpha  occ. eigenvalues --   -0.47665  -0.46750  -0.45223  -0.43710  -0.43439
 Alpha  occ. eigenvalues --   -0.42679  -0.41143  -0.40713  -0.39630  -0.38385
 Alpha  occ. eigenvalues --   -0.37804  -0.37498  -0.36874  -0.35761  -0.35196
 Alpha  occ. eigenvalues --   -0.34644  -0.34362  -0.33317  -0.33013  -0.32834
 Alpha  occ. eigenvalues --   -0.32316  -0.31942  -0.31799  -0.31675  -0.31181
 Alpha  occ. eigenvalues --   -0.27932  -0.22887
 Alpha virt. eigenvalues --    0.03841   0.08333   0.08899   0.09140   0.10403
 Alpha virt. eigenvalues --    0.10550   0.11356   0.12313   0.12755   0.13078
 Alpha virt. eigenvalues --    0.14708   0.15344   0.15621   0.16199   0.16712
 Alpha virt. eigenvalues --    0.17063   0.17169   0.17788   0.18495   0.19361
 Alpha virt. eigenvalues --    0.19703   0.20145   0.20469   0.20700   0.21143
 Alpha virt. eigenvalues --    0.21843   0.22323   0.23059   0.23579   0.23822
 Alpha virt. eigenvalues --    0.24319   0.24902   0.25612   0.26124   0.27299
 Alpha virt. eigenvalues --    0.28500   0.28674   0.34192   0.35818   0.40942
 Alpha virt. eigenvalues --    0.45604   0.47311   0.47672   0.48153   0.48461
 Alpha virt. eigenvalues --    0.49016   0.50423   0.51350   0.51902   0.52730
 Alpha virt. eigenvalues --    0.53303   0.54850   0.55160   0.56458   0.57234
 Alpha virt. eigenvalues --    0.58273   0.59614   0.60378   0.60701   0.61814
 Alpha virt. eigenvalues --    0.62420   0.62910   0.63432   0.64723   0.65470
 Alpha virt. eigenvalues --    0.66105   0.66510   0.67645   0.68243   0.69198
 Alpha virt. eigenvalues --    0.69901   0.71064   0.71673   0.72565   0.73015
 Alpha virt. eigenvalues --    0.73490   0.73969   0.74202   0.74604   0.75125
 Alpha virt. eigenvalues --    0.75461   0.76225   0.76575   0.77039   0.77362
 Alpha virt. eigenvalues --    0.78230   0.78881   0.79608   0.80067   0.81276
 Alpha virt. eigenvalues --    0.81328   0.81703   0.82117   0.83048   0.83490
 Alpha virt. eigenvalues --    0.83539   0.85440   0.86157   0.86515   0.87240
 Alpha virt. eigenvalues --    0.87610   0.88394   0.89137   0.89552   0.90389
 Alpha virt. eigenvalues --    0.90929   0.92083   0.93930   0.94880   0.98946
 Alpha virt. eigenvalues --    0.98990   1.01830   1.03737   1.05971   1.07288
 Alpha virt. eigenvalues --    1.09243   1.09658   1.10682   1.12036   1.12997
 Alpha virt. eigenvalues --    1.14543   1.15887   1.17869   1.20004   1.20584
 Alpha virt. eigenvalues --    1.21538   1.23375   1.24168   1.25025   1.25544
 Alpha virt. eigenvalues --    1.26087   1.27412   1.28676   1.32821   1.33290
 Alpha virt. eigenvalues --    1.34158   1.36214   1.37443   1.38710   1.39491
 Alpha virt. eigenvalues --    1.40496   1.41450   1.41876   1.44077   1.45511
 Alpha virt. eigenvalues --    1.45817   1.47758   1.48806   1.50397   1.51704
 Alpha virt. eigenvalues --    1.53214   1.54369   1.55739   1.56125   1.56802
 Alpha virt. eigenvalues --    1.58088   1.61202   1.62333   1.62893   1.64501
 Alpha virt. eigenvalues --    1.66323   1.68106   1.68539   1.70218   1.70858
 Alpha virt. eigenvalues --    1.71888   1.73128   1.73363   1.75961   1.79621
 Alpha virt. eigenvalues --    1.81933   1.83874   1.84241   1.85414   1.85972
 Alpha virt. eigenvalues --    1.86772   1.87443   1.88598   1.88936   1.90036
 Alpha virt. eigenvalues --    1.92166   1.93726   1.93895   1.94727   1.94925
 Alpha virt. eigenvalues --    1.95937   1.96645   1.97253   1.99347   2.00136
 Alpha virt. eigenvalues --    2.02283   2.03105   2.07114   2.13778   2.15202
 Alpha virt. eigenvalues --    2.16967   2.18162   2.20286   2.20625   2.21909
 Alpha virt. eigenvalues --    2.23062   2.23656   2.26215   2.27346   2.28321
 Alpha virt. eigenvalues --    2.29614   2.30581   2.30921   2.33565   2.35191
 Alpha virt. eigenvalues --    2.38866   2.39331   2.41906   2.43149   2.46117
 Alpha virt. eigenvalues --    2.46384   2.47410   2.49969   2.52527   2.55220
 Alpha virt. eigenvalues --    2.57610   2.60936   2.62394   2.63380   2.65142
 Alpha virt. eigenvalues --    2.66254   2.70533   2.71945   2.73867   2.74409
 Alpha virt. eigenvalues --    2.74626   2.74899   2.75909   2.76540   2.77434
 Alpha virt. eigenvalues --    2.78334   2.78811   2.80208   2.80666   2.81106
 Alpha virt. eigenvalues --    2.82026   2.82437   2.82986   2.83930   2.84439
 Alpha virt. eigenvalues --    2.85149   2.85737   2.87039   2.88023   2.89155
 Alpha virt. eigenvalues --    2.90171   2.91148   2.91730   2.92508   2.93117
 Alpha virt. eigenvalues --    2.93772   2.94333   2.95126   2.95891   2.96343
 Alpha virt. eigenvalues --    2.96988   2.97874   2.98487   2.99109   2.99632
 Alpha virt. eigenvalues --    3.01973   3.02797   3.04382   3.06372   3.07746
 Alpha virt. eigenvalues --    3.08165   3.12591   3.13150   3.14774   3.16161
 Alpha virt. eigenvalues --    3.17015   3.17662   3.20785   3.23628   3.23995
 Alpha virt. eigenvalues --    3.24612   3.25714   3.27597   3.29020   3.29332
 Alpha virt. eigenvalues --    3.34111   3.35480   3.38606   3.39271   3.40558
 Alpha virt. eigenvalues --    3.41771   3.43758   3.44501   3.47650   3.48227
 Alpha virt. eigenvalues --    3.49913   3.51422   3.53384   3.54439   3.55256
 Alpha virt. eigenvalues --    3.56260   3.58243   3.59119   3.60533   3.62732
 Alpha virt. eigenvalues --    3.62995   3.64734   3.65814   3.67110   3.67626
 Alpha virt. eigenvalues --    3.68418   3.69363   3.70824   3.71430   3.74942
 Alpha virt. eigenvalues --    3.75570   3.76035   3.76759   3.78755   3.80058
 Alpha virt. eigenvalues --    3.81237   3.81443   3.82060   3.82979   3.84564
 Alpha virt. eigenvalues --    3.86581   3.90628   3.91168   3.94190   3.95995
 Alpha virt. eigenvalues --    3.98222   4.00845   4.01505   4.04076   4.06308
 Alpha virt. eigenvalues --    4.11532   4.12700   4.14933   4.17326   4.17751
 Alpha virt. eigenvalues --    4.20141   4.25598   4.28046   4.28757   4.31641
 Alpha virt. eigenvalues --    4.35698   4.37515   4.38151   4.39788   4.41654
 Alpha virt. eigenvalues --    4.41944   4.43790   4.44573   4.45333   4.46380
 Alpha virt. eigenvalues --    4.48142   4.49864   4.50727   4.51821   4.51948
 Alpha virt. eigenvalues --    4.54124   4.54742   4.55176   4.55697   4.55805
 Alpha virt. eigenvalues --    4.57858   4.59033   4.59536   4.59683   4.61144
 Alpha virt. eigenvalues --    4.61230   4.62709   4.63226   4.64036   4.64346
 Alpha virt. eigenvalues --    4.65464   4.65800   4.66630   4.66896   4.68592
 Alpha virt. eigenvalues --    4.68770   4.69506   4.71251   4.72477   4.72796
 Alpha virt. eigenvalues --    4.73389   4.73937   4.75196   4.76344   4.76991
 Alpha virt. eigenvalues --    4.77933   4.79076   4.79871   4.80696   4.80973
 Alpha virt. eigenvalues --    4.82494   4.83596   4.84314   4.84530   4.85885
 Alpha virt. eigenvalues --    4.86233   4.87662   4.88397   4.88539   4.91159
 Alpha virt. eigenvalues --    4.92141   4.93203   4.93646   4.94789   4.95453
 Alpha virt. eigenvalues --    4.96922   4.97141   4.98115   5.01841   5.02812
 Alpha virt. eigenvalues --    5.04444   5.08523   5.13841   5.20818   5.22679
 Alpha virt. eigenvalues --    5.25360   5.27383   5.29416   5.33922   5.35383
 Alpha virt. eigenvalues --    5.37415   5.40906   5.41224   5.44503   5.46865
 Alpha virt. eigenvalues --    5.49181   5.50474   5.51259   5.51618   5.54208
 Alpha virt. eigenvalues --    5.55105   5.58861   5.61209   5.66399   5.68887
 Alpha virt. eigenvalues --    5.71518   5.78589   5.87851   5.91405   6.08527
 Alpha virt. eigenvalues --    6.13640   6.23381   6.33954   6.48337   6.81044
 Alpha virt. eigenvalues --    7.15653  11.13909  11.26625  11.42935  11.64288
 Alpha virt. eigenvalues --   11.83430  11.91121  12.15123  12.28913  12.32911
 Alpha virt. eigenvalues --   12.38987  12.53745  12.69116  13.01434  13.46438
          Condensed to atoms (all electrons):
               1          2          3          4          5          6
     1  C    5.010208   0.401652  -0.045579  -0.034067   0.002299  -0.000164
     2  C    0.401652   4.578839   0.415326   0.429432  -0.030513   0.002081
     3  C   -0.045579   0.415326   4.987544  -0.033754  -0.004360   0.000590
     4  C   -0.034067   0.429432  -0.033754   4.823434   0.427251  -0.036158
     5  C    0.002299  -0.030513  -0.004360   0.427251   4.807624   0.426142
     6  C   -0.000164   0.002081   0.000590  -0.036158   0.426142   4.811318
     7  C    0.000001  -0.000149   0.000008   0.002143  -0.038068   0.426308
     8  C   -0.000000   0.000001   0.000000  -0.000172   0.002110  -0.038621
     9  C    0.000000  -0.000000   0.000000   0.000001  -0.000173   0.002101
    10  C   -0.000000   0.000000  -0.000000  -0.000000   0.000001  -0.000172
    11  C    0.000000  -0.000000   0.000000   0.000000  -0.000000   0.000000
    12  C    0.000000   0.000000  -0.000000  -0.000000   0.000000   0.000000
    13  O    0.000000   0.000000   0.000000  -0.000000   0.000000  -0.000000
    14  O    0.000000   0.000000   0.000000   0.000000  -0.000000   0.000000
    15  H    0.366800  -0.021206  -0.003387   0.003768  -0.000175   0.000001
    16  H    0.372976  -0.024845  -0.006148  -0.006885   0.000194   0.000002
    17  H    0.367667  -0.022367   0.005163  -0.003498   0.000180   0.000005
    18  H   -0.043064   0.365139  -0.048379  -0.043298  -0.004015   0.000126
    19  H   -0.005117  -0.026564   0.372515  -0.006872  -0.000320  -0.000058
    20  H   -0.004529  -0.024795   0.370884   0.004084   0.000144  -0.000009
    21  H    0.005108  -0.023100   0.370909  -0.003332  -0.000765  -0.000065
    22  H   -0.003943  -0.028657   0.005356   0.356508  -0.032267  -0.002487
    23  H   -0.004384  -0.028438  -0.009122   0.356878  -0.033664  -0.003323
    24  H    0.000126  -0.005844   0.000918  -0.031009   0.363897  -0.031615
    25  H    0.000145  -0.002083  -0.001084  -0.032680   0.362477  -0.032848
    26  H    0.000000   0.000053  -0.000002  -0.002743  -0.032330   0.363042
    27  H    0.000007   0.000197  -0.000013  -0.003140  -0.031102   0.361996
    28  H    0.000000   0.000013  -0.000012   0.000188  -0.003647  -0.031260
    29  H    0.000000   0.000007   0.000000   0.000187  -0.002594  -0.032815
    30  H    0.000000   0.000000  -0.000000   0.000009   0.000180  -0.002801
    31  H    0.000000   0.000000   0.000000   0.000009   0.000203  -0.003078
    32  H    0.000000   0.000000   0.000000   0.000000   0.000012   0.000244
    33  H    0.000000   0.000000  -0.000000   0.000000   0.000009   0.000174
    34  H    0.000000   0.000000   0.000000   0.000000   0.000000   0.000011
    35  H    0.000000   0.000000  -0.000000   0.000000   0.000000   0.000008
    36  H    0.000000   0.000000   0.000000   0.000000   0.000000   0.000000
    37  H   -0.000000   0.000000   0.000000  -0.000000   0.000000   0.000000
    38  H    0.000000   0.000000  -0.000000  -0.000000   0.000000   0.000000
    39  H    0.000000  -0.000000   0.000000   0.000000  -0.000000  -0.000000
    40  H    0.000000   0.000000   0.000000  -0.000000   0.000000  -0.000000
               7          8          9         10         11         12
     1  C    0.000001  -0.000000   0.000000  -0.000000   0.000000   0.000000
     2  C   -0.000149   0.000001  -0.000000   0.000000  -0.000000   0.000000
     3  C    0.000008   0.000000   0.000000  -0.000000   0.000000  -0.000000
     4  C    0.002143  -0.000172   0.000001  -0.000000   0.000000  -0.000000
     5  C   -0.038068   0.002110  -0.000173   0.000001  -0.000000   0.000000
     6  C    0.426308  -0.038621   0.002101  -0.000172   0.000000   0.000000
     7  C    4.803140   0.426061  -0.037963   0.001687  -0.000138   0.000019
     8  C    0.426061   4.812738   0.428131  -0.036182   0.001254   0.000469
     9  C   -0.037963   0.428131   4.820763   0.403068  -0.038559  -0.001358
    10  C    0.001687  -0.036182   0.403068   4.898860   0.420345  -0.030552
    11  C   -0.000138   0.001254  -0.038559   0.420345   4.542991   0.355315
    12  C    0.000019   0.000469  -0.001358  -0.030552   0.355315   5.096722
    13  O    0.000000  -0.000021   0.001099  -0.020919   0.338535  -0.046525
    14  O   -0.000000   0.000000  -0.000056   0.001848  -0.048985  -0.000411
    15  H   -0.000000   0.000000  -0.000000   0.000000  -0.000000  -0.000000
    16  H    0.000000   0.000000  -0.000000   0.000000   0.000000   0.000000
    17  H    0.000000   0.000000   0.000000   0.000000   0.000000   0.000000
    18  H    0.000007   0.000000   0.000000   0.000000   0.000000   0.000000
    19  H    0.000001  -0.000000   0.000000  -0.000000   0.000000   0.000000
    20  H   -0.000000  -0.000000  -0.000000   0.000000  -0.000000   0.000000
    21  H    0.000005  -0.000000   0.000000  -0.000000   0.000000  -0.000000
    22  H    0.000190   0.000013   0.000000   0.000000   0.000000   0.000000
    23  H    0.000203   0.000009   0.000000   0.000000   0.000000  -0.000000
    24  H   -0.003132   0.000241   0.000013   0.000000   0.000000   0.000000
    25  H   -0.003033   0.000178   0.000010   0.000000   0.000000  -0.000000
    26  H   -0.031588  -0.002904   0.000186   0.000008   0.000000  -0.000000
    27  H   -0.031385  -0.003206   0.000213   0.000008   0.000000   0.000000
    28  H    0.362180  -0.031671  -0.003862   0.000173   0.000013  -0.000013
    29  H    0.364318  -0.033356  -0.002636   0.000173   0.000008   0.000001
    30  H   -0.030998   0.363243  -0.032231  -0.002365   0.000062  -0.000005
    31  H   -0.030767   0.362002  -0.030749  -0.003037   0.000206   0.000000
    32  H   -0.003223  -0.031087   0.364278  -0.032196  -0.005179   0.000512
    33  H   -0.002758  -0.032573   0.364628  -0.035311  -0.001209  -0.000993
    34  H    0.000165  -0.002712  -0.028382   0.352739  -0.023930   0.006305
    35  H    0.000170  -0.003467  -0.030137   0.352413  -0.020784  -0.010380
    36  H    0.000008   0.000047  -0.002528  -0.040190   0.358281  -0.070675
    37  H    0.000001  -0.000048  -0.000101  -0.006714  -0.020665   0.363560
    38  H   -0.000007   0.000100  -0.002020  -0.004104  -0.014436   0.357798
    39  H   -0.000000  -0.000008   0.000346   0.003715  -0.019551   0.372741
    40  H    0.000000  -0.000000   0.000001  -0.000507   0.000727   0.000895
              13         14         15         16         17         18
     1  C    0.000000   0.000000   0.366800   0.372976   0.367667  -0.043064
     2  C    0.000000   0.000000  -0.021206  -0.024845  -0.022367   0.365139
     3  C    0.000000   0.000000  -0.003387  -0.006148   0.005163  -0.048379
     4  C   -0.000000   0.000000   0.003768  -0.006885  -0.003498  -0.043298
     5  C    0.000000  -0.000000  -0.000175   0.000194   0.000180  -0.004015
     6  C   -0.000000   0.000000   0.000001   0.000002   0.000005   0.000126
     7  C    0.000000  -0.000000  -0.000000   0.000000   0.000000   0.000007
     8  C   -0.000021   0.000000   0.000000   0.000000   0.000000   0.000000
     9  C    0.001099  -0.000056  -0.000000  -0.000000   0.000000   0.000000
    10  C   -0.020919   0.001848   0.000000   0.000000   0.000000   0.000000
    11  C    0.338535  -0.048985  -0.000000   0.000000   0.000000   0.000000
    12  C   -0.046525  -0.000411  -0.000000   0.000000   0.000000   0.000000
    13  O    7.890571   0.110160   0.000000   0.000000   0.000000   0.000000
    14  O    0.110160   7.969675   0.000000   0.000000   0.000000   0.000000
    15  H    0.000000   0.000000   0.614295  -0.033040  -0.031621  -0.003037
    16  H    0.000000   0.000000  -0.033040   0.606131  -0.032862   0.006288
    17  H    0.000000   0.000000  -0.031621  -0.032862   0.611395  -0.003143
    18  H    0.000000   0.000000  -0.003037   0.006288  -0.003143   0.698226
    19  H   -0.000000   0.000000  -0.000166   0.004856  -0.000051   0.006323
    20  H    0.000000   0.000000   0.004423  -0.000134  -0.000033  -0.002665
    21  H   -0.000000   0.000000  -0.000068  -0.000050  -0.000226  -0.003431
    22  H    0.000000   0.000000  -0.000063  -0.000244   0.004812  -0.004398
    23  H    0.000000   0.000000  -0.000071   0.005115  -0.000261   0.006860
    24  H    0.000000   0.000000   0.000002   0.000006   0.000002  -0.000136
    25  H    0.000000   0.000000   0.000003   0.000011  -0.000007   0.005731
    26  H    0.000000   0.000000   0.000000   0.000001   0.000000   0.000002
    27  H    0.000000   0.000000   0.000000  -0.000002   0.000000   0.000010
    28  H    0.000000   0.000000   0.000000   0.000000  -0.000000   0.000001
    29  H    0.000000   0.000000   0.000000  -0.000000   0.000000  -0.000003
    30  H   -0.000000   0.000000   0.000000  -0.000000   0.000000   0.000000
    31  H    0.000002   0.000000   0.000000  -0.000000   0.000000  -0.000000
    32  H    0.000022   0.000000  -0.000000  -0.000000  -0.000000  -0.000000
    33  H    0.000033   0.000001  -0.000000   0.000000  -0.000000  -0.000000
    34  H    0.002539   0.000035   0.000000  -0.000000  -0.000000  -0.000000
    35  H    0.000541  -0.000047   0.000000   0.000000  -0.000000   0.000000
    36  H   -0.032937   0.004204   0.000000   0.000000   0.000000   0.000000
    37  H    0.001279  -0.000192   0.000000   0.000000   0.000000   0.000000
    38  H    0.002576   0.000086  -0.000000  -0.000000   0.000000   0.000000
    39  H   -0.004720   0.010158   0.000000  -0.000000   0.000000  -0.000000
    40  H   -0.031827   0.290512   0.000000   0.000000   0.000000   0.000000
              19         20         21         22         23         24
     1  C   -0.005117  -0.004529   0.005108  -0.003943  -0.004384   0.000126
     2  C   -0.026564  -0.024795  -0.023100  -0.028657  -0.028438  -0.005844
     3  C    0.372515   0.370884   0.370909   0.005356  -0.009122   0.000918
     4  C   -0.006872   0.004084  -0.003332   0.356508   0.356878  -0.031009
     5  C   -0.000320   0.000144  -0.000765  -0.032267  -0.033664   0.363897
     6  C   -0.000058  -0.000009  -0.000065  -0.002487  -0.003323  -0.031615
     7  C    0.000001  -0.000000   0.000005   0.000190   0.000203  -0.003132
     8  C   -0.000000  -0.000000  -0.000000   0.000013   0.000009   0.000241
     9  C    0.000000  -0.000000   0.000000   0.000000   0.000000   0.000013
    10  C   -0.000000   0.000000  -0.000000   0.000000   0.000000   0.000000
    11  C    0.000000  -0.000000   0.000000   0.000000   0.000000   0.000000
    12  C    0.000000   0.000000  -0.000000   0.000000  -0.000000   0.000000
    13  O   -0.000000   0.000000  -0.000000   0.000000   0.000000   0.000000
    14  O    0.000000   0.000000   0.000000   0.000000   0.000000   0.000000
    15  H   -0.000166   0.004423  -0.000068  -0.000063  -0.000071   0.000002
    16  H    0.004856  -0.000134  -0.000050  -0.000244   0.005115   0.000006
    17  H   -0.000051  -0.000033  -0.000226   0.004812  -0.000261   0.000002
    18  H    0.006323  -0.002665  -0.003431  -0.004398   0.006860  -0.000136
    19  H    0.607288  -0.032204  -0.034140  -0.000020   0.005416   0.001001
    20  H   -0.032204   0.610271  -0.031073  -0.000185  -0.000066  -0.000173
    21  H   -0.034140  -0.031073   0.602849  -0.000068   0.000076   0.003496
    22  H   -0.000020  -0.000185  -0.000068   0.657192  -0.042319   0.006350
    23  H    0.005416  -0.000066   0.000076  -0.042319   0.654697  -0.005131
    24  H    0.001001  -0.000173   0.003496   0.006350  -0.005131   0.644602
    25  H    0.000112  -0.000041   0.000929  -0.005640   0.006412  -0.044120
    26  H    0.000001   0.000000   0.000000   0.005126  -0.000488   0.006399
    27  H    0.000005  -0.000000   0.000022  -0.000426   0.005343  -0.006039
    28  H    0.000000   0.000000  -0.000006   0.000008   0.000005   0.005919
    29  H   -0.000000   0.000000   0.000003   0.000007   0.000009  -0.000590
    30  H    0.000000   0.000000  -0.000000  -0.000003   0.000001   0.000009
    31  H   -0.000000   0.000000   0.000000   0.000001  -0.000003   0.000003
    32  H   -0.000000  -0.000000   0.000000  -0.000000   0.000000  -0.000006
    33  H    0.000000   0.000000  -0.000000   0.000000  -0.000000   0.000001
    34  H   -0.000000  -0.000000   0.000000  -0.000000  -0.000000  -0.000000
    35  H    0.000000   0.000000  -0.000000  -0.000000   0.000000   0.000000
    36  H    0.000000  -0.000000  -0.000000  -0.000000   0.000000  -0.000000
    37  H   -0.000000  -0.000000  -0.000000  -0.000000   0.000000  -0.000000
    38  H   -0.000000   0.000000  -0.000000   0.000000  -0.000000   0.000000
    39  H   -0.000000  -0.000000   0.000000  -0.000000   0.000000  -0.000000
    40  H    0.000000   0.000000  -0.000000  -0.000000   0.000000   0.000000
              25         26         27         28         29         30
     1  C    0.000145   0.000000   0.000007   0.000000   0.000000   0.000000
     2  C   -0.002083   0.000053   0.000197   0.000013   0.000007   0.000000
     3  C   -0.001084  -0.000002  -0.000013  -0.000012   0.000000  -0.000000
     4  C   -0.032680  -0.002743  -0.003140   0.000188   0.000187   0.000009
     5  C    0.362477  -0.032330  -0.031102  -0.003647  -0.002594   0.000180
     6  C   -0.032848   0.363042   0.361996  -0.031260  -0.032815  -0.002801
     7  C   -0.003033  -0.031588  -0.031385   0.362180   0.364318  -0.030998
     8  C    0.000178  -0.002904  -0.003206  -0.031671  -0.033356   0.363243
     9  C    0.000010   0.000186   0.000213  -0.003862  -0.002636  -0.032231
    10  C    0.000000   0.000008   0.000008   0.000173   0.000173  -0.002365
    11  C    0.000000   0.000000   0.000000   0.000013   0.000008   0.000062
    12  C   -0.000000  -0.000000   0.000000  -0.000013   0.000001  -0.000005
    13  O    0.000000   0.000000   0.000000   0.000000   0.000000  -0.000000
    14  O    0.000000   0.000000   0.000000   0.000000   0.000000   0.000000
    15  H    0.000003   0.000000   0.000000   0.000000   0.000000   0.000000
    16  H    0.000011   0.000001  -0.000002   0.000000  -0.000000  -0.000000
    17  H   -0.000007   0.000000   0.000000  -0.000000   0.000000   0.000000
    18  H    0.005731   0.000002   0.000010   0.000001  -0.000003   0.000000
    19  H    0.000112   0.000001   0.000005   0.000000  -0.000000   0.000000
    20  H   -0.000041   0.000000  -0.000000   0.000000   0.000000   0.000000
    21  H    0.000929   0.000000   0.000022  -0.000006   0.000003  -0.000000
    22  H   -0.005640   0.005126  -0.000426   0.000008   0.000007  -0.000003
    23  H    0.006412  -0.000488   0.005343   0.000005   0.000009   0.000001
    24  H   -0.044120   0.006399  -0.006039   0.005919  -0.000590   0.000009
    25  H    0.652622  -0.005730   0.006332  -0.000478   0.005221   0.000007
    26  H   -0.005730   0.649971  -0.043280   0.006283  -0.005493   0.004944
    27  H    0.006332  -0.043280   0.649879  -0.005762   0.006302  -0.000467
    28  H   -0.000478   0.006283  -0.005762   0.649256  -0.043500   0.006222
    29  H    0.005221  -0.005493   0.006302  -0.043500   0.649095  -0.005437
    30  H    0.000007   0.004944  -0.000467   0.006222  -0.005437   0.645918
    31  H    0.000007  -0.000469   0.005055  -0.005730   0.006250  -0.042942
    32  H    0.000001   0.000010   0.000003   0.005971  -0.000599   0.006369
    33  H   -0.000004   0.000007   0.000007  -0.000470   0.005189  -0.005729
    34  H    0.000000  -0.000002   0.000001   0.000007   0.000008   0.004732
    35  H   -0.000000   0.000001  -0.000003   0.000005   0.000007  -0.000500
    36  H    0.000000   0.000000  -0.000000   0.000001  -0.000003   0.000002
    37  H    0.000000   0.000000  -0.000000   0.000000  -0.000000   0.000001
    38  H   -0.000000  -0.000000   0.000000  -0.000007   0.000002   0.000002
    39  H    0.000000   0.000000   0.000000   0.000000   0.000000   0.000000
    40  H    0.000000   0.000000   0.000000   0.000000  -0.000000   0.000000
              31         32         33         34         35         36
     1  C    0.000000   0.000000   0.000000   0.000000   0.000000   0.000000
     2  C    0.000000   0.000000   0.000000   0.000000   0.000000   0.000000
     3  C    0.000000   0.000000  -0.000000   0.000000  -0.000000   0.000000
     4  C    0.000009   0.000000   0.000000   0.000000   0.000000   0.000000
     5  C    0.000203   0.000012   0.000009   0.000000   0.000000   0.000000
     6  C   -0.003078   0.000244   0.000174   0.000011   0.000008   0.000000
     7  C   -0.030767  -0.003223  -0.002758   0.000165   0.000170   0.000008
     8  C    0.362002  -0.031087  -0.032573  -0.002712  -0.003467   0.000047
     9  C   -0.030749   0.364278   0.364628  -0.028382  -0.030137  -0.002528
    10  C   -0.003037  -0.032196  -0.035311   0.352739   0.352413  -0.040190
    11  C    0.000206  -0.005179  -0.001209  -0.023930  -0.020784   0.358281
    12  C    0.000000   0.000512  -0.000993   0.006305  -0.010380  -0.070675
    13  O    0.000002   0.000022   0.000033   0.002539   0.000541  -0.032937
    14  O    0.000000   0.000000   0.000001   0.000035  -0.000047   0.004204
    15  H    0.000000  -0.000000  -0.000000   0.000000   0.000000   0.000000
    16  H   -0.000000  -0.000000   0.000000  -0.000000   0.000000   0.000000
    17  H    0.000000  -0.000000  -0.000000  -0.000000  -0.000000   0.000000
    18  H   -0.000000  -0.000000  -0.000000  -0.000000   0.000000   0.000000
    19  H   -0.000000  -0.000000   0.000000  -0.000000   0.000000   0.000000
    20  H    0.000000  -0.000000   0.000000  -0.000000   0.000000  -0.000000
    21  H    0.000000   0.000000  -0.000000   0.000000  -0.000000  -0.000000
    22  H    0.000001  -0.000000   0.000000  -0.000000  -0.000000  -0.000000
    23  H   -0.000003   0.000000  -0.000000  -0.000000   0.000000   0.000000
    24  H    0.000003  -0.000006   0.000001  -0.000000   0.000000  -0.000000
    25  H    0.000007   0.000001  -0.000004   0.000000  -0.000000   0.000000
    26  H   -0.000469   0.000010   0.000007  -0.000002   0.000001   0.000000
    27  H    0.005055   0.000003   0.000007   0.000001  -0.000003  -0.000000
    28  H   -0.005730   0.005971  -0.000470   0.000007   0.000005   0.000001
    29  H    0.006250  -0.000599   0.005189   0.000008   0.000007  -0.000003
    30  H   -0.042942   0.006369  -0.005729   0.004732  -0.000500   0.000002
    31  H    0.646025  -0.006082   0.006260  -0.000403   0.005084   0.000007
    32  H   -0.006082   0.638530  -0.043684   0.006065  -0.004924   0.000034
    33  H    0.006260  -0.043684   0.645717  -0.005626   0.006220   0.005333
    34  H   -0.000403   0.006065  -0.005626   0.636627  -0.042782  -0.006171
    35  H    0.005084  -0.004924   0.006220  -0.042782   0.634189   0.006829
    36  H    0.000007   0.000034   0.005333  -0.006171   0.006829   0.692961
    37  H    0.000004   0.000997   0.000114  -0.000055   0.005615   0.006206
    38  H    0.000023   0.003601   0.001089  -0.000108   0.000430   0.001627
    39  H   -0.000000  -0.000197  -0.000041  -0.000166  -0.000079  -0.003228
    40  H    0.000000   0.000000   0.000000   0.000011   0.000021   0.000198
              37         38         39         40
     1  C   -0.000000   0.000000   0.000000   0.000000
     2  C    0.000000   0.000000  -0.000000   0.000000
     3  C    0.000000  -0.000000   0.000000   0.000000
     4  C   -0.000000  -0.000000   0.000000  -0.000000
     5  C    0.000000   0.000000  -0.000000   0.000000
     6  C    0.000000   0.000000  -0.000000  -0.000000
     7  C    0.000001  -0.000007  -0.000000   0.000000
     8  C   -0.000048   0.000100  -0.000008  -0.000000
     9  C   -0.000101  -0.002020   0.000346   0.000001
    10  C   -0.006714  -0.004104   0.003715  -0.000507
    11  C   -0.020665  -0.014436  -0.019551   0.000727
    12  C    0.363560   0.357798   0.372741   0.000895
    13  O    0.001279   0.002576  -0.004720  -0.031827
    14  O   -0.000192   0.000086   0.010158   0.290512
    15  H    0.000000  -0.000000   0.000000   0.000000
    16  H    0.000000  -0.000000  -0.000000   0.000000
    17  H    0.000000   0.000000   0.000000   0.000000
    18  H    0.000000   0.000000  -0.000000   0.000000
    19  H   -0.000000  -0.000000  -0.000000   0.000000
    20  H   -0.000000   0.000000  -0.000000   0.000000
    21  H   -0.000000  -0.000000   0.000000  -0.000000
    22  H   -0.000000   0.000000  -0.000000  -0.000000
    23  H    0.000000  -0.000000   0.000000   0.000000
    24  H   -0.000000   0.000000  -0.000000   0.000000
    25  H    0.000000  -0.000000   0.000000   0.000000
    26  H    0.000000  -0.000000   0.000000   0.000000
    27  H   -0.000000   0.000000   0.000000   0.000000
    28  H    0.000000  -0.000007   0.000000   0.000000
    29  H   -0.000000   0.000002   0.000000  -0.000000
    30  H    0.000001   0.000002   0.000000   0.000000
    31  H    0.000004   0.000023  -0.000000   0.000000
    32  H    0.000997   0.003601  -0.000197   0.000000
    33  H    0.000114   0.001089  -0.000041   0.000000
    34  H   -0.000055  -0.000108  -0.000166   0.000011
    35  H    0.005615   0.000430  -0.000079   0.000021
    36  H    0.006206   0.001627  -0.003228   0.000198
    37  H    0.598226  -0.030132  -0.031271  -0.000001
    38  H   -0.030132   0.597997  -0.029760  -0.000013
    39  H   -0.031271  -0.029760   0.572489  -0.000454
    40  H   -0.000001  -0.000013  -0.000454   0.425732
 Mulliken charges:
               1
     1  C   -0.386142
     2  C    0.045821
     3  C   -0.377373
     4  C   -0.166284
     5  C   -0.178730
     6  C   -0.178676
     7  C   -0.173407
     8  C   -0.180568
     9  C   -0.174084
    10  C   -0.222790
    11  C    0.175698
    12  C   -0.393425
    13  O   -0.210410
    14  O   -0.336987
    15  H    0.103541
    16  H    0.108631
    17  H    0.104846
    18  H    0.066856
    19  H    0.107997
    20  H    0.106101
    21  H    0.112927
    22  H    0.085153
    23  H    0.086248
    24  H    0.094806
    25  H    0.087549
    26  H    0.088994
    27  H    0.089444
    28  H    0.090174
    29  H    0.090238
    30  H    0.091775
    31  H    0.092118
    32  H    0.100526
    33  H    0.093614
    34  H    0.101093
    35  H    0.101569
    36  H    0.079995
    37  H    0.113177
    38  H    0.115255
    39  H    0.130026
    40  H    0.314703
 Sum of Mulliken charges =  -0.00000
 Mulliken charges with hydrogens summed into heavy atoms:
               1
     1  C   -0.069125
     2  C    0.112677
     3  C   -0.050348
     4  C    0.005118
     5  C    0.003625
     6  C   -0.000237
     7  C    0.007005
     8  C    0.003326
     9  C    0.020056
    10  C   -0.020128
    11  C    0.255693
    12  C   -0.034967
    13  O   -0.210410
    14  O   -0.022284
 Electronic spatial extent (au):  <R**2>=           8780.5065
 Charge=             -0.0000 electrons
 Dipole moment (field-independent basis, Debye):
    X=             -0.4482    Y=             -0.0211    Z=              0.2696  Tot=              0.5234
 Quadrupole moment (field-independent basis, Debye-Ang):
   XX=            -92.5251   YY=            -91.5576   ZZ=            -90.1874
   XY=             -1.6526   XZ=              4.0943   YZ=              0.4108
[...]
 00026,0.00000147,0.00000111,0.00000018,0.00000086,-0.00000043,-0.00000
 030,0.00000036,-0.00000020,0.00000008,-0.00000093,-0.00000017,0.000000
 37,0.00000005,0.00000144,0.00000015,0.00000117,-0.00000040,0.00000091,
 -0.00000077,-0.00000049,0.00000024,0.00000361,-0.00000050,0.00000056,0
 .00000070,0.00000732,-0.00000033,0.00000195,-0.00000135,0.00000331,-0.
 00000200,-0.00000719,-0.00000299,0.00002327,0.00001342,-0.00000260,0.0
 0000165,0.00005013,-0.00001742,0.00006590,-0.00001581,0.00002433,-0.00
 003319,-0.00014283,0.00004042,0.00033683,-0.00010762,0.00030481,0.0005
 6297,-0.00086146,0.00053650,0.00025710,0.00870606,0.06620693,-0.000001
 15,0.00000102,-0.00000214,0.00000020,-0.00000269,0.00000069,-0.0000016
 0,0.00000004,-0.00000240,-0.00000443,0.00000053,-0.00000227,-0.0000052
 8,-0.00000453,-0.00000613,-0.00000667,-0.00001178,0.00000945,-0.000075
 64,-0.00001579,-0.00001967,0.00002076,-0.00005927,0.00054394,0.0003006
 3,0.00007073,0.00024980,-0.00049207,-0.00061073,-0.00017472,-0.0710315
 6,-0.03485622,-0.26139159,-0.00527058,-0.00441251,-0.01385248,-0.00349
 191,0.01534620,-0.02214399,-0.00028348,-0.00098066,0.00212940,0.000001
 33,0.00000063,-0.00000063,0.00000094,0.00000027,0.00000182,-0.00000050
 ,0.00000009,-0.00000002,0.00000040,0.00000053,0.00000235,0.00000136,0.
 00000007,0.00000196,0.00000047,0.00000114,-0.00000018,0.00000104,-0.00
 000160,-0.00000058,-0.00000031,0.00000048,-0.00000040,0.00000323,0.000
 00090,0.00000304,-0.00000058,0.00000185,-0.00000055,0.00000028,0.00000
 021,0.00000521,-0.00000067,0.00000134,-0.00000173,0.00000550,0.0000006
 5,0.00000395,-0.00000031,0.00000273,-0.00000109,-0.00001138,-0.0000012
 3,0.00001973,-0.00000419,-0.00000646,-0.00003248,0.00022930,0.00005112
 ,-0.00007358,0.00003433,0.00007837,0.00005217,-0.00029724,-0.00042995,
 0.00066489,-0.00037322,0.00029391,0.00042474,0.00054430,0.00056973,0.0
 0108564,0.07868187,0.02792552,0.29104448,-0.00000058,0.00000228,-0.000
 00186,0.00000133,-0.00000371,0.00000345,-0.00000053,0.00000040,-0.0000
 0171,-0.00000377,0.00000465,-0.00000347,0.00000513,-0.00000520,0.00000
 363,-0.00000795,0.00000573,-0.00000289,-0.00000310,-0.00000695,0.00000
 162,-0.00001025,-0.00002764,-0.00001946,-0.00005486,-0.00005428,0.0000
 3037,0.00159885,-0.00027270,0.00134251,0.00477760,0.00161062,0.0173197
 1,-0.07777363,-0.01155496,-0.08267336,0.00040311,-0.00124058,-0.001016
 54,-0.00005107,-0.00068921,0.00018033,0.00000203,0.00000124,-0.0000011
 5,0.00000017,-0.00000021,0.00000085,-0.00000029,-0.00000054,0.00000027
 ,-0.00000002,0.00000062,-0.00000019,-0.00000011,-0.00000032,0.00000065
 ,0.00000119,0.00000170,-0.00000090,0.00000114,-0.00000185,0.00000059,0
 .00000046,-0.00000027,0.,0.00000072,-0.00000012,0.00000054,-0.00000038
 ,0.00000022,0.00000006,0.00000018,0.00000069,-0.00000127,0.00000206,-0
 .00000119,-0.00000079,-0.00000056,-0.00000043,-0.00000017,0.00000049,-
 0.00000127,0.00000058,0.00000344,0.00000412,-0.00000790,0.00001403,0.0
 0000538,-0.00000327,-0.00003767,0.00000027,-0.00000987,0.00001844,-0.0
 0006262,-0.00000137,0.00005638,0.00003250,-0.00014828,0.00012045,-0.00
 010580,-0.00025834,-0.00013546,0.00007828,-0.00045969,-0.00104565,0.00
 308970,0.00156725,0.08027812,-0.00000032,0.00000068,-0.00000063,0.0000
 0034,-0.00000078,0.00000169,0.00000016,0.00000006,-0.00000017,-0.00000
 108,0.00000156,-0.00000083,0.00000191,-0.00000017,0.00000269,-0.000002
 02,0.00000265,-0.00000221,0.00000545,-0.00000085,0.00000618,0.00000948
 ,0.00004393,-0.00000891,0.00000092,0.00005372,0.00005919,-0.00144212,0
 .00072604,0.00023560,-0.00861665,-0.00452655,-0.02662324,-0.01199847,-
 0.05123363,-0.03119003,-0.00058467,0.00299990,0.00141459,-0.00015283,-
 0.00037034,0.00018635,0.00000079,0.00000049,-0.00000035,-0.00000011,0.
 00000003,0.00000017,0.00000004,-0.00000046,-0.00000003,0.00000004,-0.0
 0000018,-0.00000063,-0.00000091,-0.00000010,-0.00000029,0.00000063,0.0
 0000061,-0.00000057,0.00000068,-0.00000060,0.00000089,0.00000036,-0.00
 000055,-0.00000047,-0.00000049,0.00000032,-0.00000024,0.00000037,-0.00
 000114,0.00000096,0.00000033,-0.00000070,-0.00000178,0.00000069,-0.000
 00117,-0.00000205,-0.00000254,0.00000178,-0.00000092,0.00000227,-0.000
 00376,0.00000623,0.00000144,-0.00000510,-0.00000664,-0.00000266,0.0000
 0100,-0.00000595,-0.00000215,0.00001140,-0.00000827,0.00006072,-0.0000
 0739,0.00004474,-0.00001824,-0.00012342,0.00003817,-0.00015937,0.00005
 252,0.00029060,0.00059497,0.00024481,0.00052633,0.00287153,-0.00360773
 ,-0.00225122,0.01109353,0.05274141,-0.00000048,0.,-0.00000134,0.000001
 03,-0.00000096,-0.00000119,-0.00000121,-0.00000015,-0.00000183,-0.0000
 0169,0.00000094,-0.00000359,0.00000552,-0.00000416,-0.00000303,-0.0000
 0351,0.00001094,-0.00001166,0.00002816,-0.00002545,-0.00000490,-0.0000
 2576,0.00003644,-0.00003103,0.00028806,-0.00004034,-0.00000164,-0.0011
 9720,0.00043559,0.00039795,-0.00490667,-0.00113484,-0.01728456,-0.0813
 7101,-0.03242309,-0.27204140,-0.00015347,0.00015097,0.00264998,0.00000
 187,-0.00006348,-0.00010437,0.,-0.00000029,0.00000015,0.00000091,0.000
 00027,0.00000129,-0.00000041,0.00000069,-0.00000002,0.00000032,0.00000
 042,0.00000248,0.00000205,0.00000035,0.00000176,-0.00000063,-0.0000001
 5,0.00000087,-0.00000010,-0.00000018,-0.00000139,-0.00000096,0.0000010
 6,0.00000027,0.00000287,0.00000054,0.00000279,-0.00000096,0.00000320,-
 0.00000130,-0.00000057,-0.00000025,0.00000565,-0.00000323,0.00000212,0
 .00000198,0.00000914,-0.00000042,0.00000627,-0.00000390,0.00001505,-0.
 00000704,-0.00000655,0.00000106,0.00002116,-0.00000507,0.00000025,0.00
 000933,0.00007109,-0.00000658,0.00002940,-0.00001069,0.00009436,-0.000
 19673,-0.00012259,0.00000084,0.00022643,0.00007422,0.00008797,0.000456
 93,0.00105181,-0.00007383,0.00047157,0.00196131,-0.00264202,0.00009754
 ,0.08910057,0.03824164,0.29779873,-0.00000126,0.00000743,-0.00000505,0
 .00000500,-0.00001149,0.00001167,0.00000014,0.00000118,-0.00000476,-0.
 00001125,0.00001528,-0.00001257,0.00001933,-0.00001729,0.00001673,-0.0
 0002594,0.00001331,-0.00002109,-0.00001124,-0.00002324,0.00005845,-0.0
 0016505,-0.00027603,-0.00002643,-0.00089783,0.00081673,0.00047629,0.00
 031848,-0.00072113,-0.00046142,0.00245591,0.01125468,-0.01066585,-0.04
 979027,-0.03205954,0.02071312,-0.00247329,0.00492759,0.00111725,0.0008
 5888,-0.00141359,0.00006518,0.00000638,0.00000338,-0.00000323,0.000000
 11,-0.00000079,0.00000137,-0.00000106,-0.00000114,0.00000101,-0.000000
 44,0.00000121,-0.00000145,-0.00000097,-0.00000079,0.00000111,0.0000043
 1,0.00000546,-0.00000283,0.00000191,-0.00000560,0.00000250,0.00000129,
 -0.00000047,0.00000019,0.00000193,-0.00000005,0.00000086,-0.00000157,0
 .00000100,0.00000056,0.00000005,0.00000097,-0.00000486,0.00000930,-0.0
 0000198,-0.00000163,0.00000304,0.00000147,0.00000153,-0.00001008,-0.00
 001772,0.00000046,-0.00000121,-0.00000284,-0.00001036,0.00014459,-0.00
 000764,-0.00001343,0.00003668,0.00002143,0.00001796,-0.00132065,-0.000
 33087,0.00029111,0.00005450,-0.00009768,-0.00001677,0.00022026,-0.0000
 8588,0.00010548,-0.00006752,0.00007376,0.00007387,0.00049885,-0.000644
 48,0.00006735,0.00073551,0.01021976,-0.00560796,0.05292256,0.00000176,
 -0.00000606,0.00000434,-0.00000319,0.00000822,-0.00000793,0.00000132,-
 0.00000107,0.00000422,0.00001036,-0.00001186,0.00000935,-0.00001271,0.
 00001155,-0.00000961,0.00002097,-0.00001215,0.00001211,0.00004114,0.00
 003992,-0.00002972,0.00009405,0.00052115,0.00003671,-0.00050188,-0.000
 69069,0.00001916,-0.00029942,0.00006577,0.00027621,-0.00679252,-0.0168
 5106,0.01607743,-0.03080097,-0.23435505,0.11478760,0.00285671,-0.00691
 743,-0.00247298,0.00076641,0.00071934,0.00022061,-0.00000493,-0.000002
 21,0.00000225,-0.00000068,0.00000040,-0.00000175,0.00000043,0.00000141
 ,-0.00000035,0.,-0.00000102,-0.00000052,0.,0.00000063,-0.00000194,-0.0
 0000293,-0.00000372,0.00000199,-0.00000246,0.00000461,-0.00000110,-0.0
 0000168,0.00000137,0.00000044,-0.00000297,-0.00000048,-0.00000198,0.00
 000120,-0.00000025,0.00000109,0.00000068,-0.00000161,0.00000030,-0.000
 00565,0.00000094,0.00000101,-0.00000677,-0.00000106,-0.00000409,0.0000
 1129,0.00000955,0.00000265,0.00000466,-0.00000305,-0.00000615,-0.00023
 513,0.00000216,0.00003009,-0.00006742,-0.00002136,-0.00003565,-0.00012
 801,0.00093288,0.00024276,0.00007357,-0.00001433,-0.00010802,-0.000074
 40,0.00002454,-0.00006585,0.00006342,0.00000002,-0.00006837,-0.0004091
 6,0.00087238,-0.00073776,0.00100594,0.00493943,-0.00304268,0.03495948,
 0.25541761,-0.00000053,0.00000078,-0.00000076,0.00000017,0.00000003,0.
 00000252,-0.00000084,0.00000015,-0.00000017,-0.00000186,0.00000132,-0.
 00000124,0.00000024,0.00000375,0.00000628,-0.00000334,-0.00000552,-0.0
 0000614,-0.00001478,0.00001859,0.00002721,0.00002837,-0.00019801,-0.00
 014098,0.00073871,0.00052385,0.00017461,-0.00022808,0.00077175,0.00016
 375,-0.00418117,-0.01071689,0.00749526,0.02001801,0.11659960,-0.119407
 07,0.00194225,-0.00458321,0.00072109,0.00012570,0.00029725,0.00012494,
 0.00000095,0.00000051,-0.00000032,-0.00000015,0.00000004,0.00000006,0.
 00000049,-0.00000103,-0.00000016,0.00000003,-0.00000032,-0.00000091,-0
 .00000133,-0.00000024,-0.00000040,0.00000092,0.00000058,-0.00000088,0.
 00000152,-0.00000077,0.00000136,0.00000160,-0.00000166,-0.00000067,-0.
 00000078,0.00000050,-0.00000053,0.00000017,-0.00000391,0.00000002,0.00
 000025,-0.00000028,-0.00000294,0.00000481,-0.00000214,-0.00000177,-0.0
 0000414,0.00000234,-0.00000083,-0.00000372,-0.00002025,0.00000434,0.00
 000461,-0.00000450,-0.00001401,0.00009407,-0.00001590,-0.00000898,-0.0
 0003591,0.00001724,-0.00000467,0.00042115,-0.00048053,-0.00000441,-0.0
 0002705,-0.00011503,-0.00013499,-0.00020760,-0.00004651,-0.00003233,0.
 00008143,0.00006708,0.00005837,-0.00060726,0.00077523,0.00037390,0.005
 40171,0.02536178,-0.01429787,-0.02328200,-0.12764279,0.12607495,0.0000
 0115,-0.00000724,0.00000523,-0.00000513,0.00001189,-0.00001176,-0.0000
 0011,-0.00000080,0.00000486,0.00001088,-0.00001653,0.00001318,-0.00002
 358,0.00001868,-0.00001477,0.00002453,-0.00003172,0.00002462,-0.000035
 43,0.00003016,-0.00005143,0.00001862,-0.00002461,0.00008225,0.00032546
 ,0.00024163,-0.00030716,0.00013087,0.00318082,0.00182868,-0.01681165,-
 0.00283642,0.00002729,-0.30372812,-0.04943153,0.00554296,-0.00104672,-
 0.00094962,-0.00023400,0.00180956,-0.00287954,-0.00005694,-0.00000658,
 -0.00000377,0.00000354,-0.00000008,0.00000088,-0.00000152,0.00000125,0
 .00000100,-0.00000122,0.00000041,-0.00000138,0.00000133,0.00000082,0.0
 0000086,-0.00000141,-0.00000432,-0.00000606,0.00000314,-0.00000198,0.0
 0000564,-0.00000237,-0.00000086,0.00000030,-0.00000041,-0.00000204,0.0
 0000024,-0.00000102,0.00000122,-0.00000239,-0.00000056,-0.00000008,-0.
 00000114,0.00000450,-0.00000344,0.00000220,0.00000022,-0.00000197,0.00
 000015,-0.00000141,-0.00000209,-0.00001225,0.00000333,-0.00000124,-0.0
 0000251,0.00001354,-0.00000469,-0.00003050,-0.00000794,0.00000583,-0.0
 0000443,-0.00000470,0.00003873,0.00002493,-0.00004255,-0.00004680,-0.0
 0000024,0.00009147,-0.00110341,-0.00019742,0.00017074,0.00033177,-0.00
 008799,0.00004810,0.00066660,0.00021791,0.00016454,-0.00871308,-0.0017
 8464,0.00088411,-0.00348396,-0.00058708,-0.00016840,0.33144150,0.00000
 023,-0.00000051,0.00000038,-0.00000022,0.00000110,-0.00000128,0.000000
 28,-0.00000034,0.00000034,0.00000143,-0.00000022,0.,0.00000333,-0.0000
 0058,-0.00000175,0.00000055,0.00001071,-0.00000278,0.00003265,0.000005
 08,0.00000203,0.00004308,0.00027134,-0.00000451,-0.00038881,-0.0006761
 0,0.00004760,0.00114419,-0.00501215,-0.00202498,0.02779982,0.00569260,
 -0.00048488,-0.05174538,-0.05392204,0.00146833,-0.00079141,0.00217592,
 0.00036002,-0.00095592,-0.00064651,0.00027237,-0.00000067,-0.00000052,
 0.00000042,0.00000006,0.00000009,-0.00000013,0.00000003,0.00000021,-0.
 00000010,0.00000012,-0.00000014,0.00000046,0.00000034,0.00000015,0.000
 00011,-0.00000069,-0.00000055,0.00000042,-0.00000036,0.00000078,-0.000
 00058,-0.00000046,0.00000006,0.00000012,0.00000002,-0.00000001,0.00000
 015,0.00000028,0.00000074,-0.00000003,-0.00000007,-0.00000006,0.000000
 95,-0.00000415,-0.00000018,0.00000138,0.00000012,-0.00000091,0.0000004
 8,0.00001159,0.00002418,-0.00000516,0.00000077,0.00000203,-0.00000151,
 -0.00014430,0.00002592,0.00002781,-0.00001794,-0.00001461,-0.00000362,
 0.00005497,0.00052811,0.00006343,0.00002204,0.00007962,-0.00001984,0.0
 0177217,-0.00000964,-0.00018665,-0.00019419,-0.00005076,0.00000276,-0.
 00084786,0.00069367,0.00050726,-0.00281490,-0.00171595,0.00055483,-0.0
 2716891,-0.00489490,-0.00035744,0.05436849,0.05875148,-0.00000044,0.00
 000386,-0.00000267,0.00000326,-0.00000598,0.00000568,0.00000027,0.0000
 0054,-0.00000280,-0.00000554,0.00000913,-0.00000860,0.00001505,-0.0000
 1093,0.00000951,-0.00001511,0.00001871,-0.00002133,0.00002151,-0.00002
 425,0.00003861,-0.00004315,-0.00011206,-0.00010263,-0.00001423,-0.0000
 6643,0.00029992,0.00025691,-0.00251712,-0.00083899,0.01559661,0.004198
 69,-0.00113987,0.00461520,0.00053306,-0.04841265,-0.00060414,0.0010477
 4,0.00015848,-0.00054515,-0.00007687,-0.00023817,0.00000314,0.00000146
 ,-0.00000147,0.00000018,-0.00000041,0.00000065,-0.00000069,-0.00000025
 ,0.00000059,-0.00000021,0.00000064,-0.00000026,0.00000005,-0.00000024,
 0.00000087,0.00000194,0.00000266,-0.00000107,0.00000048,-0.00000263,0.
 00000085,0.00000011,0.00000021,0.00000055,0.00000154,-0.00000005,0.000
 00088,-0.00000099,0.00000260,-0.00000032,-0.00000027,0.00000050,-0.000
 00157,0.00000082,0.00000030,0.00000220,0.00000441,-0.00000026,0.000002
 91,-0.00000370,0.00001101,-0.00000615,-0.00000223,0.00000170,-0.000002
 41,0.00005996,0.00003107,0.00001446,0.00003225,-0.00000280,0.00002116,
 -0.00009618,-0.00014905,-0.00012584,-0.00003239,0.00001089,-0.00001256
 ,0.00092296,0.00000367,0.00038156,0.00040208,-0.00008297,0.00027884,-0
 .00006764,0.00067025,0.00034208,-0.03009560,-0.00614849,0.00194712,0.0
 1734697,0.00261072,-0.00100697,-0.00767473,-0.00052730,0.04844507,-0.0
 0000050,0.00000189,-0.00000125,-0.00000002,-0.00000439,0.00000430,0.00
 000006,0.00000061,-0.00000149,-0.00000293,0.00000166,-0.00000095,-0.00
 000225,-0.00000328,0.00000202,-0.00000234,-0.00000896,0.00001179,-0.00
 004790,0.00000893,-0.00000386,0.00000273,-0.00013204,0.00008605,-0.000
 43026,-0.00006128,-0.00036259,-0.00010343,-0.00131165,0.00101493,-0.00
 551405,0.00129674,0.00049818,0.00085021,0.00003294,0.00019648,-0.03302
 608,-0.00414521,0.03392325,-0.07569396,0.00398198,0.11094326,0.0000025
 5,0.00000219,-0.00000187,-0.00000020,-0.00000066,0.00000043,-0.0000006
 1,-0.00000037,0.00000085,-0.00000022,0.00000063,-0.00000104,-0.0000006
 8,-0.00000054,0.00000029,0.00000201,0.00000269,-0.00000163,0.00000080,
 -0.00000233,0.00000117,-0.00000008,0.00000080,0.00000064,0.00000029,-0
 .00000054,-0.00000056,-0.00000029,0.00000155,0.00000039,0.00000015,0.0
 0000057,-0.00000219,-0.00000033,0.00000140,0.00000095,-0.00000006,-0.0
 0000104,-0.00000242,0.00000139,0.00000478,-0.00000135,0.00000081,0.000
 00145,-0.00000160,0.00000373,0.00000724,0.00000217,0.00000309,-0.00000
 421,-0.00000819,-0.00001517,-0.00005353,0.00002722,0.00002606,0.000044
 62,-0.00000712,0.00022013,-0.00009602,-0.00001029,-0.00007624,-0.00006
 790,-0.00013728,-0.00016952,0.00037770,-0.00027231,-0.00018185,-0.0000
 9714,-0.00005840,-0.00003540,0.00002665,-0.00009821,0.00021817,-0.0001
 8033,-0.00008330,0.11397219,-0.00000131,0.00000326,-0.00000225,0.00000
 031,-0.00000309,0.00000474,-0.00000231,0.00000024,-0.00000130,-0.00000
 650,0.00000572,-0.00000289,0.00000133,-0.00000101,0.00000412,-0.000011
 77,-0.00000163,0.00000426,-0.00003508,0.00001338,0.00000732,-0.0000355
 5,-0.00013328,0.00005820,-0.00032232,0.00011289,-0.00011316,-0.0001544
 5,-0.00140552,0.00020842,-0.00516551,0.00096188,0.00241829,-0.00094868
 ,0.00038737,-0.00032249,-0.00441145,-0.00156420,0.01189695,0.00918627,
 -0.00992388,-0.06530352,0.00000295,0.00000182,-0.00000151,0.00000031,0
 .00000011,0.00000125,0.00000041,-0.00000235,-0.00000038,0.00000008,0.0
 0000031,-0.00000005,-0.00000100,-0.00000046,0.00000057,0.00000178,0.00
 000221,-0.00000180,0.00000364,-0.00000281,0.00000115,0.00000250,-0.000
 00299,-0.00000129,0.00000124,0.00000072,0.00000093,-0.00000007,-0.0000
 0448,-0.00000098,-0.00000017,0.00000102,0.00000005,0.00000669,-0.00000
 472,-0.00000349,0.00000208,0.00000178,0.00000144,-0.00000026,-0.000012
 87,-0.00000407,-0.00000034,0.00000148,0.00000239,0.00003521,-0.0000069
 3,-0.00000960,0.00000960,0.00000715,0.00000358,-0.00003190,-0.00012486
 ,-0.00000147,0.00001108,0.00001400,0.00000376,0.00026340,-0.00001967,-
 0.00003574,-0.00013937,0.00003335,-0.00003830,0.00009876,-0.00007764,-
 0.00047296,-0.00009311,-0.00022176,-0.00018065,0.00056504,0.00021548,-
 0.00024542,0.00079407,-0.00131709,0.00056869,0.00037442,0.01306708,0.0
 0000199,-0.00000594,0.00000519,-0.00000485,0.00000855,-0.00000965,0.00
 000147,-0.00000106,0.00000490,0.00001042,-0.00001426,0.00001244,-0.000
 02355,0.00001533,-0.00001156,0.00002206,-0.00003620,0.00002866,-0.0000
 7212,0.00004089,-0.00003656,0.00006274,-0.00012456,0.00010303,-0.00026
 202,0.00010074,-0.00018822,0.00000201,-0.00070374,0.00089351,-0.000532
 57,0.00190060,-0.00192462,0.00088759,-0.00035832,0.00033446,-0.0144733
 9,-0.00160741,0.01410149,0.16080617,-0.05036290,-0.46134081,-0.0000053
 3,-0.00000284,0.00000244,-0.00000052,0.00000031,-0.00000203,0.00000042
 ,0.00000169,-0.00000051,0.00000015,-0.00000105,0.00000024,0.00000015,0
 .00000066,-0.00000168,-0.00000288,-0.00000403,0.00000178,-0.00000282,0
 .00000465,-0.00000155,-0.00000121,0.00000108,0.00000018,-0.00000280,-0
 .00000061,-0.00000224,0.00000141,-0.00000082,0.00000026,0.00000052,-0.
 00000082,0.00000127,-0.00000464,0.00000347,0.00000193,-0.00000453,-0.0
 0000090,-0.00000396,0.00000228,-0.00000181,0.00000149,0.00000199,-0.00
 000065,0.00000260,-0.00001190,0.00001112,0.00000240,-0.00001284,-0.000
 00306,-0.00001425,-0.00000542,-0.00001459,0.00001885,-0.00000457,0.000
 00263,0.00001489,0.00003529,0.00001674,-0.00005080,0.00010145,0.000026
 83,-0.00006180,-0.00004451,-0.00049215,0.00064987,-0.00024660,-0.00016
 390,-0.00013477,-0.00022929,-0.00010181,-0.00015864,-0.00033331,0.0003
 1089,-0.00002563,-0.14565644,0.05155725,0.44778736\\-0.00000206,0.0000
 0115,0.00000013,-0.00000107,0.00000015,-0.00000003,0.00000114,0.000001
 68,0.00000005,0.00000086,-0.00000059,0.00000198,-0.00000342,-0.0000003
 4,-0.00000113,0.00000238,-0.00000121,0.00000057,-0.00000178,0.00000210
 ,-0.00000138,-0.00000092,-0.00000203,0.00000200,0.00000215,0.00000277,
 -0.00000358,-0.00000058,-0.00000217,0.00000155,-0.00000068,0.00000081,
 0.00000764,-0.00000304,0.00000231,-0.00000154,-0.00000490,-0.00000056,
 -0.00000393,0.00000316,-0.00000012,0.00000208,0.00000114,0.,-0.0000006
 2,-0.00000015,-0.00000120,-0.00000032,-0.00000027,-0.00000009,-0.00000
 090,0.00000095,-0.00000027,-0.00000005,0.00000099,-0.00000118,0.,0.000
 00052,-0.00000049,-0.00000023,0.00000131,-0.00000102,0.00000013,-0.000
 00066,-0.00000048,-0.00000035,0.00000020,-0.00000065,-0.00000042,0.000
 00075,-0.00000164,0.00000096,0.00000027,0.00000048,-0.00000018,-0.0000
 0047,0.00000054,-0.00000024,-0.00000003,-0.00000041,-0.00000027,0.0000
 0002,0.00000010,0.00000003,0.00000012,0.00000009,0.00000039,-0.0000005
 1,0.00000025,-0.00000004,0.00000052,0.00000021,-0.00000052,0.00000021,
 -0.00000038,0.00000079,-0.00000041,-0.00000016,0.00000015,-0.00000113,
 0.00000108,-0.00000100,-0.00000031,-0.00000019,-0.00000016,-0.00000002
 ,0.00000092,-0.00000294,0.00000025,-0.00000007,0.00000060,0.00000209,0
 .00000002,0.00000057,0.00000208,0.00000027,0.00000069,0.00000130,0.000
 00030,-0.00000050\\\@


 ALMOST ANYTHING IS EASIER TO GET INTO THAN OUT OF.

                         -- AGNES ALLEN'S LAW FROM
                PAUL DICKSON'S "THE OFFICIAL RULES"
 Job cpu time:       0 days  8 hours 14 minutes 59.8 seconds.
 Elapsed time:       0 days  2 hours  3 minutes 47.3 seconds.
 File lengths (MBytes):  RWF=    768 Int=      0 D2E=      0 Chk=     23 Scr=      1
 Normal termination of Gaussian 16 at Wed May 24 09:27:31 2023.
### All Done ###
