### Starting Gaussian ###
 Entering Gaussian System, Link 0=g16
 Initial command:
 /cluster/software/gaussian/gaussian-16-A.03/avx2/g16/l1.exe "/local/scratch/yxie/Gau-14484.inp" -scrdir="/local/scratch/yxie/"
 Entering Link 1 = /cluster/software/gaussian/gaussian-16-A.03/avx2/g16/l1.exe PID=     14485.
  
 Copyright (c) 1988,1990,1992,1993,1995,1998,2003,2009,2016,
            Gaussian, Inc.  All Rights Reserved.
  
 This is part of the Gaussian(R) 16 program.  It is based on
 the Gaussian(R) 09 system (copyright 2009, Gaussian, Inc.),
 the Gaussian(R) 03 system (copyright 2003, Gaussian, Inc.),
 the Gaussian(R) 98 system (copyright 1998, Gaussian, Inc.),
 the Gaussian(R) 94 system (copyright 1995, Gaussian, Inc.),
 the Gaussian 92(TM) system (copyright 1992, Gaussian, Inc.),
 the Gaussian 90(TM) system (copyright 1990, Gaussian, Inc.),
 the Gaussian 88(TM) system (copyright 1988, Gaussian, Inc.),
 the Gaussian 86(TM) system (copyright 1986, Carnegie Mellon
 University), and the Gaussian 82(TM) system (copyright 1983,
 Carnegie Mellon University). Gaussian is a federally registered
 trademark of Gaussian, Inc.
  
 This software contains proprietary and confidential information,
 including trade secrets, belonging to Gaussian, Inc.
  
 This software is provided under written license and may be
 used, copied, transmitted, or stored only in accord with that
 written license.
  
 The following legend is applicable only to US Government
 contracts under FAR:
  
                    RESTRICTED RIGHTS LEGEND
  
 Use, reproduction and disclosure by the US Government is
 subject to restrictions as set forth in subparagraphs (a)
 and (c) of the Commercial Computer Software - Restricted
 Rights clause in FAR 52.227-19.
  
 Gaussian, Inc.
 340 Quinnipiac St., Bldg. 40, Wallingford CT 06492
  
  
 ---------------------------------------------------------------
 Warning -- This program may not be used in any manner that
 competes with the business of Gaussian, Inc. or will provide
 assistance to any competitor of Gaussian, Inc.  The licensee
 of this program is prohibited from giving any competitor of
 Gaussian, Inc. access to this program.  By using this program,
 the user acknowledges that Gaussian, Inc. is engaged in the
 business of creating and licensing software in the field of
 computational chemistry and represents and warrants to the
 licensee that it is not a competitor of Gaussian, Inc. and that
 it will not use this program in any manner prohibited above.
 ---------------------------------------------------------------
  

 Cite this work as:
 Gaussian 16, Revision A.03,
 M. J. Frisch, G. W. Trucks, H. B. Schlegel, G. E. Scuseria, 
 M. A. Robb, J. R. Cheeseman, G. Scalmani, V. Barone, 
 G. A. Petersson, H. Nakatsuji, X. Li, M. Caricato, A. V. Marenich, 
 J. Bloino, B. G. Janesko, R. Gomperts, B. Mennucci, H. P. Hratchian, 
 J. V. Ortiz, A. F. Izmaylov, J. L. Sonnenberg, D. Williams-Young, 
 F. Ding, F. Lipparini, F. Egidi, J. Goings, B. Peng, A. Petrone, 
 T. Henderson, D. Ranasinghe, V. G. Zakrzewski, J. Gao, N. Rega, 
 G. Zheng, W. Liang, M. Hada, M. Ehara, K. Toyota, R. Fukuda, 
 J. Hasegawa, M. Ishida, T. Nakajima, Y. Honda, O. Kitao, H. Nakai, 
 T. Vreven, K. Throssell, J. A. Montgomery, Jr., J. E. Peralta, 
 F. Ogliaro, M. J. Bearpark, J. J. Heyd, E. N. Brothers, K. N. Kudin, 
 V. N. Staroverov, T. A. Keith, R. Kobayashi, J. Normand, 
 K. Raghavachari, A. P. Rendell, J. C. Burant, S. S. Iyengar, 
 J. Tomasi, M. Cossi, J. M. Millam, M. Klene, C. Adamo, R. Cammi, 
 J. W. Ochterski, R. L. Martin, K. Morokuma, O. Farkas, 
 J. B. Foresman, and D. J. Fox, Gaussian, Inc., Wallingford CT, 2016.
 
 ******************************************
 Gaussian 16:  ES64L-G16RevA.03 25-Dec-2016
                23-May-2023 
 ******************************************
 %chk=CCqCCCCOrC1CCCCCCO1.chk
 %NProcShared=20
 Will use up to   20 processors via shared memory.
 -----------------------------
 # opt freq b3lyp/6-31g(2df,p)
 -----------------------------
 1/18=20,19=15,26=3,38=1/1,3;
 2/9=110,12=2,17=6,18=5,40=1/2;
 3/5=1,6=6,7=104,11=2,25=1,30=1,71=1,74=-5/1,2,3;
 4//1;
 5/5=2,38=5/2;
 6/7=2,8=2,9=2,10=2,28=1/1;
 7//1,2,3,16;
 1/18=20,19=15,26=3/3(2);
 2/9=110/2;
 99//99;
 2/9=110/2;
 3/5=1,6=6,7=104,11=2,25=1,30=1,71=1,74=-5/1,2,3;
 4/5=5,16=3,69=1/1;
 5/5=2,38=5/2;
 7//1,2,3,16;
 1/18=20,19=15,26=3/3(-5);
 2/9=110/2;
 6/7=2,8=2,9=2,10=2,19=2,28=1/1;
 99/9=1/99;
 -------------------
 Title Card Required
 -------------------
 Symbolic Z-matrix:
 Charge =  0 Multiplicity = 1
 C                     0.94188  -0.07585   0.07935 
 C                     2.48579  -0.00576   0.02162 
 C                     2.95289   0.92328  -1.10214 
 C                     2.46208   0.45528  -2.46231 
 C                     2.96831   1.37204  -3.55958 
 C                     2.45096   0.89282  -4.90371 
 O                     2.91215   1.75931  -5.92875 
 C                     2.98901   0.4723    1.40453 
 C                     3.36862  -0.70973   2.30108 
 C                     3.38168  -0.37706   3.79573 
 C                     2.2227    0.5272    4.23443 
 C                     2.61768   2.00296   4.39823 
 C                     2.99149   2.78493   3.12674 
 C                     4.26063   2.26562   2.43855 
 O                     4.04529   1.42366   1.30338 
 H                     0.50645  -0.49638  -0.82965 
 H                     0.5166    0.92717   0.21848 
 H                     0.60411  -0.69895   0.91373 
 H                     2.86079  -1.01677  -0.18342 
 H                     4.05009   0.95065  -1.11806 
 H                     2.60594   1.94701  -0.91163 
 H                     1.36817   0.45408  -2.49561 
 H                     2.79741  -0.57375  -2.63972 
 H                     4.06429   1.40306  -3.56374 
 H                     2.63443   2.40063  -3.37414 
 H                     1.35578   0.88236  -4.92121 
 H                     2.80559  -0.12008  -5.11432 
 H                     2.60367   2.64979  -5.7107 
 H                     2.12278   0.98079   1.80799 
 H                     4.3556   -1.09754   2.01582 
 H                     2.65188  -1.52658   2.15157 
 H                     4.3453    0.05262   4.08541 
 H                     3.32713  -1.32365   4.34676 
 H                     1.86211   0.16735   5.20472 
 H                     1.3558    0.43021   3.56946 
 H                     3.45249   2.0664    5.10698 
 H                     1.77568   2.52227   4.87248 
 H                     3.1666    3.82462   3.42913 
 H                     2.14005   2.83213   2.43796 
 H                     4.9385    1.77132   3.13926 
 H                     4.82856   3.1261    2.06626 
 

 GradGradGradGradGradGradGradGradGradGradGradGradGradGradGradGradGradGrad
 Berny optimization.
 Initialization pass.
                           ----------------------------
                           !    Initial Parameters    !
                           ! (Angstroms and Degrees)  !
 --------------------------                            --------------------------
 ! Name  Definition              Value          Derivative Info.                !
 --------------------------------------------------------------------------------
 ! R1    R(1,2)                  1.5466         estimate D2E/DX2                !
 ! R2    R(1,16)                 1.0921         estimate D2E/DX2                !
 ! R3    R(1,17)                 1.0983         estimate D2E/DX2                !
 ! R4    R(1,18)                 1.0948         estimate D2E/DX2                !
 ! R5    R(2,3)                  1.5311         estimate D2E/DX2                !
 ! R6    R(2,8)                  1.5473         estimate D2E/DX2                !
 ! R7    R(2,19)                 1.0976         estimate D2E/DX2                !
 ! R8    R(3,4)                  1.5199         estimate D2E/DX2                !
 ! R9    R(3,20)                 1.0977         estimate D2E/DX2                !
 ! R10   R(3,21)                 1.0976         estimate D2E/DX2                !
 ! R11   R(4,5)                  1.5168         estimate D2E/DX2                !
 ! R12   R(4,22)                 1.0944         estimate D2E/DX2                !
 ! R13   R(4,23)                 1.0967         estimate D2E/DX2                !
 ! R14   R(5,6)                  1.5179         estimate D2E/DX2                !
 ! R15   R(5,24)                 1.0964         estimate D2E/DX2                !
 ! R16   R(5,25)                 1.0972         estimate D2E/DX2                !
 ! R17   R(6,7)                  1.4192         estimate D2E/DX2                !
 ! R18   R(6,26)                 1.0954         estimate D2E/DX2                !
 ! R19   R(6,27)                 1.0937         estimate D2E/DX2                !
 ! R20   R(7,28)                 0.9673         estimate D2E/DX2                !
 ! R21   R(8,9)                  1.5314         estimate D2E/DX2                !
 ! R22   R(8,15)                 1.4251         estimate D2E/DX2                !
 ! R23   R(8,29)                 1.0824         estimate D2E/DX2                !
 ! R24   R(9,10)                 1.5313         estimate D2E/DX2                !
 ! R25   R(9,30)                 1.0981         estimate D2E/DX2                !
 ! R26   R(9,31)                 1.097          estimate D2E/DX2                !
 ! R27   R(10,11)                1.5341         estimate D2E/DX2                !
 ! R28   R(10,32)                1.0941         estimate D2E/DX2                !
 ! R29   R(10,33)                1.0967         estimate D2E/DX2                !
 ! R30   R(11,12)                1.5365         estimate D2E/DX2                !
 ! R31   R(11,34)                1.0959         estimate D2E/DX2                !
 ! R32   R(11,35)                1.0969         estimate D2E/DX2                !
 ! R33   R(12,13)                1.5388         estimate D2E/DX2                !
 ! R34   R(12,36)                1.0969         estimate D2E/DX2                !
 ! R35   R(12,37)                1.0971         estimate D2E/DX2                !
 ! R36   R(13,14)                1.5343         estimate D2E/DX2                !
 ! R37   R(13,38)                1.0968         estimate D2E/DX2                !
 ! R38   R(13,39)                1.0962         estimate D2E/DX2                !
 ! R39   R(14,15)                1.4296         estimate D2E/DX2                !
 ! R40   R(14,40)                1.0931         estimate D2E/DX2                !
 ! R41   R(14,41)                1.0962         estimate D2E/DX2                !
 ! A1    A(2,1,16)             112.6062         estimate D2E/DX2                !
 ! A2    A(2,1,17)             110.4805         estimate D2E/DX2                !
 ! A3    A(2,1,18)             111.2378         estimate D2E/DX2                !
 ! A4    A(16,1,17)            107.6202         estimate D2E/DX2                !
 ! A5    A(16,1,18)            106.9888         estimate D2E/DX2                !
 ! A6    A(17,1,18)            107.684          estimate D2E/DX2                !
 ! A7    A(1,2,3)              111.0667         estimate D2E/DX2                !
 ! A8    A(1,2,8)              107.7762         estimate D2E/DX2                !
 ! A9    A(1,2,19)             107.8354         estimate D2E/DX2                !
 ! A10   A(3,2,8)              111.672          estimate D2E/DX2                !
 ! A11   A(3,2,19)             108.516          estimate D2E/DX2                !
 ! A12   A(8,2,19)             109.9024         estimate D2E/DX2                !
 ! A13   A(2,3,4)              111.8076         estimate D2E/DX2                !
 ! A14   A(2,3,20)             109.3132         estimate D2E/DX2                !
 ! A15   A(2,3,21)             110.0067         estimate D2E/DX2                !
 ! A16   A(4,3,20)             108.5115         estimate D2E/DX2                !
 ! A17   A(4,3,21)             109.9048         estimate D2E/DX2                !
 ! A18   A(20,3,21)            107.1715         estimate D2E/DX2                !
 ! A19   A(3,4,5)              110.7023         estimate D2E/DX2                !
 ! A20   A(3,4,22)             110.5086         estimate D2E/DX2                !
 ! A21   A(3,4,23)             109.5691         estimate D2E/DX2                !
 ! A22   A(5,4,22)             108.1944         estimate D2E/DX2                !
 ! A23   A(5,4,23)             110.3666         estimate D2E/DX2                !
 ! A24   A(22,4,23)            107.4372         estimate D2E/DX2                !
 ! A25   A(4,5,6)              109.6348         estimate D2E/DX2                !
 ! A26   A(4,5,24)             110.6987         estimate D2E/DX2                !
 ! A27   A(4,5,25)             110.0463         estimate D2E/DX2                !
 ! A28   A(6,5,24)             110.2593         estimate D2E/DX2                !
 ! A29   A(6,5,25)             109.9938         estimate D2E/DX2                !
 ! A30   A(24,5,25)            106.1585         estimate D2E/DX2                !
 ! A31   A(5,6,7)              109.637          estimate D2E/DX2                !
 ! A32   A(5,6,26)             110.9736         estimate D2E/DX2                !
 ! A33   A(5,6,27)             110.6349         estimate D2E/DX2                !
 ! A34   A(7,6,26)             108.6141         estimate D2E/DX2                !
 ! A35   A(7,6,27)             108.7231         estimate D2E/DX2                !
 ! A36   A(26,6,27)            108.1969         estimate D2E/DX2                !
 ! A37   A(6,7,28)             107.194          estimate D2E/DX2                !
 ! A38   A(2,8,9)              111.4314         estimate D2E/DX2                !
 ! A39   A(2,8,15)             112.5728         estimate D2E/DX2                !
 ! A40   A(2,8,29)             102.5918         estimate D2E/DX2                !
 ! A41   A(9,8,15)             111.9064         estimate D2E/DX2                !
 ! A42   A(9,8,29)             110.0447         estimate D2E/DX2                !
 ! A43   A(15,8,29)            107.8177         estimate D2E/DX2                !
 ! A44   A(8,9,10)             113.946          estimate D2E/DX2                !
 ! A45   A(8,9,30)             110.0784         estimate D2E/DX2                !
 ! A46   A(8,9,31)             109.4519         estimate D2E/DX2                !
 ! A47   A(10,9,30)            108.8209         estimate D2E/DX2                !
 ! A48   A(10,9,31)            107.4806         estimate D2E/DX2                !
 ! A49   A(30,9,31)            106.7904         estimate D2E/DX2                !
 ! A50   A(9,10,11)            113.6247         estimate D2E/DX2                !
 ! A51   A(9,10,32)            110.5642         estimate D2E/DX2                !
 ! A52   A(9,10,33)            107.6078         estimate D2E/DX2                !
 ! A53   A(11,10,32)           110.9884         estimate D2E/DX2                !
 ! A54   A(11,10,33)           109.1185         estimate D2E/DX2                !
 ! A55   A(32,10,33)           104.463          estimate D2E/DX2                !
 ! A56   A(10,11,12)           113.7305         estimate D2E/DX2                !
 ! A57   A(10,11,34)           107.9524         estimate D2E/DX2                !
 ! A58   A(10,11,35)           111.8148         estimate D2E/DX2                !
 ! A59   A(12,11,34)           107.7934         estimate D2E/DX2                !
 ! A60   A(12,11,35)           110.6549         estimate D2E/DX2                !
 ! A61   A(34,11,35)           104.34           estimate D2E/DX2                !
 ! A62   A(11,12,13)           117.5455         estimate D2E/DX2                !
 ! A63   A(11,12,36)           108.6674         estimate D2E/DX2                !
 ! A64   A(11,12,37)           107.6646         estimate D2E/DX2                !
 ! A65   A(13,12,36)           108.6398         estimate D2E/DX2                !
 ! A66   A(13,12,37)           107.6433         estimate D2E/DX2                !
 ! A67   A(36,12,37)           106.1058         estimate D2E/DX2                !
 ! A68   A(12,13,14)           113.5512         estimate D2E/DX2                !
 ! A69   A(12,13,38)           107.0181         estimate D2E/DX2                !
 ! A70   A(12,13,39)           110.6336         estimate D2E/DX2                !
 ! A71   A(14,13,38)           108.2061         estimate D2E/DX2                !
 ! A72   A(14,13,39)           112.0393         estimate D2E/DX2                !
 ! A73   A(38,13,39)           104.8578         estimate D2E/DX2                !
 ! A74   A(13,14,15)           115.5244         estimate D2E/DX2                !
 ! A75   A(13,14,40)           112.241          estimate D2E/DX2                !
 ! A76   A(13,14,41)           108.3738         estimate D2E/DX2                !
 ! A77   A(15,14,40)           109.6389         estimate D2E/DX2                !
 ! A78   A(15,14,41)           105.7043         estimate D2E/DX2                !
 ! A79   A(40,14,41)           104.56           estimate D2E/DX2                !
 ! A80   A(8,15,14)            116.6427         estimate D2E/DX2                !
 ! D1    D(16,1,2,3)            62.7987         estimate D2E/DX2                !
 ! D2    D(16,1,2,8)          -174.5801         estimate D2E/DX2                !
 ! D3    D(16,1,2,19)          -55.9804         estimate D2E/DX2                !
 ! D4    D(17,1,2,3)           -57.5687         estimate D2E/DX2                !
 ! D5    D(17,1,2,8)            65.0525         estimate D2E/DX2                !
 ! D6    D(17,1,2,19)         -176.3478         estimate D2E/DX2                !
 ! D7    D(18,1,2,3)          -177.1095         estimate D2E/DX2                !
 ! D8    D(18,1,2,8)           -54.4884         estimate D2E/DX2                !
 ! D9    D(18,1,2,19)           64.1114         estimate D2E/DX2                !
 ! D10   D(1,2,3,4)            -59.7503         estimate D2E/DX2                !
 ! D11   D(1,2,3,20)          -179.9214         estimate D2E/DX2                !
 ! D12   D(1,2,3,21)            62.6573         estimate D2E/DX2                !
 ! D13   D(8,2,3,4)            179.9102         estimate D2E/DX2                !
 ! D14   D(8,2,3,20)            59.7391         estimate D2E/DX2                !
 ! D15   D(8,2,3,21)           -57.6823         estimate D2E/DX2                !
 ! D16   D(19,2,3,4)            58.6185         estimate D2E/DX2                !
 ! D17   D(19,2,3,20)          -61.5526         estimate D2E/DX2                !
 ! D18   D(19,2,3,21)         -178.974          estimate D2E/DX2                !
 ! D19   D(1,2,8,9)             95.118          estimate D2E/DX2                !
 ! D20   D(1,2,8,15)          -138.2101         estimate D2E/DX2                !
 ! D21   D(1,2,8,29)           -22.5902         estimate D2E/DX2                !
 ! D22   D(3,2,8,9)           -142.6336         estimate D2E/DX2                !
 ! D23   D(3,2,8,15)           -15.9617         estimate D2E/DX2                !
 ! D24   D(3,2,8,29)            99.6583         estimate D2E/DX2                !
 ! D25   D(19,2,8,9)           -22.1494         estimate D2E/DX2                !
 ! D26   D(19,2,8,15)          104.5225         estimate D2E/DX2                !
 ! D27   D(19,2,8,29)         -139.8575         estimate D2E/DX2                !
 ! D28   D(2,3,4,5)           -178.5361         estimate D2E/DX2                !
 ! D29   D(2,3,4,22)            61.613          estimate D2E/DX2                !
 ! D30   D(2,3,4,23)           -56.585          estimate D2E/DX2                !
 ! D31   D(20,3,4,5)           -57.8969         estimate D2E/DX2                !
 ! D32   D(20,3,4,22)         -177.7478         estimate D2E/DX2                !
 ! D33   D(20,3,4,23)           64.0542         estimate D2E/DX2                !
 ! D34   D(21,3,4,5)            58.9981         estimate D2E/DX2                !
 ! D35   D(21,3,4,22)          -60.8528         estimate D2E/DX2                !
 ! D36   D(21,3,4,23)         -179.0508         estimate D2E/DX2                !
 ! D37   D(3,4,5,6)           -179.324          estimate D2E/DX2                !
 ! D38   D(3,4,5,24)            58.8179         estimate D2E/DX2                !
 ! D39   D(3,4,5,25)           -58.2183         estimate D2E/DX2                !
 ! D40   D(22,4,5,6)           -58.0954         estimate D2E/DX2                !
 ! D41   D(22,4,5,24)         -179.9535         estimate D2E/DX2                !
 ! D42   D(22,4,5,25)           63.0103         estimate D2E/DX2                !
 ! D43   D(23,4,5,6)            59.1938         estimate D2E/DX2                !
 ! D44   D(23,4,5,24)          -62.6643         estimate D2E/DX2                !
 ! D45   D(23,4,5,25)         -179.7005         estimate D2E/DX2                !
 ! D46   D(4,5,6,7)            179.3442         estimate D2E/DX2                !
 ! D47   D(4,5,6,26)            59.3621         estimate D2E/DX2                !
 ! D48   D(4,5,6,27)           -60.752          estimate D2E/DX2                !
 ! D49   D(24,5,6,7)           -58.5349         estimate D2E/DX2                !
 ! D50   D(24,5,6,26)         -178.5171         estimate D2E/DX2                !
 ! D51   D(24,5,6,27)           61.3689         estimate D2E/DX2                !
 ! D52   D(25,5,6,7)            58.2068         estimate D2E/DX2                !
 ! D53   D(25,5,6,26)          -61.7754         estimate D2E/DX2                !
 ! D54   D(25,5,6,27)          178.1106         estimate D2E/DX2                !
 ! D55   D(5,6,7,28)           -57.6907         estimate D2E/DX2                !
 ! D56   D(26,6,7,28)           63.7219         estimate D2E/DX2                !
 ! D57   D(27,6,7,28)         -178.7561         estimate D2E/DX2                !
 ! D58   D(2,8,9,10)          -158.9488         estimate D2E/DX2                !
 ! D59   D(2,8,9,30)            78.4926         estimate D2E/DX2                !
 ! D60   D(2,8,9,31)           -38.59           estimate D2E/DX2                !
 ! D61   D(15,8,9,10)           74.0158         estimate D2E/DX2                !
 ! D62   D(15,8,9,30)          -48.5428         estimate D2E/DX2                !
 ! D63   D(15,8,9,31)         -165.6254         estimate D2E/DX2                !
 ! D64   D(29,8,9,10)          -45.8378         estimate D2E/DX2                !
 ! D65   D(29,8,9,30)         -168.3965         estimate D2E/DX2                !
 ! D66   D(29,8,9,31)           74.5209         estimate D2E/DX2                !
 ! D67   D(2,8,15,14)          158.6036         estimate D2E/DX2                !
 ! D68   D(9,8,15,14)          -74.9791         estimate D2E/DX2                !
 ! D69   D(29,8,15,14)          46.1713         estimate D2E/DX2                !
 ! D70   D(8,9,10,11)           40.418          estimate D2E/DX2                !
 ! D71   D(8,9,10,32)          -85.1486         estimate D2E/DX2                !
 ! D72   D(8,9,10,33)          161.3401         estimate D2E/DX2                !
 ! D73   D(30,9,10,11)         163.663          estimate D2E/DX2                !
 ! D74   D(30,9,10,32)          38.0965         estimate D2E/DX2                !
 ! D75   D(30,9,10,33)         -75.4148         estimate D2E/DX2                !
 ! D76   D(31,9,10,11)         -81.0404         estimate D2E/DX2                !
 ! D77   D(31,9,10,32)         153.393          estimate D2E/DX2                !
 ! D78   D(31,9,10,33)          39.8817         estimate D2E/DX2                !
 ! D79   D(9,10,11,12)        -100.5555         estimate D2E/DX2                !
 ! D80   D(9,10,11,34)         139.885          estimate D2E/DX2                !
 ! D81   D(9,10,11,35)          25.6725         estimate D2E/DX2                !
 ! D82   D(32,10,11,12)         24.785          estimate D2E/DX2                !
 ! D83   D(32,10,11,34)        -94.7745         estimate D2E/DX2                !
 ! D84   D(32,10,11,35)        151.013          estimate D2E/DX2                !
 ! D85   D(33,10,11,12)        139.3738         estimate D2E/DX2                !
 ! D86   D(33,10,11,34)         19.8142         estimate D2E/DX2                !
 ! D87   D(33,10,11,35)        -94.3983         estimate D2E/DX2                !
 ! D88   D(10,11,12,13)         67.8226         estimate D2E/DX2                !
 ! D89   D(10,11,12,36)        -56.0059         estimate D2E/DX2                !
 ! D90   D(10,11,12,37)       -170.5187         estimate D2E/DX2                !
 ! D91   D(34,11,12,13)       -172.5276         estimate D2E/DX2                !
 ! D92   D(34,11,12,36)         63.6438         estimate D2E/DX2                !
 ! D93   D(34,11,12,37)        -50.869          estimate D2E/DX2                !
 ! D94   D(35,11,12,13)        -59.0138         estimate D2E/DX2                !
 ! D95   D(35,11,12,36)        177.1576         estimate D2E/DX2                !
 ! D96   D(35,11,12,37)         62.6448         estimate D2E/DX2                !
 ! D97   D(11,12,13,14)        -64.879          estimate D2E/DX2                !
 ! D98   D(11,12,13,38)        175.7907         estimate D2E/DX2                !
 ! D99   D(11,12,13,39)         62.1001         estimate D2E/DX2                !
 ! D100  D(36,12,13,14)         58.9634         estimate D2E/DX2                !
 ! D101  D(36,12,13,38)        -60.3669         estimate D2E/DX2                !
 ! D102  D(36,12,13,39)       -174.0574         estimate D2E/DX2                !
 ! D103  D(37,12,13,14)        173.4514         estimate D2E/DX2                !
 ! D104  D(37,12,13,38)         54.1211         estimate D2E/DX2                !
 ! D105  D(37,12,13,39)        -59.5694         estimate D2E/DX2                !
 ! D106  D(12,13,14,15)        100.31           estimate D2E/DX2                !
 ! D107  D(12,13,14,40)        -26.391          estimate D2E/DX2                !
 ! D108  D(12,13,14,41)       -141.3529         estimate D2E/DX2                !
 ! D109  D(38,13,14,15)       -141.0404         estimate D2E/DX2                !
 ! D110  D(38,13,14,40)         92.2586         estimate D2E/DX2                !
 ! D111  D(38,13,14,41)        -22.7033         estimate D2E/DX2                !
 ! D112  D(39,13,14,15)        -25.9301         estimate D2E/DX2                !
 ! D113  D(39,13,14,40)       -152.6311         estimate D2E/DX2                !
 ! D114  D(39,13,14,41)         92.407          estimate D2E/DX2                !
 ! D115  D(13,14,15,8)         -40.6234         estimate D2E/DX2                !
 ! D116  D(40,14,15,8)          87.3823         estimate D2E/DX2                !
 ! D117  D(41,14,15,8)        -160.4322         estimate D2E/DX2                !
 --------------------------------------------------------------------------------
 Trust Radius=3.00D-01 FncErr=1.00D-07 GrdErr=1.00D-06 EigMax=2.50D+02 EigMin=1.00D-04
 Number of steps in this run=    246 maximum allowed number of steps=    246.
 GradGradGradGradGradGradGradGradGradGradGradGradGradGradGradGradGradGrad

                          Input orientation:                          
 ---------------------------------------------------------------------
 Center     Atomic      Atomic             Coordinates (Angstroms)
 Number     Number       Type             X           Y           Z
 ---------------------------------------------------------------------
      1          6           0        0.941880   -0.075850    0.079350
      2          6           0        2.485790   -0.005760    0.021620
      3          6           0        2.952890    0.923280   -1.102140
      4          6           0        2.462080    0.455280   -2.462310
      5          6           0        2.968310    1.372040   -3.559580
      6          6           0        2.450960    0.892820   -4.903710
      7          8           0        2.912150    1.759310   -5.928750
      8          6           0        2.989010    0.472300    1.404530
      9          6           0        3.368620   -0.709730    2.301080
     10          6           0        3.381680   -0.377060    3.795730
     11          6           0        2.222700    0.527200    4.234430
     12          6           0        2.617680    2.002960    4.398230
     13          6           0        2.991490    2.784930    3.126740
     14          6           0        4.260630    2.265620    2.438550
     15          8           0        4.045290    1.423660    1.303380
     16          1           0        0.506450   -0.496380   -0.829650
     17          1           0        0.516600    0.927170    0.218480
     18          1           0        0.604110   -0.698950    0.913730
     19          1           0        2.860790   -1.016770   -0.183420
     20          1           0        4.050090    0.950650   -1.118060
     21          1           0        2.605940    1.947010   -0.911630
     22          1           0        1.368170    0.454080   -2.495610
     23          1           0        2.797410   -0.573750   -2.639720
     24          1           0        4.064290    1.403060   -3.563740
     25          1           0        2.634430    2.400630   -3.374140
     26          1           0        1.355780    0.882360   -4.921210
     27          1           0        2.805590   -0.120080   -5.114320
     28          1           0        2.603670    2.649790   -5.710700
     29          1           0        2.122780    0.980790    1.807990
     30          1           0        4.355600   -1.097540    2.015820
     31          1           0        2.651880   -1.526580    2.151570
     32          1           0        4.345300    0.052620    4.085410
     33          1           0        3.327130   -1.323650    4.346760
     34          1           0        1.862110    0.167350    5.204720
     35          1           0        1.355800    0.430210    3.569460
     36          1           0        3.452490    2.066400    5.106980
     37          1           0        1.775680    2.522270    4.872480
     38          1           0        3.166600    3.824620    3.429130
     39          1           0        2.140050    2.832130    2.437960
     40          1           0        4.938500    1.771320    3.139260
     41          1           0        4.828560    3.126100    2.066260
 ---------------------------------------------------------------------
                    Distance matrix (angstroms):
                    1          2          3          4          5
     1  C    0.000000
     2  C    1.546578   0.000000
     3  C    2.537389   1.531057   0.000000
     4  C    3.008844   2.526466   1.519862   0.000000
     5  C    4.409605   3.867318   2.498126   1.516812   0.000000
     6  C    5.295898   5.006749   3.834683   2.480322   1.517889
     7  O    6.583847   6.221267   4.898650   3.730853   2.401270
     8  C    2.499462   1.547324   2.547171   3.902614   5.045032
     9  C    3.350665   2.543796   3.797560   4.986878   6.232283
    10  C    4.455876   3.896715   5.085654   6.379774   7.571711
    11  C    4.389631   4.254531   5.400837   6.701403   7.875042
    12  C    5.077645   4.817371   5.615349   7.034667   7.990478
    13  C    4.655271   4.205408   4.620677   6.078242   6.834008
    14  C    4.697064   3.761752   4.006064   5.525445   6.200495
    15  O    3.657586   2.473498   2.688911   4.198182   4.981057
    16  H    1.092120   2.209786   2.841611   2.719508   4.123623
    17  H    1.098303   2.187881   2.771202   3.345775   4.525763
    18  H    1.094775   2.194788   3.494586   4.022679   5.467078
    19  H    2.153275   1.097637   2.148563   2.742123   4.137201
    20  H    3.485464   2.158848   1.097657   2.138732   2.703486
    21  H    2.800553   2.167649   1.097584   2.156516   2.733778
    22  H    2.663263   2.792306   2.161769   1.094417   2.129585
    23  H    3.329300   2.739060   2.151610   1.096733   2.159039
    24  H    5.020829   4.163081   2.743150   2.162987   1.096427
    25  H    4.574306   4.164612   2.728729   2.155348   1.097206
    26  H    5.108334   5.147548   4.139774   2.729924   2.166582
    27  H    5.518114   5.147157   4.148239   2.735360   2.161045
    28  H    6.611758   6.318650   4.933722   3.922749   2.528423
    29  H    2.345039   2.072722   3.026755   4.315872   5.447826
    30  H    4.055521   2.943638   3.971522   5.103951   6.253678
    31  H    3.053328   2.622435   4.083999   5.025105   6.412438
    32  H    5.258164   4.469404   5.441280   6.825049   7.879267
    33  H    5.045514   4.599079   5.905867   7.090581   8.360963
    34  H    5.213002   5.223358   6.444976   7.695857   8.915599
    35  H    3.550816   3.748882   4.961619   6.132433   7.369562
    36  H    6.014105   5.575773   6.333206   7.801972   8.707803
    37  H    5.515392   5.515980   6.295925   7.651323   8.593313
    38  H    5.602149   5.171696   5.384780   6.823332   7.409220
    39  H    3.931285   3.743241   4.103258   5.455801   6.228030
    40  H    5.361722   4.346663   4.759337   6.264360   6.993964
    41  H    5.413555   4.413351   4.290607   5.765540   6.179590
                    6          7          8          9         10
     6  C    0.000000
     7  O    1.419228   0.000000
     8  C    6.345095   7.445757   0.000000
     9  C    7.437692   8.604338   1.531372   0.000000
    10  C    8.840763   9.967449   2.567769   1.531280   0.000000
    11  C    9.148299  10.260783   2.932333   2.565340   1.534073
    12  C    9.369434  10.334050   3.382757   3.510076   2.571225
    13  C    8.268034   9.113731   2.883448   3.610622   3.255453
    14  C    7.685588   8.490374   2.429447   3.109226   3.098104
    15  O    6.430525   7.328054   1.425147   2.450437   3.145597
    16  H    4.723236   6.072590   3.477500   4.247235   5.447506
    17  H    5.475378   6.649778   2.779646   3.892388   4.765125
    18  H    6.307709   7.628212   2.701936   3.093117   4.015524
    19  H    5.108388   6.381072   2.180678   2.554389   4.063765
    20  H    4.109952   5.009149   2.778159   3.861578   5.133704
    21  H    4.131832   5.029959   2.772383   4.238096   5.306818
    22  H    2.676541   3.984213   4.223570   5.325832   6.657776
    23  H    2.719652   4.034111   4.181733   4.975568   6.464911
    24  H    2.158402   2.654734   5.167809   6.272476   7.602406
    25  H    2.155629   2.648481   5.165256   6.513179   7.725347
    26  H    1.095370   2.050967   6.546035   7.664708   9.037447
    27  H    1.093657   2.051038   6.548279   7.460084   8.932352
    28  H    1.939458   0.967295   7.450936   8.721247  10.006964
    29  H    6.720294   7.815775   1.082449   2.157108   2.716560
    30  H    7.447757   8.565123   2.169249   1.098135   2.153066
    31  H    7.461290   8.726763   2.160381   1.096956   2.134775
    32  H    9.224898  10.259148   3.033607   2.172306   1.094122
    33  H    9.552571  10.736059   3.463593   2.136218   1.096651
    34  H   10.151522  11.295622   3.975468   3.386734   2.142598
    35  H    8.556167   9.716209   2.712207   2.638123   2.192504
    36  H   10.128883  11.053217   4.057598   3.948038   2.773966
    37  H    9.934032  10.887619   4.207282   4.426667   3.484931
    38  H    8.862495   9.586458   3.920280   4.676926   4.223123
    39  H    7.599849   8.470473   2.712473   3.751385   3.699201
    40  H    8.464572   9.291665   2.915005   3.053306   2.733163
    41  H    7.695518   8.334322   3.296132   4.110980   4.166132
                   11         12         13         14         15
    11  C    0.000000
    12  C    1.536459   0.000000
    13  C    2.629707   1.538798   0.000000
    14  C    3.224973   2.570724   1.534277   0.000000
    15  O    3.566024   3.457131   2.507627   1.429643   0.000000
    16  H    5.444092   6.167230   5.709242   5.692420   4.556288
    17  H    4.381622   4.800226   4.246684   4.553891   3.724938
    18  H    3.892342   4.847321   4.768062   4.948120   4.061899
    19  H    4.723177   5.492667   5.042536   4.428133   3.093431
    20  H    5.671668   5.795568   4.743790   3.797756   2.467212
    21  H    5.352071   5.310168   4.142365   3.750096   2.692934
    22  H    6.784468   7.175328   6.299115   5.999495   4.747566
    23  H    6.985436   7.496965   6.676111   5.999322   4.592917
    24  H    8.060399   8.114526   6.915417   6.067128   4.867201
    25  H    7.846630   7.782555   6.522010   6.037393   4.982388
    26  H    9.203447   9.471014   8.429995   8.032287   6.802352
    27  H    9.389242   9.748396   8.740064   8.053232   6.716164
    28  H   10.176254  10.129613   8.846978   8.324865   7.264914
    29  H    2.470494   2.828268   2.397640   2.572702   2.036372
    30  H    3.480125   4.278942   4.262454   3.390953   2.638240
    31  H    2.956436   4.184053   4.433442   4.129312   3.371192
    32  H    2.180106   2.624186   3.196462   2.759834   3.115999
    33  H    2.158247   3.401809   4.299015   4.170797   4.162406
    34  H    1.095892   2.142610   3.527779   4.219873   4.643818
    35  H    1.096863   2.180079   2.901067   3.617420   3.654507
    36  H    2.154731   1.096932   2.156422   2.795228   3.902807
    37  H    2.141784   1.097069   2.143547   3.487816   4.369960
    38  H    3.523128   2.135161   1.096840   2.146772   3.324984
    39  H    2.923498   2.181355   1.096173   2.194947   2.626975
    40  H    3.181635   2.650447   2.195088   1.093085   2.071026
    41  H    4.271504   3.404044   2.148451   1.096162   2.023314
                   16         17         18         19         20
    16  H    0.000000
    17  H    1.767816   0.000000
    18  H    1.757824   1.770677   0.000000
    19  H    2.496264   3.071751   2.529299   0.000000
    20  H    3.838549   3.777889   4.327139   2.481678   0.000000
    21  H    3.222535   2.585066   3.786868   3.062553   1.766611
    22  H    2.102703   2.883621   3.679248   3.120503   3.055638
    23  H    2.920760   3.952741   4.177708   2.496737   2.491676
    24  H    4.872509   5.207472   6.036475   4.327881   2.487213
    25  H    4.404020   4.423031   5.667047   4.680871   3.032562
    26  H    4.400358   5.207941   6.091968   5.321504   4.661322
    27  H    4.877094   5.897030   6.443523   5.012073   4.320340
    28  H    6.174250   6.517550   7.687351   6.637816   5.106031
    29  H    3.428075   2.260361   2.434663   2.915582   3.503884
    30  H    4.824318   4.697638   3.930287   2.660383   3.756278
    31  H    3.814689   3.783801   2.531913   2.399110   4.333837
    32  H    6.260670   5.511527   4.961947   4.644381   5.288639
    33  H    5.952800   5.477953   4.426148   4.564447   5.963168
    34  H    6.220287   5.220183   4.554738   5.606385   6.736346
    35  H    4.575165   3.490028   2.982104   4.294514   5.431657
    36  H    7.105672   5.815043   5.774407   6.151778   6.352413
    37  H    6.575521   5.078321   5.236462   6.266131   6.597689
    38  H    6.624549   5.072079   5.775489   6.048396   5.451348
    39  H    4.942156   3.345229   4.141366   4.712232   4.453482
    40  H    6.366928   5.366260   5.462797   4.809421   4.425782
    41  H    6.339502   5.180983   5.814233   5.108478   3.934271
                   21         22         23         24         25
    21  H    0.000000
    22  H    2.503978   0.000000
    23  H    3.062219   1.766332   0.000000
    24  H    3.075118   3.051316   2.523207   0.000000
    25  H    2.504104   2.482798   3.068040   1.753737   0.000000
    26  H    4.332795   2.463151   3.066553   3.074066   2.516648
    27  H    4.687785   3.041953   2.515855   2.511689   3.067817
    28  H    4.850255   4.084655   4.456418   2.880483   2.350008
    29  H    2.926322   4.400890   4.759605   5.727413   5.397426
    30  H    4.571713   5.628966   4.937243   6.121221   6.652164
    31  H    4.631537   5.212217   4.887282   6.575900   6.779141
    32  H    5.620008   7.234245   6.929334   7.772525   8.005318
    33  H    6.234420   7.335930   7.046549   8.399664   8.600139
    34  H    6.413284   7.721481   7.934687   9.124827   8.898363
    35  H    4.893230   6.065130   6.452913   7.691872   7.330145
    36  H    6.079027   8.046325   8.210413   8.717552   8.527035
    37  H    5.871642   7.663695   8.189165   8.812501   8.292104
    38  H    4.762558   7.049641   7.504192   7.454531   6.971043
    39  H    3.495747   5.530916   6.149388   6.462611   5.849026
    40  H    4.677757   6.799569   6.593954   6.769791   6.937518
    41  H    3.898477   6.318595   6.321448   5.937161   5.910877
                   26         27         28         29         30
    26  H    0.000000
    27  H    1.773168   0.000000
    28  H    2.303114   2.840532   0.000000
    29  H    6.773486   7.042480   7.716704   0.000000
    30  H    7.812894   7.361851   8.764180   3.057472   0.000000
    31  H    7.583343   7.402366   8.902791   2.585517   1.762148
    32  H    9.526012   9.329285  10.283109   3.314775   2.367737
    33  H    9.728719   9.551577  10.838087   3.634041   2.557764
    34  H   10.163762  10.366068  11.218681   3.502486   4.241052
    35  H    8.502701   8.821153   9.623154   1.998543   3.707643
    36  H   10.313231  10.472543  10.866602   3.718873   4.514576
    37  H    9.938913  10.381662  10.616286   3.447860   5.283892
    38  H    9.036821   9.417087   9.232205   3.435844   5.257264
    39  H    7.653370   8.136057   8.163875   1.955664   4.530913
    40  H    8.865512   8.732026   9.194832   3.213331   3.135641
    41  H    8.119071   8.135774   8.102969   3.462702   4.250338
                   31         32         33         34         35
    31  H    0.000000
    32  H    3.016833   0.000000
    33  H    2.305646   1.731789   0.000000
    34  H    3.579785   2.726215   2.259526   0.000000
    35  H    2.742127   3.057105   2.750702   1.731912   0.000000
    36  H    4.720692   2.428173   3.476505   2.478962   3.072002
    37  H    4.956235   3.649876   4.180249   2.379811   2.500175
    38  H    5.525616   4.005998   5.231873   4.269665   3.849767
    39  H    4.397993   3.911891   4.724742   3.851398   2.768494
    40  H    4.132833   2.049638   3.692345   4.037700   3.849596
    41  H    5.137377   3.709014   5.220656   5.234879   4.646235
                   36         37         38         39         40
    36  H    0.000000
    37  H    1.753425   0.000000
    38  H    2.447090   2.390404   0.000000
    39  H    3.071239   2.481062   1.738177   0.000000
    40  H    2.483389   3.683939   2.727580   3.073835   0.000000
    41  H    3.501787   4.190413   2.259968   2.729957   1.731717
                   41
    41  H    0.000000
 Stoichiometry    C13H26O2
 Framework group  C1[X(C13H26O2)]
 Deg. of freedom   117
 Full point group                 C1      NOp   1
 Largest Abelian subgroup         C1      NOp   1
 Largest concise Abelian subgroup C1      NOp   1
                         Standard orientation:                         
 ---------------------------------------------------------------------
 Center     Atomic      Atomic             Coordinates (Angstroms)
 Number     Number       Type             X           Y           Z
 ---------------------------------------------------------------------
      1          6           0       -0.298856   -1.738157    1.249968
      2          6           0       -0.282123   -0.992462   -0.104861
      3          6           0       -1.396067    0.055889   -0.169845
      4          6           0       -2.771135   -0.570473   -0.006014
      5          6           0       -3.856520    0.483956   -0.110127
      6          6           0       -5.216691   -0.164322    0.073332
      7          8           0       -6.231358    0.824558   -0.008981
      8          6           0        1.116105   -0.351765   -0.274208
      9          6           0        2.048483   -1.251082   -1.090910
     10          6           0        3.536609   -0.958293   -0.879784
     11          6           0        3.903954   -0.662774    0.580046
     12          6           0        4.063813    0.834295    0.886534
     13          6           0        2.800068    1.710618    0.832640
     14          6           0        2.182939    1.810986   -0.568461
     15          8           0        1.051880    0.969226   -0.805153
     16          1           0       -1.221382   -2.300898    1.408064
     17          1           0       -0.196358   -1.027486    2.081057
     18          1           0        0.527637   -2.452717    1.319582
     19          1           0       -0.452778   -1.732022   -0.897790
     20          1           0       -1.358751    0.565506   -1.141311
     21          1           0       -1.238750    0.819366    0.602842
     22          1           0       -2.857853   -1.054787    0.971569
     23          1           0       -2.915855   -1.343940   -0.769970
     24          1           0       -3.807576    0.996219   -1.078292
     25          1           0       -3.703703    1.257609    0.652743
     26          1           0       -5.287548   -0.657624    1.048764
     27          1           0       -5.393875   -0.914538   -0.702469
     28          1           0       -6.042577    1.485305    0.671780
     29          1           0        1.468746   -0.281589    0.746780
     30          1           0        1.817906   -1.160540   -2.160739
     31          1           0        1.876879   -2.299438   -0.817385
     32          1           0        3.866312   -0.149175   -1.538364
     33          1           0        4.099022   -1.835682   -1.221138
     34          1           0        4.860953   -1.152322    0.793295
     35          1           0        3.198992   -1.127865    1.279922
     36          1           0        4.811453    1.254775    0.202801
     37          1           0        4.488167    0.924347    1.894192
     38          1           0        3.094392    2.718303    1.150452
     39          1           0        2.069832    1.381879    1.581160
     40          1           0        2.923582    1.661874   -1.358428
     41          1           0        1.825474    2.836680   -0.715906
 ---------------------------------------------------------------------
 Rotational constants (GHZ):           1.3331346           0.2091498           0.1974089
 Standard basis: 6-31G(2df,p) (6D, 7F)
 There are   595 symmetry adapted cartesian basis functions of A   symmetry.
 There are   550 symmetry adapted basis functions of A   symmetry.
   550 basis functions,   842 primitive gaussians,   595 cartesian basis functions
    60 alpha electrons       60 beta electrons
       nuclear repulsion energy      1081.9118090374 Hartrees.
 NAtoms=   41 NActive=   41 NUniq=   41 SFac= 1.00D+00 NAtFMM=   60 NAOKFM=F Big=F
 Integral buffers will be    131072 words long.
 Raffenetti 2 integral format.
 Two-electron integral symmetry is turned on.
 One-electron integrals computed using PRISM.
 PrsmSu:  requested number of processors reduced to:  12 ShMem   1 Linda.
 NBasis=   550 RedAO= T EigKep=  4.27D-04  NBF=   550
 NBsUse=   550 1.00D-06 EigRej= -1.00D+00 NBFU=   550
 ExpMin= 1.61D-01 ExpMax= 5.48D+03 ExpMxC= 8.25D+02 IAcc=3 IRadAn=         5 AccDes= 0.00D+00
 Harris functional with IExCor=  402 and IRadAn=       5 diagonalized for initial guess.
 HarFok:  IExCor=  402 AccDes= 0.00D+00 IRadAn=         5 IDoV= 1 UseB2=F ITyADJ=14
 ICtDFT=  3500011 ScaDFX=  1.000000  1.000000  1.000000  1.000000
 FoFCou: FMM=F IPFlag=           0 FMFlag=      100000 FMFlg1=           0
         NFxFlg=           0 DoJE=T BraDBF=F KetDBF=T FulRan=T
         wScrn=  0.000000 ICntrl=       500 IOpCl=  0 I1Cent=   200000004 NGrid=           0
         NMat0=    1 NMatS0=      1 NMatT0=    0 NMatD0=    1 NMtDS0=    0 NMtDT0=    0
 Petite list used in FoFCou.
 Requested convergence on RMS density matrix=1.00D-08 within 128 cycles.
 Requested convergence on MAX density matrix=1.00D-06.
 Requested convergence on             energy=1.00D-06.
 No special actions if energy rises.
 Integral accuracy reduced to 1.0D-05 until final iterations.
 Initial convergence to 1.0D-05 achieved.  Increase integral accuracy.
 SCF Done:  E(RB3LYP) =  -661.509704994     A.U. after   12 cycles
            NFock= 12  Conv=0.52D-08     -V/T= 2.0078

 **********************************************************************

            Population analysis using the SCF density.

 **********************************************************************

 Orbital symmetries:
       Occupied  (A) (A) (A) (A) (A) (A) (A) (A) (A) (A) (A) (A)
                 (A) (A) (A) (A) (A) (A) (A) (A) (A) (A) (A) (A)
                 (A) (A) (A) (A) (A) (A) (A) (A) (A) (A) (A) (A)
                 (A) (A) (A) (A) (A) (A) (A) (A) (A) (A) (A) (A)
                 (A) (A) (A) (A) (A) (A) (A) (A) (A) (A) (A) (A)
       Virtual   (A) (A) (A) (A) (A) (A) (A) (A) (A) (A) (A) (A)
                 (A) (A) (A) (A) (A) (A) (A) (A) (A) (A) (A) (A)
                 (A) (A) (A) (A) (A) (A) (A) (A) (A) (A) (A) (A)
                 (A) (A) (A) (A) (A) (A) (A) (A) (A) (A) (A) (A)
                 (A) (A) (A) (A) (A) (A) (A) (A) (A) (A) (A) (A)
                 (A) (A) (A) (A) (A) (A) (A) (A) (A) (A) (A) (A)
                 (A) (A) (A) (A) (A) (A) (A) (A) (A) (A) (A) (A)
                 (A) (A) (A) (A) (A) (A) (A) (A) (A) (A) (A) (A)
                 (A) (A) (A) (A) (A) (A) (A) (A) (A) (A) (A) (A)
                 (A) (A) (A) (A) (A) (A) (A) (A) (A) (A) (A) (A)
                 (A) (A) (A) (A) (A) (A) (A) (A) (A) (A) (A) (A)
                 (A) (A) (A) (A) (A) (A) (A) (A) (A) (A) (A) (A)
                 (A) (A) (A) (A) (A) (A) (A) (A) (A) (A) (A) (A)
                 (A) (A) (A) (A) (A) (A) (A) (A) (A) (A) (A) (A)
                 (A) (A) (A) (A) (A) (A) (A) (A) (A) (A) (A) (A)
                 (A) (A) (A) (A) (A) (A) (A) (A) (A) (A) (A) (A)
                 (A) (A) (A) (A) (A) (A) (A) (A) (A) (A) (A) (A)
                 (A) (A) (A) (A) (A) (A) (A) (A) (A) (A) (A) (A)
                 (A) (A) (A) (A) (A) (A) (A) (A) (A) (A) (A) (A)
                 (A) (A) (A) (A) (A) (A) (A) (A) (A) (A) (A) (A)
                 (A) (A) (A) (A) (A) (A) (A) (A) (A) (A) (A) (A)
                 (A) (A) (A) (A) (A) (A) (A) (A) (A) (A) (A) (A)
                 (A) (A) (A) (A) (A) (A) (A) (A) (A) (A) (A) (A)
                 (A) (A) (A) (A) (A) (A) (A) (A) (A) (A) (A) (A)
                 (A) (A) (A) (A) (A) (A) (A) (A) (A) (A) (A) (A)
                 (A) (A) (A) (A) (A) (A) (A) (A) (A) (A) (A) (A)
                 (A) (A) (A) (A) (A) (A) (A) (A) (A) (A) (A) (A)
                 (A) (A) (A) (A) (A) (A) (A) (A) (A) (A) (A) (A)
                 (A) (A) (A) (A) (A) (A) (A) (A) (A) (A) (A) (A)
                 (A) (A) (A) (A) (A) (A) (A) (A) (A) (A) (A) (A)
                 (A) (A) (A) (A) (A) (A) (A) (A) (A) (A) (A) (A)
                 (A) (A) (A) (A) (A) (A) (A) (A) (A) (A) (A) (A)
                 (A) (A) (A) (A) (A) (A) (A) (A) (A) (A) (A) (A)
                 (A) (A) (A) (A) (A) (A) (A) (A) (A) (A) (A) (A)
                 (A) (A) (A) (A) (A) (A) (A) (A) (A) (A) (A) (A)
                 (A) (A) (A) (A) (A) (A) (A) (A) (A) (A) (A) (A)
                 (A) (A) (A) (A) (A) (A) (A) (A) (A) (A) (A) (A)
                 (A) (A) (A) (A) (A) (A) (A) (A) (A) (A) (A) (A)
                 (A) (A) (A) (A) (A) (A) (A) (A) (A) (A) (A) (A)
                 (A) (A) (A) (A) (A) (A) (A) (A) (A) (A) (A) (A)
                 (A) (A) (A) (A) (A) (A) (A) (A) (A) (A)
 The electronic state is 1-A.
 Alpha  occ. eigenvalues --  -19.12654 -19.12059 -10.22085 -10.21507 -10.21506
 Alpha  occ. eigenvalues --  -10.18123 -10.17945 -10.17865 -10.17684 -10.17357
 Alpha  occ. eigenvalues --  -10.17221 -10.17181 -10.16966 -10.16935 -10.16457
 Alpha  occ. eigenvalues --   -1.01576  -1.00338  -0.81663  -0.80652  -0.78472
 Alpha  occ. eigenvalues --   -0.75744  -0.70657  -0.69601  -0.68567  -0.63294
 Alpha  occ. eigenvalues --   -0.60524  -0.59580  -0.58428  -0.55790  -0.54222
 Alpha  occ. eigenvalues --   -0.49615  -0.49487  -0.48108  -0.46390  -0.44790
 Alpha  occ. eigenvalues --   -0.43798  -0.43650  -0.42910  -0.42413  -0.41971
 Alpha  occ. eigenvalues --   -0.41114  -0.40337  -0.38900  -0.37664  -0.36614
 Alpha  occ. eigenvalues --   -0.36198  -0.36142  -0.34791  -0.34560  -0.33602
 Alpha  occ. eigenvalues --   -0.32769  -0.32383  -0.32102  -0.31598  -0.31353
 Alpha  occ. eigenvalues --   -0.30975  -0.29464  -0.27791  -0.25053  -0.23669
 Alpha virt. eigenvalues --    0.07824   0.08188   0.08337   0.09343   0.10544
 Alpha virt. eigenvalues --    0.10781   0.11491   0.12599   0.12890   0.13504
 Alpha virt. eigenvalues --    0.14212   0.14453   0.15558   0.15926   0.16313
 Alpha virt. eigenvalues --    0.17070   0.17750   0.18019   0.18634   0.18814
 Alpha virt. eigenvalues --    0.19744   0.19986   0.20200   0.20970   0.21863
 Alpha virt. eigenvalues --    0.21934   0.22131   0.22440   0.23122   0.24028
 Alpha virt. eigenvalues --    0.24744   0.25678   0.25883   0.26173   0.27296
 Alpha virt. eigenvalues --    0.28521   0.30999   0.32593   0.33536   0.34130
 Alpha virt. eigenvalues --    0.36304   0.43616   0.44050   0.45745   0.47042
 Alpha virt. eigenvalues --    0.47632   0.48491   0.48955   0.49211   0.50212
 Alpha virt. eigenvalues --    0.50706   0.51663   0.52855   0.53648   0.54285
 Alpha virt. eigenvalues --    0.54564   0.55870   0.55991   0.57168   0.58483
 Alpha virt. eigenvalues --    0.58784   0.59844   0.60274   0.60508   0.61374
 Alpha virt. eigenvalues --    0.62623   0.63486   0.64287   0.65075   0.65195
 Alpha virt. eigenvalues --    0.66199   0.67834   0.68860   0.69723   0.70455
 Alpha virt. eigenvalues --    0.71320   0.72334   0.72428   0.73176   0.73315
 Alpha virt. eigenvalues --    0.73654   0.73939   0.74909   0.75341   0.76021
 Alpha virt. eigenvalues --    0.76333   0.76567   0.77547   0.78474   0.78555
 Alpha virt. eigenvalues --    0.79169   0.80197   0.80645   0.81388   0.82398
 Alpha virt. eigenvalues --    0.83662   0.84441   0.85505   0.85938   0.86259
 Alpha virt. eigenvalues --    0.86724   0.87566   0.88178   0.88836   0.89645
 Alpha virt. eigenvalues --    0.90244   0.90698   0.91863   0.92859   0.93059
 Alpha virt. eigenvalues --    0.94795   0.95987   0.97320   0.98709   1.00612
 Alpha virt. eigenvalues --    1.01029   1.02380   1.06686   1.07380   1.08445
 Alpha virt. eigenvalues --    1.10857   1.12745   1.13739   1.14801   1.15604
 Alpha virt. eigenvalues --    1.15714   1.18103   1.19397   1.20706   1.21617
 Alpha virt. eigenvalues --    1.22292   1.23622   1.24149   1.26001   1.27557
 Alpha virt. eigenvalues --    1.29633   1.31611   1.32935   1.33627   1.34216
 Alpha virt. eigenvalues --    1.36170   1.36525   1.37553   1.38658   1.40212
 Alpha virt. eigenvalues --    1.40585   1.42326   1.43894   1.44370   1.45060
 Alpha virt. eigenvalues --    1.45990   1.47237   1.47574   1.48739   1.51020
 Alpha virt. eigenvalues --    1.51392   1.52904   1.54037   1.55903   1.56929
 Alpha virt. eigenvalues --    1.57822   1.58559   1.59349   1.60420   1.61521
 Alpha virt. eigenvalues --    1.61833   1.63161   1.63372   1.66315   1.66537
 Alpha virt. eigenvalues --    1.67925   1.68801   1.70399   1.71314   1.73612
 Alpha virt. eigenvalues --    1.73885   1.75288   1.75719   1.77173   1.79243
 Alpha virt. eigenvalues --    1.79542   1.81703   1.82022   1.83607   1.86469
 Alpha virt. eigenvalues --    1.87239   1.88337   1.90294   1.92926   1.93899
 Alpha virt. eigenvalues --    1.94445   1.95497   1.96731   1.97200   1.97832
 Alpha virt. eigenvalues --    2.00590   2.02977   2.05781   2.07474   2.09853
 Alpha virt. eigenvalues --    2.12448   2.13680   2.16689   2.17348   2.20403
 Alpha virt. eigenvalues --    2.21016   2.21279   2.21981   2.23752   2.24771
 Alpha virt. eigenvalues --    2.25574   2.26929   2.29163   2.29423   2.32854
 Alpha virt. eigenvalues --    2.33878   2.35533   2.35918   2.38251   2.39201
 Alpha virt. eigenvalues --    2.40714   2.41469   2.43079   2.43571   2.46415
 Alpha virt. eigenvalues --    2.46759   2.49064   2.50042   2.50943   2.51946
 Alpha virt. eigenvalues --    2.53823   2.56433   2.57332   2.58719   2.60667
 Alpha virt. eigenvalues --    2.61079   2.63709   2.64758   2.67223   2.68316
 Alpha virt. eigenvalues --    2.71245   2.72542   2.73542   2.74343   2.74859
 Alpha virt. eigenvalues --    2.75616   2.76955   2.77469   2.78056   2.78392
 Alpha virt. eigenvalues --    2.78796   2.80526   2.80821   2.82519   2.83061
 Alpha virt. eigenvalues --    2.84833   2.85746   2.87174   2.88307   2.88572
 Alpha virt. eigenvalues --    2.88935   2.89906   2.90329   2.91418   2.92755
 Alpha virt. eigenvalues --    2.92949   2.93763   2.94506   2.95159   2.96337
 Alpha virt. eigenvalues --    2.96456   2.97182   2.97921   2.98448   2.99570
 Alpha virt. eigenvalues --    3.01652   3.02100   3.04229   3.05553   3.07145
 Alpha virt. eigenvalues --    3.08840   3.09938   3.10741   3.12960   3.15578
 Alpha virt. eigenvalues --    3.16132   3.17400   3.19803   3.21868   3.22660
 Alpha virt. eigenvalues --    3.23967   3.24286   3.26091   3.27765   3.28855
 Alpha virt. eigenvalues --    3.29270   3.32701   3.34641   3.36068   3.36503
 Alpha virt. eigenvalues --    3.37345   3.38390   3.39582   3.41141   3.42566
 Alpha virt. eigenvalues --    3.43396   3.44310   3.45096   3.46964   3.47911
 Alpha virt. eigenvalues --    3.48910   3.49091   3.52060   3.52155   3.53823
 Alpha virt. eigenvalues --    3.54430   3.55232   3.57726   3.58009   3.58387
 Alpha virt. eigenvalues --    3.61290   3.61724   3.64949   3.65873   3.67289
 Alpha virt. eigenvalues --    3.68067   3.69161   3.70248   3.70894   3.72165
 Alpha virt. eigenvalues --    3.73328   3.73511   3.75877   3.77005   3.78120
 Alpha virt. eigenvalues --    3.79176   3.79745   3.81280   3.82153   3.84376
 Alpha virt. eigenvalues --    3.84955   3.86573   3.89214   3.93259   3.95111
 Alpha virt. eigenvalues --    3.96850   3.98139   4.03129   4.06122   4.07035
 Alpha virt. eigenvalues --    4.07665   4.11517   4.12135   4.15236   4.19181
 Alpha virt. eigenvalues --    4.21124   4.21736   4.25461   4.28180   4.31324
 Alpha virt. eigenvalues --    4.32383   4.33371   4.37747   4.38616   4.39076
 Alpha virt. eigenvalues --    4.40448   4.43588   4.43782   4.44706   4.46193
 Alpha virt. eigenvalues --    4.48236   4.49053   4.49579   4.50299   4.52122
 Alpha virt. eigenvalues --    4.52553   4.54574   4.55203   4.56010   4.56798
 Alpha virt. eigenvalues --    4.57613   4.58675   4.58911   4.59688   4.60651
 Alpha virt. eigenvalues --    4.62302   4.62866   4.63140   4.64219   4.65100
 Alpha virt. eigenvalues --    4.65333   4.66393   4.67086   4.67888   4.68145
 Alpha virt. eigenvalues --    4.69203   4.70683   4.70730   4.71408   4.72214
 Alpha virt. eigenvalues --    4.73075   4.74485   4.75231   4.75683   4.76117
 Alpha virt. eigenvalues --    4.78134   4.78179   4.78546   4.79979   4.81021
 Alpha virt. eigenvalues --    4.81485   4.82311   4.83255   4.83959   4.85352
 Alpha virt. eigenvalues --    4.86717   4.87694   4.88442   4.89475   4.89970
 Alpha virt. eigenvalues --    4.91626   4.92137   4.92851   4.93202   4.94858
 Alpha virt. eigenvalues --    4.95672   4.96950   4.98105   4.98837   4.99464
 Alpha virt. eigenvalues --    4.99844   5.03952   5.05627   5.06031   5.07566
 Alpha virt. eigenvalues --    5.09787   5.15639   5.17221   5.18697   5.23332
 Alpha virt. eigenvalues --    5.24913   5.32087   5.36516   5.37356   5.38077
 Alpha virt. eigenvalues --    5.40210   5.41383   5.41959   5.44800   5.45198
 Alpha virt. eigenvalues --    5.46881   5.48497   5.50627   5.52577   5.53255
 Alpha virt. eigenvalues --    5.56861   5.58685   5.63115   5.66646   5.72647
 Alpha virt. eigenvalues --    5.77754   5.93767   5.94927   5.97348   6.00509
 Alpha virt. eigenvalues --    6.05476   6.07426   6.10808   6.14839   6.28665
 Alpha virt. eigenvalues --    6.39765   6.40280   7.03463   7.07634   7.40637
 Alpha virt. eigenvalues --   11.16296  11.21100  11.43528  11.55410  11.75479
 Alpha virt. eigenvalues --   11.85142  12.18512  12.25087  12.44179  12.54744
 Alpha virt. eigenvalues --   12.59479  12.74625  12.96019  13.17295  13.84014
          Condensed to atoms (all electrons):
               1          2          3          4          5          6
     1  C    5.037844   0.370013  -0.027708  -0.005577   0.000560   0.000009
     2  C    0.370013   4.773737   0.392048  -0.033082   0.000432  -0.000094
     3  C   -0.027708   0.392048   4.849981   0.385017  -0.026146   0.001207
     4  C   -0.005577  -0.033082   0.385017   4.943620   0.342414  -0.034580
     5  C    0.000560   0.000432  -0.026146   0.342414   4.938556   0.417405
     6  C    0.000009  -0.000094   0.001207  -0.034580   0.417405   4.737801
     7  O    0.000000   0.000000  -0.000076   0.003966  -0.050262   0.360259
     8  C   -0.013189   0.413685  -0.028280   0.001924  -0.000133   0.000000
     9  C    0.001517  -0.035977   0.003867   0.000071   0.000000   0.000000
    10  C   -0.000124   0.003470  -0.000173   0.000000  -0.000000   0.000000
    11  C   -0.000229   0.000402  -0.000003   0.000000   0.000000   0.000000
    12  C   -0.000000   0.000218  -0.000002   0.000000  -0.000000   0.000000
    13  C   -0.000045   0.000148  -0.000076  -0.000000   0.000000  -0.000000
    14  C   -0.000091   0.005565   0.000266  -0.000016  -0.000000  -0.000000
    15  O    0.001259  -0.034062   0.001248   0.001072   0.000003   0.000000
    16  H    0.374649  -0.020700  -0.004517  -0.000236  -0.000015  -0.000002
    17  H    0.368229  -0.021973  -0.006587  -0.000396  -0.000051   0.000001
    18  H    0.368885  -0.026610   0.004404   0.000189  -0.000009  -0.000000
    19  H   -0.056137   0.360239  -0.041405  -0.005704   0.000135   0.000005
    20  H    0.005189  -0.022907   0.362877  -0.039174  -0.002489   0.000100
    21  H   -0.009339  -0.023992   0.356897  -0.037873  -0.003378   0.000093
    22  H    0.000837  -0.004376  -0.027647   0.360687  -0.034771  -0.003921
    23  H   -0.001238  -0.001855  -0.029014   0.361941  -0.034779  -0.004176
    24  H   -0.000001   0.000145  -0.002033  -0.026034   0.359622  -0.029093
    25  H   -0.000015   0.000278  -0.002286  -0.028049   0.359076  -0.037020
    26  H   -0.000011   0.000030  -0.000022   0.004107  -0.048895   0.359957
    27  H    0.000001   0.000007  -0.000030  -0.003951  -0.025113   0.358242
    28  H    0.000000   0.000000  -0.000002  -0.000249  -0.002624  -0.068435
    29  H   -0.017133  -0.042710   0.000287   0.000000   0.000004  -0.000000
    30  H    0.000128  -0.002150  -0.000219   0.000002   0.000000  -0.000000
    31  H   -0.000002  -0.003586   0.000248  -0.000031   0.000000  -0.000000
    32  H   -0.000007   0.000005   0.000006  -0.000000   0.000000  -0.000000
    33  H    0.000005  -0.000114   0.000002  -0.000000   0.000000  -0.000000
    34  H    0.000005  -0.000034   0.000000  -0.000000   0.000000  -0.000000
    35  H    0.000080  -0.000059   0.000016   0.000000  -0.000000  -0.000000
    36  H    0.000000  -0.000002   0.000000   0.000000   0.000000   0.000000
    37  H    0.000000   0.000001   0.000000   0.000000   0.000000  -0.000000
    38  H   -0.000001  -0.000013  -0.000000  -0.000000  -0.000000  -0.000000
    39  H   -0.000001  -0.000152   0.000054   0.000005   0.000000   0.000000
    40  H    0.000001  -0.000454   0.000110   0.000001   0.000000   0.000000
    41  H    0.000004  -0.000045  -0.000113  -0.000004   0.000000  -0.000000
               7          8          9         10         11         12
     1  C    0.000000  -0.013189   0.001517  -0.000124  -0.000229  -0.000000
     2  C    0.000000   0.413685  -0.035977   0.003470   0.000402   0.000218
     3  C   -0.000076  -0.028280   0.003867  -0.000173  -0.000003  -0.000002
     4  C    0.003966   0.001924   0.000071   0.000000   0.000000   0.000000
     5  C   -0.050262  -0.000133   0.000000  -0.000000   0.000000  -0.000000
     6  C    0.360259   0.000000   0.000000   0.000000   0.000000   0.000000
     7  O    7.844962  -0.000000   0.000000  -0.000000   0.000000  -0.000000
     8  C   -0.000000   4.603513   0.392902  -0.031038  -0.004045  -0.001892
     9  C    0.000000   0.392902   4.961861   0.396608  -0.030119  -0.000694
    10  C   -0.000000  -0.031038   0.396608   4.865576   0.417523  -0.021722
    11  C    0.000000  -0.004045  -0.030119   0.417523   4.818982   0.424531
    12  C   -0.000000  -0.001892  -0.000694  -0.021722   0.424531   4.809661
    13  C    0.000000  -0.003005  -0.001122  -0.006457  -0.033412   0.408929
    14  C    0.000000  -0.091299   0.001674   0.007341  -0.005810  -0.022401
    15  O    0.000000   0.360423  -0.036250   0.000888   0.000666   0.001453
    16  H   -0.000000   0.001959  -0.000232   0.000003   0.000003  -0.000000
    17  H   -0.000000  -0.009195   0.000013   0.000048  -0.000094   0.000000
    18  H    0.000000  -0.003584   0.000790  -0.000308  -0.000125  -0.000003
    19  H    0.000000  -0.038784  -0.013536   0.000299   0.000010  -0.000005
    20  H   -0.000001  -0.005366   0.000254  -0.000010   0.000000  -0.000001
    21  H   -0.000001  -0.004382   0.000090   0.000007   0.000000   0.000000
    22  H    0.000046   0.000046  -0.000001   0.000000   0.000000  -0.000000
    23  H    0.000055   0.000182  -0.000006   0.000000   0.000000  -0.000000
    24  H    0.003361   0.000004   0.000000   0.000000   0.000000  -0.000000
    25  H   -0.000845   0.000006  -0.000000   0.000000   0.000000  -0.000000
    26  H   -0.030221   0.000000   0.000000   0.000000   0.000000  -0.000000
    27  H   -0.014117  -0.000000   0.000000  -0.000000  -0.000000   0.000000
    28  H    0.311080  -0.000000   0.000000   0.000000  -0.000000   0.000000
    29  H    0.000000   0.343276  -0.070809  -0.012284   0.004890  -0.006048
    30  H    0.000000  -0.019253   0.344684  -0.032819   0.004453  -0.000205
    31  H    0.000000  -0.026801   0.350115  -0.033790  -0.002856  -0.000037
    32  H    0.000000  -0.003141  -0.031691   0.372081  -0.039573  -0.009960
    33  H    0.000000   0.003721  -0.026412   0.358291  -0.031294   0.003389
    34  H    0.000000   0.000072   0.004532  -0.032782   0.361934  -0.031101
    35  H    0.000000  -0.004643  -0.009626  -0.037864   0.368887  -0.035754
    36  H    0.000000  -0.000132   0.000116  -0.008655  -0.036668   0.372073
    37  H    0.000000  -0.000036  -0.000078   0.004327  -0.033921   0.361511
    38  H    0.000000   0.000043  -0.000030   0.000019   0.004765  -0.031423
    39  H    0.000000  -0.003654   0.000680  -0.000386  -0.005626  -0.035057
    40  H    0.000000  -0.000828   0.002545  -0.001697  -0.001070  -0.007678
    41  H    0.000000   0.004258  -0.000084  -0.000014   0.000152   0.003772
              13         14         15         16         17         18
     1  C   -0.000045  -0.000091   0.001259   0.374649   0.368229   0.368885
     2  C    0.000148   0.005565  -0.034062  -0.020700  -0.021973  -0.026610
     3  C   -0.000076   0.000266   0.001248  -0.004517  -0.006587   0.004404
     4  C   -0.000000  -0.000016   0.001072  -0.000236  -0.000396   0.000189
     5  C    0.000000  -0.000000   0.000003  -0.000015  -0.000051  -0.000009
     6  C   -0.000000  -0.000000   0.000000  -0.000002   0.000001  -0.000000
     7  O    0.000000   0.000000   0.000000  -0.000000  -0.000000   0.000000
     8  C   -0.003005  -0.091299   0.360423   0.001959  -0.009195  -0.003584
     9  C   -0.001122   0.001674  -0.036250  -0.000232   0.000013   0.000790
    10  C   -0.006457   0.007341   0.000888   0.000003   0.000048  -0.000308
    11  C   -0.033412  -0.005810   0.000666   0.000003  -0.000094  -0.000125
    12  C    0.408929  -0.022401   0.001453  -0.000000   0.000000  -0.000003
    13  C    4.947268   0.372316  -0.040919   0.000001  -0.000120   0.000006
    14  C    0.372316   4.744297   0.390697   0.000001  -0.000022   0.000004
    15  O   -0.040919   0.390697   7.723083  -0.000049   0.000121   0.000037
    16  H    0.000001   0.000001  -0.000049   0.594453  -0.033776  -0.030670
    17  H   -0.000120  -0.000022   0.000121  -0.033776   0.605548  -0.033763
    18  H    0.000006   0.000004   0.000037  -0.030670  -0.033763   0.607443
    19  H    0.000003  -0.000171   0.000560  -0.001856   0.006080  -0.002753
    20  H    0.000048  -0.000093   0.008018  -0.000034  -0.000021  -0.000174
    21  H   -0.000115   0.000023   0.003347   0.000116   0.005885  -0.000066
    22  H   -0.000000   0.000000  -0.000005   0.002692   0.001042  -0.000170
    23  H    0.000000   0.000000  -0.000005   0.001203   0.000137  -0.000043
    24  H   -0.000000   0.000000  -0.000005   0.000000   0.000001   0.000000
    25  H    0.000000   0.000000  -0.000003   0.000024   0.000007  -0.000000
    26  H    0.000000   0.000000  -0.000000  -0.000004   0.000000   0.000000
    27  H   -0.000000   0.000000  -0.000000   0.000002  -0.000000   0.000000
    28  H   -0.000000   0.000000   0.000000   0.000000  -0.000000   0.000000
    29  H    0.017348  -0.016590  -0.041946   0.000406   0.007165   0.000963
    30  H    0.000227   0.000009  -0.000451   0.000008  -0.000007  -0.000028
    31  H    0.000063  -0.000232   0.002880  -0.000050  -0.000012   0.003371
    32  H   -0.001097  -0.001692   0.000648   0.000000   0.000000   0.000006
    33  H    0.000121  -0.000144  -0.000005  -0.000000  -0.000000   0.000006
    34  H    0.004922  -0.000000  -0.000017   0.000000   0.000000  -0.000001
    35  H   -0.006220  -0.000526   0.000197  -0.000016   0.000133   0.001581
    36  H   -0.037290  -0.007715   0.000003   0.000000   0.000000   0.000000
    37  H   -0.032861   0.004311  -0.000072   0.000000  -0.000000   0.000000
    38  H    0.354298  -0.025430   0.002314   0.000000   0.000000  -0.000000
    39  H    0.363447  -0.029413  -0.002533  -0.000005   0.000559  -0.000010
    40  H   -0.056518   0.366296  -0.034946  -0.000000   0.000001   0.000000
    41  H   -0.028354   0.361011  -0.021371  -0.000000   0.000001   0.000000
              19         20         21         22         23         24
     1  C   -0.056137   0.005189  -0.009339   0.000837  -0.001238  -0.000001
     2  C    0.360239  -0.022907  -0.023992  -0.004376  -0.001855   0.000145
     3  C   -0.041405   0.362877   0.356897  -0.027647  -0.029014  -0.002033
     4  C   -0.005704  -0.039174  -0.037873   0.360687   0.361941  -0.026034
     5  C    0.000135  -0.002489  -0.003378  -0.034771  -0.034779   0.359622
     6  C    0.000005   0.000100   0.000093  -0.003921  -0.004176  -0.029093
     7  O    0.000000  -0.000001  -0.000001   0.000046   0.000055   0.003361
     8  C   -0.038784  -0.005366  -0.004382   0.000046   0.000182   0.000004
     9  C   -0.013536   0.000254   0.000090  -0.000001  -0.000006   0.000000
    10  C    0.000299  -0.000010   0.000007   0.000000   0.000000   0.000000
    11  C    0.000010   0.000000   0.000000   0.000000   0.000000   0.000000
    12  C   -0.000005  -0.000001   0.000000  -0.000000  -0.000000  -0.000000
    13  C    0.000003   0.000048  -0.000115  -0.000000   0.000000  -0.000000
    14  C   -0.000171  -0.000093   0.000023   0.000000   0.000000   0.000000
    15  O    0.000560   0.008018   0.003347  -0.000005  -0.000005  -0.000005
    16  H   -0.001856  -0.000034   0.000116   0.002692   0.001203   0.000000
    17  H    0.006080  -0.000021   0.005885   0.001042   0.000137   0.000001
    18  H   -0.002753  -0.000174  -0.000066  -0.000170  -0.000043   0.000000
    19  H    0.703395  -0.003874   0.006857  -0.000144   0.006398  -0.000003
    20  H   -0.003874   0.625012  -0.038523   0.006195  -0.005335   0.005145
    21  H    0.006857  -0.038523   0.651114  -0.005531   0.006390  -0.000490
    22  H   -0.000144   0.006195  -0.005531   0.651430  -0.044809   0.006374
    23  H    0.006398  -0.005335   0.006390  -0.044809   0.649130  -0.005481
    24  H   -0.000003   0.005145  -0.000490   0.006374  -0.005481   0.628940
    25  H    0.000013  -0.000436   0.005010  -0.006153   0.006341  -0.044831
    26  H    0.000000   0.000004   0.000005   0.006383  -0.000462   0.006666
    27  H   -0.000002   0.000005   0.000005  -0.000702   0.004667  -0.006308
    28  H   -0.000000   0.000001  -0.000003   0.000011   0.000026  -0.000280
    29  H    0.008923   0.000334   0.001197  -0.000011   0.000007  -0.000000
    30  H    0.004341   0.000164   0.000005   0.000000  -0.000000  -0.000000
    31  H    0.001950   0.000009  -0.000010   0.000001  -0.000000   0.000000
    32  H   -0.000007  -0.000000  -0.000000  -0.000000  -0.000000  -0.000000
    33  H   -0.000016   0.000000   0.000000  -0.000000  -0.000000   0.000000
    34  H    0.000000   0.000000   0.000000   0.000000   0.000000   0.000000
    35  H   -0.000017  -0.000000  -0.000002   0.000000  -0.000000   0.000000
    36  H   -0.000000   0.000000   0.000000  -0.000000  -0.000000  -0.000000
    37  H    0.000000   0.000000  -0.000000  -0.000000  -0.000000  -0.000000
    38  H    0.000000  -0.000001   0.000001   0.000000   0.000000   0.000000
    39  H    0.000005  -0.000007   0.000465  -0.000000   0.000000  -0.000000
    40  H   -0.000001  -0.000008   0.000020  -0.000000  -0.000000  -0.000000
    41  H    0.000006   0.000025   0.000006   0.000000   0.000000   0.000000
              25         26         27         28         29         30
     1  C   -0.000015  -0.000011   0.000001   0.000000  -0.017133   0.000128
     2  C    0.000278   0.000030   0.000007   0.000000  -0.042710  -0.002150
     3  C   -0.002286  -0.000022  -0.000030  -0.000002   0.000287  -0.000219
     4  C   -0.028049   0.004107  -0.003951  -0.000249   0.000000   0.000002
     5  C    0.359076  -0.048895  -0.025113  -0.002624   0.000004   0.000000
     6  C   -0.037020   0.359957   0.358242  -0.068435  -0.000000  -0.000000
     7  O   -0.000845  -0.030221  -0.014117   0.311080   0.000000   0.000000
     8  C    0.000006   0.000000  -0.000000  -0.000000   0.343276  -0.019253
     9  C   -0.000000   0.000000   0.000000   0.000000  -0.070809   0.344684
    10  C    0.000000   0.000000  -0.000000   0.000000  -0.012284  -0.032819
    11  C    0.000000   0.000000  -0.000000  -0.000000   0.004890   0.004453
    12  C   -0.000000  -0.000000   0.000000   0.000000  -0.006048  -0.000205
    13  C    0.000000   0.000000  -0.000000  -0.000000   0.017348   0.000227
    14  C    0.000000   0.000000   0.000000   0.000000  -0.016590   0.000009
    15  O   -0.000003  -0.000000  -0.000000   0.000000  -0.041946  -0.000451
    16  H    0.000024  -0.000004   0.000002   0.000000   0.000406   0.000008
    17  H    0.000007   0.000000  -0.000000  -0.000000   0.007165  -0.000007
    18  H   -0.000000   0.000000   0.000000   0.000000   0.000963  -0.000028
    19  H    0.000013   0.000000  -0.000002  -0.000000   0.008923   0.004341
    20  H   -0.000436   0.000004   0.000005   0.000001   0.000334   0.000164
    21  H    0.005010   0.000005   0.000005  -0.000003   0.001197   0.000005
    22  H   -0.006153   0.006383  -0.000702   0.000011  -0.000011   0.000000
    23  H    0.006341  -0.000462   0.004667   0.000026   0.000007  -0.000000
    24  H   -0.044831   0.006666  -0.006308  -0.000280  -0.000000  -0.000000
    25  H    0.662249  -0.007099   0.006112   0.007024  -0.000000  -0.000000
    26  H   -0.007099   0.682500  -0.049759  -0.005030   0.000000  -0.000000
    27  H    0.006112  -0.049759   0.613314   0.007060  -0.000000  -0.000000
    28  H    0.007024  -0.005030   0.007060   0.473663  -0.000000   0.000000
    29  H   -0.000000   0.000000  -0.000000  -0.000000   0.749230   0.007421
    30  H   -0.000000  -0.000000  -0.000000   0.000000   0.007421   0.638634
    31  H    0.000000   0.000000   0.000000  -0.000000   0.002233  -0.035672
    32  H    0.000000  -0.000000   0.000000   0.000000  -0.000100  -0.008152
    33  H   -0.000000   0.000000   0.000000  -0.000000   0.000060   0.001362
    34  H   -0.000000   0.000000  -0.000000  -0.000000  -0.000166  -0.000173
    35  H   -0.000000   0.000000   0.000000   0.000000   0.004383   0.000064
    36  H   -0.000000   0.000000   0.000000   0.000000   0.000003   0.000000
    37  H   -0.000000  -0.000000  -0.000000   0.000000   0.000340   0.000006
    38  H    0.000000   0.000000   0.000000  -0.000000  -0.000333   0.000001
    39  H   -0.000000   0.000000  -0.000000   0.000000   0.002589  -0.000007
    40  H   -0.000000  -0.000000  -0.000000   0.000000  -0.001268  -0.000317
    41  H    0.000000   0.000000   0.000000  -0.000000   0.000316  -0.000049
              31         32         33         34         35         36
     1  C   -0.000002  -0.000007   0.000005   0.000005   0.000080   0.000000
     2  C   -0.003586   0.000005  -0.000114  -0.000034  -0.000059  -0.000002
     3  C    0.000248   0.000006   0.000002   0.000000   0.000016   0.000000
     4  C   -0.000031  -0.000000  -0.000000  -0.000000   0.000000   0.000000
     5  C    0.000000   0.000000   0.000000   0.000000  -0.000000   0.000000
     6  C   -0.000000  -0.000000  -0.000000  -0.000000  -0.000000   0.000000
     7  O    0.000000   0.000000   0.000000   0.000000   0.000000   0.000000
     8  C   -0.026801  -0.003141   0.003721   0.000072  -0.004643  -0.000132
     9  C    0.350115  -0.031691  -0.026412   0.004532  -0.009626   0.000116
    10  C   -0.033790   0.372081   0.358291  -0.032782  -0.037864  -0.008655
    11  C   -0.002856  -0.039573  -0.031294   0.361934   0.368887  -0.036668
    12  C   -0.000037  -0.009960   0.003389  -0.031101  -0.035754   0.372073
    13  C    0.000063  -0.001097   0.000121   0.004922  -0.006220  -0.037290
    14  C   -0.000232  -0.001692  -0.000144  -0.000000  -0.000526  -0.007715
    15  O    0.002880   0.000648  -0.000005  -0.000017   0.000197   0.000003
    16  H   -0.000050   0.000000  -0.000000   0.000000  -0.000016   0.000000
    17  H   -0.000012   0.000000  -0.000000   0.000000   0.000133   0.000000
    18  H    0.003371   0.000006   0.000006  -0.000001   0.001581   0.000000
    19  H    0.001950  -0.000007  -0.000016   0.000000  -0.000017  -0.000000
    20  H    0.000009  -0.000000   0.000000   0.000000  -0.000000   0.000000
    21  H   -0.000010  -0.000000   0.000000   0.000000  -0.000002   0.000000
    22  H    0.000001  -0.000000  -0.000000   0.000000   0.000000  -0.000000
    23  H   -0.000000  -0.000000  -0.000000   0.000000  -0.000000  -0.000000
    24  H    0.000000  -0.000000   0.000000   0.000000   0.000000  -0.000000
    25  H    0.000000   0.000000  -0.000000  -0.000000  -0.000000  -0.000000
    26  H    0.000000  -0.000000   0.000000   0.000000   0.000000   0.000000
    27  H    0.000000   0.000000   0.000000  -0.000000   0.000000   0.000000
    28  H   -0.000000   0.000000  -0.000000  -0.000000   0.000000   0.000000
    29  H    0.002233  -0.000100   0.000060  -0.000166   0.004383   0.000003
    30  H   -0.035672  -0.008152   0.001362  -0.000173   0.000064   0.000000
    31  H    0.651450   0.005997  -0.011330   0.000029   0.002391  -0.000001
    32  H    0.005997   0.638594  -0.039142   0.002831   0.005501   0.005219
    33  H   -0.011330  -0.039142   0.665888  -0.012346   0.002557   0.000223
    34  H    0.000029   0.002831  -0.012346   0.662036  -0.037836  -0.003345
    35  H    0.002391   0.005501   0.002557  -0.037836   0.639058   0.005940
    36  H   -0.000001   0.005219   0.000223  -0.003345   0.005940   0.643749
    37  H    0.000007   0.000181  -0.000234  -0.004983  -0.001573  -0.036867
    38  H   -0.000000  -0.000089   0.000006  -0.000185  -0.000055  -0.003720
    39  H   -0.000029   0.000066   0.000002  -0.000046   0.002314   0.005733
    40  H   -0.000175   0.003383   0.000267  -0.000079   0.000085   0.004647
    41  H    0.000012   0.000196  -0.000009   0.000006  -0.000002   0.000068
              37         38         39         40         41
     1  C    0.000000  -0.000001  -0.000001   0.000001   0.000004
     2  C    0.000001  -0.000013  -0.000152  -0.000454  -0.000045
     3  C    0.000000  -0.000000   0.000054   0.000110  -0.000113
     4  C    0.000000  -0.000000   0.000005   0.000001  -0.000004
     5  C    0.000000  -0.000000   0.000000   0.000000   0.000000
     6  C   -0.000000  -0.000000   0.000000   0.000000  -0.000000
[...]
 0.00076780,0.00049022,0.00020867,-0.00041960,0.00087054,-0.00006483,0.
 00143092,-0.00352781,-0.00376590,-0.03650112,0.15803237,0.00002328,-0.
 00001159,-0.00003677,-0.00004722,-0.00001490,0.00002811,0.00008701,0.0
 0000905,-0.00001487,-0.00003282,-0.00000879,0.00003362,0.00000585,-0.0
 0002323,-0.00001424,-0.00000638,-0.00000140,0.00005635,0.00000687,0.00
 002394,-0.00006127,0.00055404,0.00041960,0.00012345,-0.00012419,0.0003
 5435,0.00008786,0.00069446,0.00079465,0.00120001,-0.00073624,0.0045479
 6,0.00278761,0.04304138,-0.11938047,-0.19334343,0.00822850,-0.01454321
 ,-0.02468409,-0.00353909,0.00403542,-0.00298604,-0.00045675,-0.0003873
 1,0.00039632,-0.00002325,-0.00001564,-0.00001498,-0.00000177,0.0000062
 8,0.00000332,-0.00001170,-0.00001613,0.00001017,0.00001031,-0.00001509
 ,-0.00001361,-0.00008390,-0.00000680,0.00005598,0.00002615,-0.00000109
 ,0.00001006,-0.00001106,-0.00001559,-0.00003059,0.00000791,-0.00000704
 ,-0.00001039,-0.00000960,-0.00000117,0.00000562,0.00000057,0.00000244,
 0.00000125,-0.00000319,-0.00000296,-0.00000801,0.00000199,-0.00000131,
 -0.00000260,0.00000437,-0.00000552,0.00001914,-0.00000332,0.00003920,0
 .00002758,0.00005974,0.00000240,0.00013273,-0.00002271,-0.00004778,0.0
 0003320,-0.00007493,0.00006358,-0.00009757,-0.00003014,0.00007176,-0.0
 0011345,-0.00021349,0.00036348,0.00152438,-0.00031011,-0.00032886,-0.0
 0007869,0.00023921,0.00074795,0.00059577,-0.04819545,0.12361326,0.2144
 0008,0.00001075,0.00003945,0.00009321,0.00055363,-0.00009886,0.0000813
 5,-0.00000749,-0.00001557,-0.00001452,0.00001337,0.00001259,-0.0000058
 1,0.00000368,-0.00001072,-0.00000576,-0.00000054,0.00000029,0.00000819
 ,0.00000067,0.00000723,-0.00001088,-0.00190577,-0.00037963,-0.00015857
 ,0.00004394,0.00009476,-0.00007737,-0.00004392,0.00003242,0.00002093,-
 0.00048521,-0.00014901,-0.00052543,0.00165570,0.00856984,0.00059777,-0
 .05827244,-0.05440978,-0.00708242,0.00256890,0.01721499,0.00213615,-0.
 00120527,0.00314355,0.00425448,0.00003127,0.00000451,-0.00000391,0.000
 01590,0.00000086,0.00001810,0.00000119,0.00000783,-0.00000089,-0.00001
 931,-0.00009431,-0.00017979,0.00000391,0.00003724,-0.00004264,0.000013
 04,-0.00000322,0.00001199,0.00000074,0.00000140,0.00000501,-0.00000292
 ,0.00000182,-0.00000019,0.00000095,0.00000049,-0.00000077,-0.00000403,
 0.00000341,-0.00000195,-0.00000015,-0.00000031,-0.00000069,-0.00000076
 ,0.00000117,0.00000082,0.00000107,-0.00000287,0.00000151,0.00063451,-0
 .00033121,0.00016858,0.00001892,-0.00007161,0.00003497,0.00003039,0.00
 006207,-0.00000305,0.00004553,-0.00004519,0.00005462,0.00002349,0.0000
 0733,0.00000707,0.00042177,0.00005735,-0.00000050,0.00042410,0.0001372
 1,-0.00010988,-0.00008375,-0.00007510,0.00029431,0.00068885,-0.0003374
 0,0.00064368,0.06169167,0.00002441,0.00000785,-0.00006619,-0.00009324,
 -0.00001147,0.00004357,0.00001289,-0.00006265,-0.00000543,-0.00001228,
 0.00003764,0.00001094,-0.00000465,-0.00004647,-0.00002060,-0.00000736,
 -0.00000383,0.00004103,0.00001396,0.00003790,-0.00004914,0.00096195,0.
 00096499,0.00031253,0.00010591,0.00001549,0.00004723,-0.00000806,0.000
 29281,0.00003754,0.00192165,0.00065451,0.00281290,-0.00427822,-0.01452
 119,-0.00153502,-0.05363614,-0.28268626,-0.03043850,-0.00381945,-0.012
 85632,-0.00036035,0.00116754,-0.00031193,-0.00300911,-0.00003283,-0.00
 002417,-0.00003033,-0.00001097,0.00000381,0.00000947,0.00001476,0.0000
 1722,0.00000926,-0.00001135,0.00002429,-0.00000661,0.00000875,-0.00004
 142,0.00006106,-0.00003417,0.00000922,-0.00000994,0.00000011,-0.000003
 32,-0.00000769,-0.00000172,0.00000509,0.00000210,0.00000849,0.00000074
 ,0.00000084,-0.00001075,0.00000849,-0.00000516,0.00000364,0.00000176,-
 0.00000094,-0.00000172,0.00000127,0.00000124,-0.00000149,-0.00001226,0
 .00000717,0.00000661,-0.00003884,0.00004730,-0.00001266,-0.00005382,-0
 .00003465,-0.00001207,0.00000175,0.00000647,0.00000062,-0.00001827,-0.
 00006027,-0.00000787,-0.00010134,-0.00004581,-0.00043475,-0.00093175,0
 .00022526,0.00008762,0.00020072,-0.00013893,0.00037966,-0.00016059,0.0
 0013573,-0.00029023,0.00159235,0.00019543,0.05834274,0.30897028,0.0000
 2292,0.00003657,-0.00013117,-0.00017489,-0.00015913,0.00007707,-0.0000
 0412,-0.00003834,0.00003963,-0.00000700,0.00002477,0.00001847,-0.00000
 477,-0.00003706,-0.00001535,-0.00000500,0.00000024,0.00003284,0.000010
 52,0.00002582,-0.00003938,0.00225187,0.00121689,-0.00019538,-0.0000607
 1,0.00007002,-0.00011467,0.00016892,-0.00001497,-0.00039206,-0.0028914
 4,0.00123664,-0.00411384,0.00803154,0.02848078,-0.00022232,-0.00696445
 ,-0.03094309,-0.04873476,-0.00730012,-0.02610064,-0.00222856,0.0023015
 5,-0.00437590,-0.00518627,-0.00005489,-0.00004204,-0.00002016,-0.00001
 332,0.00000147,0.00000777,-0.00000236,-0.00001810,0.00001074,-0.000023
 98,0.00001802,-0.00003538,0.00000936,-0.00005597,0.00007174,-0.0000293
 8,0.00000366,-0.00000683,-0.00000373,-0.00000387,-0.00000969,-0.000000
 44,0.00000431,0.00000035,0.00000626,-0.00000023,0.00000087,-0.00000847
 ,0.00000676,-0.00000428,0.00000185,0.00000105,-0.00000108,-0.00000063,
 0.00000101,0.00000094,-0.00000106,-0.00000775,0.00000616,-0.00000734,0
 .00016712,0.00021154,0.00004102,-0.00001998,0.00011640,-0.00001177,-0.
 00005707,0.00005333,-0.00006408,0.00007077,0.00001843,-0.00003899,0.00
 017244,0.00024266,0.00066754,0.00135094,-0.00057726,-0.00003638,-0.000
 30402,0.00005621,-0.00035483,-0.00030806,0.00028793,0.00064874,0.00054
 466,0.00120682,0.00570100,0.03240554,0.05921832,0.00001718,0.00010000,
 0.00005147,0.00068462,-0.00029654,0.00015905,-0.00017290,-0.00004620,0
 .00001765,0.00005672,0.00004060,-0.00000437,-0.00003361,-0.00002198,-0
 .00001968,-0.00000314,0.00000276,0.00001937,0.00001444,0.00001615,-0.0
 0002355,-0.00229619,0.00002863,-0.00109174,0.00020279,0.00025243,-0.00
 017032,-0.00001658,0.00000823,-0.00004291,0.00083476,-0.00099053,0.000
 89528,-0.00914702,0.00028135,-0.00192301,-0.29094476,-0.01197793,-0.03
 602628,-0.01739757,-0.00298722,-0.00241768,0.00152574,0.00079854,0.000
 43654,0.00001089,-0.00001998,-0.00001405,0.00002565,-0.00000225,0.0000
 2402,0.00000654,-0.00000193,0.00000281,0.00000588,-0.00015339,-0.00028
 464,0.00005762,0.00002166,-0.00005233,0.00003129,-0.00001783,0.0000182
 4,0.00000546,0.00001105,0.00002212,-0.00000290,-0.00000801,-0.00000700
 ,0.00001491,0.00000733,-0.00000506,0.00000420,-0.00000197,0.00000118,0
 .00000462,0.00000312,0.00000391,0.00000075,-0.00000303,-0.00000258,-0.
 00000486,-0.00000395,0.00000377,0.00131773,-0.00110942,-0.00016677,0.0
 0004243,-0.00011609,0.00007268,0.00005587,0.00009565,0.00000838,0.0000
 4048,-0.00013187,-0.00001055,0.00005118,0.00004181,0.00005238,0.000396
 38,-0.00011400,0.00013373,0.00075438,0.00091206,-0.00028637,0.00075607
 ,0.00021932,-0.00178928,-0.00006404,0.00010870,-0.00060009,-0.00778205
 ,-0.00099330,-0.00117423,0.32011544,-0.00000417,-0.00000481,0.00004811
 ,-0.00001732,0.00005769,-0.00016761,0.00000367,0.00004006,-0.00000040,
 -0.00000064,-0.00003534,0.00000333,-0.00000271,0.00002961,0.00001432,0
 .00000271,-0.00000193,-0.00002186,-0.00000528,-0.00001778,0.00002855,0
 .00042920,-0.00092367,-0.00047928,-0.00013231,0.00003471,0.00013086,0.
 00011493,-0.00016676,-0.00002322,0.00163882,0.00104463,-0.00056817,0.0
 1727796,-0.00071895,0.00410504,-0.01288246,-0.04703425,-0.00243590,0.0
 1076681,0.00035755,0.00218601,-0.00050404,0.00037148,0.00044512,0.0000
 1715,0.00001988,0.00002092,-0.00001039,-0.00000210,-0.00001810,-0.0000
 0959,-0.00001290,-0.00000694,0.00000771,0.00003305,0.00005575,-0.00001
 878,0.00000779,-0.00000762,0.00001799,-0.00000270,-0.00000186,-0.00000
 048,0.00000117,-0.00000166,0.00000222,-0.00000319,-0.00000315,-0.00000
 344,-0.00000222,0.00000070,0.00000652,-0.00000652,0.00000362,-0.000000
 94,0.00000002,0.00000093,0.00000110,-0.00000109,-0.00000103,-0.0000012
 5,0.00000555,-0.00000441,-0.00045860,-0.00122284,-0.00144670,-0.000038
 67,0.00010604,-0.00004626,-0.00004032,-0.00004356,-0.00000786,-0.00010
 904,0.00008631,0.00005570,-0.00004337,-0.00000635,-0.00002906,-0.00017
 060,0.00020425,-0.00019714,-0.00062800,-0.00000903,0.00006188,0.001291
 87,-0.00119592,0.00338515,-0.00028273,0.00008037,-0.00006209,-0.031476
 82,-0.00207368,-0.00459139,0.01488568,0.05034016,0.00002980,-0.0000150
 4,-0.00001320,-0.00000261,-0.00000624,-0.00002066,0.00012559,-0.000035
 08,0.00000534,-0.00003438,0.00000928,-0.00001059,0.00001847,0.00000512
 ,0.00000263,-0.00000192,0.00000036,-0.00000058,-0.00000385,-0.00000478
 ,0.00000103,0.00022746,-0.00061390,-0.00033531,-0.00034386,0.00024621,
 0.00011541,0.00021637,0.00019642,-0.00004704,-0.00118067,-0.00131933,0
 .00179634,-0.02806198,0.00083078,-0.00546588,-0.03728020,-0.00218183,-
 0.05304726,0.02977357,0.00441523,0.00351279,-0.00167649,-0.00015009,0.
 00068728,-0.00001099,0.00000165,0.00000095,-0.00002056,-0.00000258,-0.
 00000333,-0.00000997,0.00000206,0.00000268,0.00002556,0.00002555,0.000
 00767,-0.00001511,-0.00000493,0.00003948,-0.00004825,0.00002147,-0.000
 02689,-0.00000255,-0.00000574,-0.00000819,-0.00000165,0.00000995,0.000
 01396,-0.00000766,-0.00000358,0.00000354,-0.00000377,0.00000274,-0.000
 00312,-0.00000223,-0.00000157,-0.00000288,0.00000028,0.00000135,0.0000
 0140,0.00000175,0.00000150,0.00000067,-0.00050841,-0.00154490,-0.00084
 703,0.00001041,0.00006290,-0.00004198,-0.00000225,-0.00004863,0.000094
 19,0.00008454,-0.00013310,-0.00008938,-0.00001984,0.00007621,0.0000364
 2,0.00018110,-0.00043724,0.00014129,0.00105452,0.00031739,0.00000306,-
 0.00099455,0.00246160,-0.00467372,0.00034499,-0.00052218,0.00010425,-0
 .00486457,-0.00037527,-0.00112326,0.04062386,0.00074522,0.06214874,0.0
 0004591,0.00000654,-0.00008815,-0.00008539,-0.00014906,0.00018577,-0.0
 0003464,-0.00002540,-0.00006949,-0.00001225,-0.00000117,0.00004758,-0.
 00004785,-0.00005593,-0.00002534,-0.00000597,0.00000134,0.00004607,0.0
 0002399,0.00004009,-0.00005358,0.00274880,0.00120027,0.00014298,-0.000
 02930,-0.00001854,-0.00028475,-0.00010611,-0.00000122,0.00001257,0.000
 19663,-0.00004170,-0.00002233,0.00046586,0.00006979,-0.00089931,-0.017
 20231,-0.00144747,-0.00107549,-0.29120090,-0.05159421,-0.02680089,0.00
 048612,-0.00590427,-0.00106606,-0.00004235,-0.00002798,-0.00001901,0.0
 0000782,0.00000285,0.00001237,0.00000629,-0.00000063,0.00001235,0.0000
 0681,-0.00005737,-0.00005399,-0.00013238,-0.00003419,-0.00000296,0.000
 10317,0.00000442,0.00002773,0.00000586,-0.00000329,-0.00001770,0.00000
 455,-0.00002234,-0.00002547,0.00001859,0.00001145,-0.00000335,0.000005
 30,0.00000057,0.00000397,0.00000746,0.00000398,0.00000386,-0.00000014,
 -0.00000438,-0.00000430,-0.00000500,-0.00001142,0.00000858,0.00034752,
 0.00011967,0.00009649,0.00000757,-0.00009579,0.00006014,-0.00001034,-0
 .00003265,0.00005290,0.00001907,-0.00001400,-0.00001964,0.00001953,-0.
 00000638,0.00003760,0.00002627,-0.00002236,0.00004426,0.00010158,0.000
 15529,-0.00009627,0.00055077,-0.00054521,0.00084191,0.00029642,0.00001
 326,-0.00002075,0.00056824,0.00062591,0.00013381,-0.00020382,0.0012212
 8,0.00302837,0.31374745,0.00013831,-0.00011028,-0.00059903,-0.00128705
 ,-0.00045835,0.00053567,-0.00000219,-0.00021103,0.00011294,0.00000219,
 0.00014598,-0.00004167,-0.00000423,-0.00005528,-0.00004005,-0.00000747
 ,0.00001416,0.00002819,0.00001189,0.00002130,-0.00004154,0.00290878,-0
 .00401755,-0.00153884,-0.00097908,-0.00005200,-0.00040636,-0.00014977,
 -0.00003091,-0.00017866,0.00009502,-0.00016502,0.00007227,-0.00057470,
 -0.00010454,0.00010377,0.00873097,0.00176842,0.00002819,-0.04184388,-0
 .05278432,-0.00076277,-0.04000565,-0.02639150,-0.00776791,-0.00021064,
 -0.00011101,-0.00006397,-0.00001316,0.00002326,0.00001932,0.00003753,0
 .00002088,0.00003680,0.00005539,-0.00001077,-0.00001666,0.00013185,0.0
 0000356,0.00001743,-0.00011506,0.00004168,-0.00004863,0.00001048,0.000
 00207,0.00003020,-0.00000771,0.00000474,0.00002014,0.00001000,0.000010
 69,-0.00000412,-0.00000577,0.00000774,-0.00000613,0.00000377,0.0000005
 3,0.00000164,0.,-0.00000171,0.00000014,0.00000077,-0.00000651,0.000006
 08,-0.00027217,0.00012102,0.00010427,0.00000034,-0.00010633,0.00006040
 ,-0.00004236,-0.00033403,0.00027362,0.00005299,0.00001119,0.00003966,0
 .00005208,0.00002930,0.00009674,-0.00004379,0.00005611,0.00002819,-0.0
 0001085,0.00000086,0.00000459,-0.00009824,0.00000379,0.00003673,0.0000
 7349,-0.00003313,0.00004773,0.00031815,0.00056185,0.00020032,0.0010772
 2,0.00066795,-0.00225862,0.05795440,0.07654949,0.00001104,-0.00002187,
 -0.00005625,-0.00007772,0.00013669,0.00003411,-0.00012585,-0.00002479,
 -0.00016139,0.00000549,-0.00006048,0.00006444,-0.00005223,-0.00004727,
 -0.00001499,-0.00000074,0.00000198,0.00003621,0.00001911,0.00002951,-0
 .00004105,0.00084193,-0.00070927,0.00086084,-0.00020133,-0.00015985,-0
 .00022102,0.00005541,-0.00009550,-0.00009898,0.00001874,0.00020396,-0.
 00009549,0.00119844,-0.00039679,0.00219477,0.02889552,0.00407199,0.000
 70154,-0.02649672,-0.00272128,-0.05330678,-0.00666273,-0.00560001,0.00
 069209,-0.00002821,-0.00001601,-0.00001854,0.00000799,0.00000805,-0.00
 000301,0.00000381,-0.00000476,0.00000915,0.00000664,-0.00004865,0.0000
 1684,-0.00014933,0.00006082,0.00003988,0.00020766,-0.00002231,0.000033
 50,0.00000022,-0.00000849,-0.00002853,0.00000940,-0.00003464,-0.000045
 96,0.00001434,0.00001254,-0.00000360,0.00001105,-0.00000103,0.00000869
 ,0.00000591,0.00000269,0.00000340,-0.00000033,-0.00000460,-0.00000544,
 -0.00000346,-0.00000738,0.00000713,0.00010802,0.00009336,-0.00016926,-
 0.00001871,-0.00007507,0.00005979,-0.00003138,-0.00009464,0.00005292,-
 0.00003510,0.00005977,0.00003170,-0.00002199,0.00001058,0.00003785,-0.
 00003341,0.00006171,-0.00001620,-0.00021567,-0.00007526,0.00000175,-0.
 00088815,0.00025100,-0.00013837,-0.00023002,-0.00009541,0.00026696,-0.
 00074097,0.00043861,0.00122490,0.00314562,-0.00154472,-0.00444046,0.02
 691699,0.01056715,0.05475167,-0.00003696,0.00001034,0.00030981,0.00055
 970,0.00016654,-0.00020523,0.00047686,0.00000548,-0.00019704,-0.000160
 75,-0.00007938,-0.00001308,0.00006647,0.00003755,0.00001996,-0.0000148
 0,-0.00000220,0.00002118,-0.00001343,-0.00001728,-0.00001156,0.0003227
 1,-0.00072931,0.00131340,-0.00013606,0.00012669,0.00017349,-0.00013949
 ,0.00002630,0.00012457,0.00016468,0.00002104,-0.00000377,-0.00145574,0
 .00222363,0.00221968,0.00513608,-0.00792970,0.01687154,-0.08555792,0.0
 3953501,-0.06992083,0.00500682,0.00183916,0.00176778,0.00010116,0.0000
 7978,0.00003710,-0.00000798,-0.00000574,-0.00001157,-0.00004011,-0.000
 02187,-0.00000578,-0.00003254,-0.00000469,-0.00002740,-0.00020940,0.00
 005128,0.00006744,-0.00007538,-0.00010788,-0.00014971,-0.00001121,-0.0
 0003519,-0.00007113,0.00001923,-0.00000711,0.00001190,-0.00004676,-0.0
 0000439,0.00001309,0.00001043,-0.00000445,0.00000385,-0.00000954,-0.00
 000974,-0.00001612,0.00000491,-0.00000343,-0.00000405,0.00001135,0.000
 00634,0.00001498,0.00016489,0.00024164,0.00013648,-0.00002573,0.000091
 33,-0.00006741,0.00004238,0.00001080,0.00000609,0.00003160,-0.00005857
 ,0.00001925,0.00002326,-0.00002472,-0.00005001,-0.00002745,-0.00011080
 ,-0.00002705,0.00000693,0.00000981,-0.00003814,0.00034302,-0.00012385,
 0.00026257,0.00042983,-0.00040989,0.00092284,0.00034741,0.00002805,-0.
 00075853,0.00103541,-0.00084369,-0.00064830,-0.01069883,0.01400818,-0.
 02546930,0.08439496,0.00002360,0.00005270,-0.00035919,-0.00013516,-0.0
 0028261,0.00035013,-0.00054396,-0.00043018,0.00023935,0.00023233,0.000
 33507,-0.00023251,-0.00001795,0.00000193,-0.00004419,0.00001773,0.0000
 0566,-0.00007544,-0.00000521,-0.00001290,0.00006454,0.00679862,0.00289
 811,0.00148496,-0.00127802,0.00003755,0.00024635,0.00017581,-0.0001298
 3,-0.00022811,-0.00004821,-0.00021179,-0.00053737,0.00138499,0.0001647
 5,-0.00097103,-0.00195799,0.00656925,-0.00573845,0.03588048,-0.0969054
 8,0.08856990,0.01064744,-0.04324706,0.01891970,-0.00012045,-0.00008889
 ,-0.00005988,-0.00003134,-0.00000934,0.00002293,0.00009210,0.00009294,
 0.00001386,-0.00000869,0.00017814,0.00001733,0.00070310,-0.00047347,-0
 .00028340,-0.00041521,0.00005908,-0.00017607,0.00002700,0.00007289,0.0
 0018216,-0.00005008,0.00006876,0.00010823,0.00003572,0.00000315,-0.000
 01692,-0.00001592,0.00001112,-0.00001547,0.00000725,0.00000743,0.00001
 731,-0.00000761,0.00000642,0.00001052,-0.00000768,0.00000228,-0.000027
 10,-0.00128438,0.00033316,-0.00015066,0.00007497,0.00009772,-0.0000490
 3,-0.00021377,-0.00041016,0.00033777,-0.00022020,0.00016021,-0.0002640
 0,-0.00014062,-0.00001574,0.00014166,0.00009416,0.00020743,0.00003381,
 0.00001716,0.00007177,0.00002066,0.00005592,-0.00017234,0.00014685,0.0
 0004522,0.00005872,-0.00044052,-0.00059710,0.00054954,0.00103780,0.000
 08513,-0.00000269,0.00023163,-0.00131415,0.00491771,-0.00414035,-0.047
 98507,0.12542897,-0.00005441,-0.00002267,0.00016713,0.00041569,0.00001
 063,0.00024502,-0.00016187,-0.00009052,-0.00049577,0.00003785,-0.00018
 991,-0.00003160,-0.00000049,0.00003514,0.00000901,0.00000262,0.0000043
 2,0.00002600,-0.00000605,-0.00001436,-0.00002282,-0.00043740,0.0000425
 3,0.00086742,-0.00007899,-0.00001110,-0.00005055,0.00001634,-0.0001093
 5,-0.00005631,-0.00025758,-0.00029905,-0.00031432,0.00349245,-0.003743
 35,-0.00249742,-0.01053819,0.01361109,-0.02341394,-0.06948863,0.089714
 96,-0.20174591,0.00358274,-0.00233347,0.01086862,0.00006064,0.00003277
 ,0.00003182,0.00003416,0.00000182,-0.00000777,-0.00002716,-0.00004619,
 -0.00000200,-0.00000689,-0.00006973,-0.00004900,-0.00014260,-0.0002961
 1,-0.00030263,0.00034291,-0.00017692,-0.00000436,-0.00001192,0.0000001
 6,-0.00001627,0.00001503,-0.00003808,-0.00004858,-0.00002340,0.0000029
 7,0.00000959,0.00002282,-0.00001407,0.00001500,-0.00000792,-0.00000644
 ,-0.00000815,0.00000504,-0.00000659,-0.00000776,0.00000733,0.00000827,
 0.00001954,0.00051783,0.00018243,-0.00019591,0.00001771,0.00000162,0.0
 0010045,0.00000532,-0.00001785,0.00001018,0.00001564,-0.00002688,0.000
 00599,-0.00000457,0.00009379,0.00005540,0.00011795,0.00029022,-0.00000
 396,0.00010540,0.00006822,-0.00000262,0.00012464,-0.00011858,0.0005064
 7,-0.00012080,0.00089142,-0.00160002,-0.00030318,-0.00065132,0.0002485
 7,0.00042040,0.00037521,0.00148164,-0.00106749,0.00130276,-0.00226481,
 0.07337903,-0.09838778,0.21847469\\-0.00001123,-0.00000679,0.00000024,
 0.00000031,0.00000019,-0.00001753,0.00000535,0.00000073,-0.00000468,0.
 00000066,-0.00000825,0.00000552,0.00000491,0.00000973,-0.00001037,-0.0
 0000656,-0.00001663,0.00001137,0.00000306,0.00000738,-0.00000592,0.000
 03116,0.00001195,0.00001946,-0.00000798,-0.00001530,-0.00000204,0.0000
 0906,0.00001352,0.00001234,-0.00000912,-0.00000662,-0.00000069,0.00000
 608,0.00000930,-0.00000599,-0.00000724,-0.00000999,0.00001541,0.000018
 83,-0.00003680,-0.00000049,-0.00002273,0.00002268,0.00000225,-0.000001
 85,0.00000104,0.00000139,-0.00000071,-0.00000318,-0.00000085,0.0000018
 8,0.00000185,0.00000272,-0.00000065,0.00000126,0.00000209,-0.00000272,
 0.00000257,0.00000042,0.00000046,-0.00000045,0.00000077,-0.00000065,0.
 00000440,-0.00000108,-0.00000316,-0.00000170,-0.00000111,-0.00000144,-
 0.00000244,0.00000216,-0.00000020,-0.00000175,0.00000102,0.00000210,0.
 00000257,-0.00000074,0.00000062,0.00000130,0.00000021,-0.00000139,0.00
 000076,0.00000022,-0.00000485,0.00000607,-0.00000443,-0.00000132,0.000
 00201,0.00000187,-0.00000096,0.00000446,-0.00000115,0.00000158,-0.0000
 0140,-0.00000393,0.00000023,-0.00000129,-0.00000691,-0.00000445,0.0000
 0140,-0.00000011,-0.00000053,0.00000099,0.00000059,0.00000370,-0.00000
 333,0.00000324,0.00000388,0.00000052,-0.00000606,0.00000029,0.00000063
 ,-0.00000229,-0.00000436,-0.00000199,-0.00000497,0.00000436,0.00000377
 ,-0.00000548,-0.00000443,0.00000683,0.00000349\\\@


 IT TAKES GREATER CHARACTER TO CARRY OFF GOOD FORTUNE THAN BAD.
                     FRENCH PROVERB.
 Job cpu time:       0 days 15 hours 30 minutes 32.2 seconds.
 Elapsed time:       0 days  3 hours 52 minutes 40.3 seconds.
 File lengths (MBytes):  RWF=    868 Int=      0 D2E=      0 Chk=     26 Scr=      1
 Normal termination of Gaussian 16 at Tue May 23 19:03:55 2023.
### All Done ###
