### Starting Gaussian ###
 Entering Gaussian System, Link 0=g16
 Initial command:
 /cluster/software/gaussian/gaussian-16-A.03/avx2/g16/l1.exe "/local/scratch/cz9n3/Gau-28083.inp" -scrdir="/local/scratch/cz9n3/"
 Entering Link 1 = /cluster/software/gaussian/gaussian-16-A.03/avx2/g16/l1.exe PID=     28084.
  
 Copyright (c) 1988,1990,1992,1993,1995,1998,2003,2009,2016,
            Gaussian, Inc.  All Rights Reserved.
  
 This is part of the Gaussian(R) 16 program.  It is based on
 the Gaussian(R) 09 system (copyright 2009, Gaussian, Inc.),
 the Gaussian(R) 03 system (copyright 2003, Gaussian, Inc.),
 the Gaussian(R) 98 system (copyright 1998, Gaussian, Inc.),
 the Gaussian(R) 94 system (copyright 1995, Gaussian, Inc.),
 the Gaussian 92(TM) system (copyright 1992, Gaussian, Inc.),
 the Gaussian 90(TM) system (copyright 1990, Gaussian, Inc.),
 the Gaussian 88(TM) system (copyright 1988, Gaussian, Inc.),
 the Gaussian 86(TM) system (copyright 1986, Carnegie Mellon
 University), and the Gaussian 82(TM) system (copyright 1983,
 Carnegie Mellon University). Gaussian is a federally registered
 trademark of Gaussian, Inc.
  
 This software contains proprietary and confidential information,
 including trade secrets, belonging to Gaussian, Inc.
  
 This software is provided under written license and may be
 used, copied, transmitted, or stored only in accord with that
 written license.
  
 The following legend is applicable only to US Government
 contracts under FAR:
  
                    RESTRICTED RIGHTS LEGEND
  
 Use, reproduction and disclosure by the US Government is
 subject to restrictions as set forth in subparagraphs (a)
 and (c) of the Commercial Computer Software - Restricted
 Rights clause in FAR 52.227-19.
  
 Gaussian, Inc.
 340 Quinnipiac St., Bldg. 40, Wallingford CT 06492
  
  
 ---------------------------------------------------------------
 Warning -- This program may not be used in any manner that
 competes with the business of Gaussian, Inc. or will provide
 assistance to any competitor of Gaussian, Inc.  The licensee
 of this program is prohibited from giving any competitor of
 Gaussian, Inc. access to this program.  By using this program,
 the user acknowledges that Gaussian, Inc. is engaged in the
 business of creating and licensing software in the field of
 computational chemistry and represents and warrants to the
 licensee that it is not a competitor of Gaussian, Inc. and that
 it will not use this program in any manner prohibited above.
 ---------------------------------------------------------------
  

 Cite this work as:
 Gaussian 16, Revision A.03,
 M. J. Frisch, G. W. Trucks, H. B. Schlegel, G. E. Scuseria, 
 M. A. Robb, J. R. Cheeseman, G. Scalmani, V. Barone, 
 G. A. Petersson, H. Nakatsuji, X. Li, M. Caricato, A. V. Marenich, 
 J. Bloino, B. G. Janesko, R. Gomperts, B. Mennucci, H. P. Hratchian, 
 J. V. Ortiz, A. F. Izmaylov, J. L. Sonnenberg, D. Williams-Young, 
 F. Ding, F. Lipparini, F. Egidi, J. Goings, B. Peng, A. Petrone, 
 T. Henderson, D. Ranasinghe, V. G. Zakrzewski, J. Gao, N. Rega, 
 G. Zheng, W. Liang, M. Hada, M. Ehara, K. Toyota, R. Fukuda, 
 J. Hasegawa, M. Ishida, T. Nakajima, Y. Honda, O. Kitao, H. Nakai, 
 T. Vreven, K. Throssell, J. A. Montgomery, Jr., J. E. Peralta, 
 F. Ogliaro, M. J. Bearpark, J. J. Heyd, E. N. Brothers, K. N. Kudin, 
 V. N. Staroverov, T. A. Keith, R. Kobayashi, J. Normand, 
 K. Raghavachari, A. P. Rendell, J. C. Burant, S. S. Iyengar, 
 J. Tomasi, M. Cossi, J. M. Millam, M. Klene, C. Adamo, R. Cammi, 
 J. W. Ochterski, R. L. Martin, K. Morokuma, O. Farkas, 
 J. B. Foresman, and D. J. Fox, Gaussian, Inc., Wallingford CT, 2016.
 
 ******************************************
 Gaussian 16:  ES64L-G16RevA.03 25-Dec-2016
                28-May-2023 
 ******************************************
 %chk=CCqdOrCqCrCCCqCrdCCN.chk
 %NProcShared=20
 Will use up to   20 processors via shared memory.
 -----------------------------
 # opt freq b3lyp/6-31g(2df,p)
 -----------------------------
 1/18=20,19=15,26=3,38=1/1,3;
 2/9=110,12=2,17=6,18=5,40=1/2;
 3/5=1,6=6,7=104,11=2,25=1,30=1,71=1,74=-5/1,2,3;
 4//1;
 5/5=2,38=5/2;
 6/7=2,8=2,9=2,10=2,28=1/1;
 7//1,2,3,16;
 1/18=20,19=15,26=3/3(2);
 2/9=110/2;
 99//99;
 2/9=110/2;
 3/5=1,6=6,7=104,11=2,25=1,30=1,71=1,74=-5/1,2,3;
 4/5=5,16=3,69=1/1;
 5/5=2,38=5/2;
 7//1,2,3,16;
 1/18=20,19=15,26=3/3(-5);
 2/9=110/2;
 6/7=2,8=2,9=2,10=2,19=2,28=1/1;
 99/9=1/99;
 -------------------
 Title Card Required
 -------------------
 Symbolic Z-matrix:
 Charge =  0 Multiplicity = 1
 C                     1.07249   0.06015  -0.03071 
 C                     2.57519   0.03589  -0.05053 
 O                     3.17545  -0.10055  -1.12181 
 C                     3.3043    0.22878   1.28311 
 C                     2.91984  -0.8717    2.26572 
 C                     4.81055   0.21837   1.02629 
 C                     5.67684   0.42291   2.26745 
 C                     7.16149   0.3891    1.99011 
 C                     7.67287   0.15841   0.58923 
 C                     8.03262   0.52758   3.01141 
 C                     9.514     0.48716   2.81915 
 N                     10.21623   0.66972   4.07597 
 H                     0.69527  -0.07953  -1.04748 
 H                     0.72815   1.02405   0.34943 
 H                     0.69287  -0.75586   0.58625 
 H                     3.01884   1.21074   1.67942 
 H                     3.19013  -1.85561   1.86606 
 H                     1.8477   -0.87059   2.47152 
 H                     3.41862  -0.74592   3.23041 
 H                     5.04139   1.00884   0.29855 
 H                     5.07101  -0.74339   0.56258 
 H                     5.46583  -0.36373   3.00108 
 H                     5.40983   1.38083   2.73251 
 H                     6.89913   0.03792  -0.16798 
 H                     8.26967  -0.75847   0.55344 
 H                     8.27899   1.00977   0.26752 
 H                     7.65684   0.66337   4.02429 
 H                     9.81616   1.27853   2.12435 
 H                     9.80256  -0.47961   2.3929 
 H                     10.01312   1.60201   4.4309 
 H                     11.21615   0.65928   3.88041 
 

 GradGradGradGradGradGradGradGradGradGradGradGradGradGradGradGradGradGrad
 Berny optimization.
 Initialization pass.
                           ----------------------------
                           !    Initial Parameters    !
                           ! (Angstroms and Degrees)  !
 --------------------------                            --------------------------
 ! Name  Definition              Value          Derivative Info.                !
 --------------------------------------------------------------------------------
 ! R1    R(1,2)                  1.503          estimate D2E/DX2                !
 ! R2    R(1,13)                 1.0934         estimate D2E/DX2                !
 ! R3    R(1,14)                 1.0919         estimate D2E/DX2                !
 ! R4    R(1,15)                 1.0912         estimate D2E/DX2                !
 ! R5    R(2,3)                  1.2355         estimate D2E/DX2                !
 ! R6    R(2,4)                  1.5321         estimate D2E/DX2                !
 ! R7    R(4,5)                  1.5246         estimate D2E/DX2                !
 ! R8    R(4,6)                  1.528          estimate D2E/DX2                !
 ! R9    R(4,16)                 1.0967         estimate D2E/DX2                !
 ! R10   R(5,17)                 1.0958         estimate D2E/DX2                !
 ! R11   R(5,18)                 1.0917         estimate D2E/DX2                !
 ! R12   R(5,19)                 1.0933         estimate D2E/DX2                !
 ! R13   R(6,7)                  1.5273         estimate D2E/DX2                !
 ! R14   R(6,20)                 1.099          estimate D2E/DX2                !
 ! R15   R(6,21)                 1.099          estimate D2E/DX2                !
 ! R16   R(7,8)                  1.5107         estimate D2E/DX2                !
 ! R17   R(7,22)                 1.0961         estimate D2E/DX2                !
 ! R18   R(7,23)                 1.0978         estimate D2E/DX2                !
 ! R19   R(8,9)                  1.509          estimate D2E/DX2                !
 ! R20   R(8,10)                 1.3495         estimate D2E/DX2                !
 ! R21   R(9,24)                 1.0893         estimate D2E/DX2                !
 ! R22   R(9,25)                 1.0946         estimate D2E/DX2                !
 ! R23   R(9,26)                 1.0935         estimate D2E/DX2                !
 ! R24   R(10,11)                1.4944         estimate D2E/DX2                !
 ! R25   R(10,27)                1.0888         estimate D2E/DX2                !
 ! R26   R(11,12)                1.4512         estimate D2E/DX2                !
 ! R27   R(11,28)                1.0956         estimate D2E/DX2                !
 ! R28   R(11,29)                1.0953         estimate D2E/DX2                !
 ! R29   R(12,30)                1.018          estimate D2E/DX2                !
 ! R30   R(12,31)                1.0189         estimate D2E/DX2                !
 ! A1    A(2,1,13)             109.3042         estimate D2E/DX2                !
 ! A2    A(2,1,14)             109.5202         estimate D2E/DX2                !
 ! A3    A(2,1,15)             110.0729         estimate D2E/DX2                !
 ! A4    A(13,1,14)            109.1302         estimate D2E/DX2                !
 ! A5    A(13,1,15)            108.0723         estimate D2E/DX2                !
 ! A6    A(14,1,15)            110.7089         estimate D2E/DX2                !
 ! A7    A(1,2,3)              119.9297         estimate D2E/DX2                !
 ! A8    A(1,2,4)              117.5336         estimate D2E/DX2                !
 ! A9    A(3,2,4)              122.5091         estimate D2E/DX2                !
 ! A10   A(2,4,5)              110.4954         estimate D2E/DX2                !
 ! A11   A(2,4,6)              108.7805         estimate D2E/DX2                !
 ! A12   A(2,4,16)             107.6622         estimate D2E/DX2                !
 ! A13   A(5,4,6)              110.6088         estimate D2E/DX2                !
 ! A14   A(5,4,16)             110.3499         estimate D2E/DX2                !
 ! A15   A(6,4,16)             108.8693         estimate D2E/DX2                !
 ! A16   A(4,5,17)             110.5385         estimate D2E/DX2                !
 ! A17   A(4,5,18)             111.6178         estimate D2E/DX2                !
 ! A18   A(4,5,19)             111.7535         estimate D2E/DX2                !
 ! A19   A(17,5,18)            108.1733         estimate D2E/DX2                !
 ! A20   A(17,5,19)            108.215          estimate D2E/DX2                !
 ! A21   A(18,5,19)            106.3552         estimate D2E/DX2                !
 ! A22   A(4,6,7)              114.9364         estimate D2E/DX2                !
 ! A23   A(4,6,20)             108.2677         estimate D2E/DX2                !
 ! A24   A(4,6,21)             108.0889         estimate D2E/DX2                !
 ! A25   A(7,6,20)             108.8238         estimate D2E/DX2                !
 ! A26   A(7,6,21)             109.0047         estimate D2E/DX2                !
 ! A27   A(20,6,21)            107.4735         estimate D2E/DX2                !
 ! A28   A(6,7,8)              113.9051         estimate D2E/DX2                !
 ! A29   A(6,7,22)             109.7907         estimate D2E/DX2                !
 ! A30   A(6,7,23)             108.8536         estimate D2E/DX2                !
 ! A31   A(8,7,22)             107.2168         estimate D2E/DX2                !
 ! A32   A(8,7,23)             109.653          estimate D2E/DX2                !
 ! A33   A(22,7,23)            107.2085         estimate D2E/DX2                !
 ! A34   A(7,8,9)              120.4561         estimate D2E/DX2                !
 ! A35   A(7,8,10)             119.5485         estimate D2E/DX2                !
 ! A36   A(9,8,10)             119.9668         estimate D2E/DX2                !
 ! A37   A(8,9,24)             114.9303         estimate D2E/DX2                !
 ! A38   A(8,9,25)             110.0703         estimate D2E/DX2                !
 ! A39   A(8,9,26)             109.9951         estimate D2E/DX2                !
 ! A40   A(24,9,25)            105.7773         estimate D2E/DX2                !
 ! A41   A(24,9,26)            105.9821         estimate D2E/DX2                !
 ! A42   A(25,9,26)            109.8973         estimate D2E/DX2                !
 ! A43   A(8,10,11)            122.6688         estimate D2E/DX2                !
 ! A44   A(8,10,27)            119.6055         estimate D2E/DX2                !
 ! A45   A(11,10,27)           117.7218         estimate D2E/DX2                !
 ! A46   A(10,11,12)           111.3991         estimate D2E/DX2                !
 ! A47   A(10,11,28)           109.6004         estimate D2E/DX2                !
 ! A48   A(10,11,29)           109.5799         estimate D2E/DX2                !
 ! A49   A(12,11,28)           108.9598         estimate D2E/DX2                !
 ! A50   A(12,11,29)           108.6989         estimate D2E/DX2                !
 ! A51   A(28,11,29)           108.5489         estimate D2E/DX2                !
 ! A52   A(11,12,30)           108.6992         estimate D2E/DX2                !
 ! A53   A(11,12,31)           107.9001         estimate D2E/DX2                !
 ! A54   A(30,12,31)           105.7887         estimate D2E/DX2                !
 ! D1    D(13,1,2,3)             1.3221         estimate D2E/DX2                !
 ! D2    D(13,1,2,4)           179.4564         estimate D2E/DX2                !
 ! D3    D(14,1,2,3)          -118.189          estimate D2E/DX2                !
 ! D4    D(14,1,2,4)            59.9453         estimate D2E/DX2                !
 ! D5    D(15,1,2,3)           119.8737         estimate D2E/DX2                !
 ! D6    D(15,1,2,4)           -61.992          estimate D2E/DX2                !
 ! D7    D(1,2,4,5)             60.3566         estimate D2E/DX2                !
 ! D8    D(1,2,4,6)           -178.0417         estimate D2E/DX2                !
 ! D9    D(1,2,4,16)           -60.2167         estimate D2E/DX2                !
 ! D10   D(3,2,4,5)           -121.5608         estimate D2E/DX2                !
 ! D11   D(3,2,4,6)              0.0409         estimate D2E/DX2                !
 ! D12   D(3,2,4,16)           117.8659         estimate D2E/DX2                !
 ! D13   D(2,4,5,17)            60.1974         estimate D2E/DX2                !
 ! D14   D(2,4,5,18)           -60.249          estimate D2E/DX2                !
 ! D15   D(2,4,5,19)          -179.2125         estimate D2E/DX2                !
 ! D16   D(6,4,5,17)           -60.3176         estimate D2E/DX2                !
 ! D17   D(6,4,5,18)           179.236          estimate D2E/DX2                !
 ! D18   D(6,4,5,19)            60.2725         estimate D2E/DX2                !
 ! D19   D(16,4,5,17)          179.1516         estimate D2E/DX2                !
 ! D20   D(16,4,5,18)           58.7052         estimate D2E/DX2                !
 ! D21   D(16,4,5,19)          -60.2583         estimate D2E/DX2                !
 ! D22   D(2,4,6,7)            179.0991         estimate D2E/DX2                !
 ! D23   D(2,4,6,20)            57.2155         estimate D2E/DX2                !
 ! D24   D(2,4,6,21)           -58.9178         estimate D2E/DX2                !
 ! D25   D(5,4,6,7)            -59.3684         estimate D2E/DX2                !
 ! D26   D(5,4,6,20)           178.748          estimate D2E/DX2                !
 ! D27   D(5,4,6,21)            62.6147         estimate D2E/DX2                !
 ! D28   D(16,4,6,7)            62.0414         estimate D2E/DX2                !
 ! D29   D(16,4,6,20)          -59.8422         estimate D2E/DX2                !
 ! D30   D(16,4,6,21)         -175.9755         estimate D2E/DX2                !
 ! D31   D(4,6,7,8)            179.1847         estimate D2E/DX2                !
 ! D32   D(4,6,7,22)            58.9475         estimate D2E/DX2                !
 ! D33   D(4,6,7,23)           -58.1253         estimate D2E/DX2                !
 ! D34   D(20,6,7,8)           -59.2335         estimate D2E/DX2                !
 ! D35   D(20,6,7,22)         -179.4706         estimate D2E/DX2                !
 ! D36   D(20,6,7,23)           63.4566         estimate D2E/DX2                !
 ! D37   D(21,6,7,8)            57.6984         estimate D2E/DX2                !
 ! D38   D(21,6,7,22)          -62.5388         estimate D2E/DX2                !
 ! D39   D(21,6,7,23)         -179.6116         estimate D2E/DX2                !
 ! D40   D(6,7,8,9)             -0.4516         estimate D2E/DX2                !
 ! D41   D(6,7,8,10)          -178.5083         estimate D2E/DX2                !
 ! D42   D(22,7,8,9)           121.2219         estimate D2E/DX2                !
 ! D43   D(22,7,8,10)          -56.8348         estimate D2E/DX2                !
 ! D44   D(23,7,8,9)          -122.7029         estimate D2E/DX2                !
 ! D45   D(23,7,8,10)           59.2404         estimate D2E/DX2                !
 ! D46   D(7,8,9,24)             0.7555         estimate D2E/DX2                !
 ! D47   D(7,8,9,25)          -118.5229         estimate D2E/DX2                !
 ! D48   D(7,8,9,26)           120.2436         estimate D2E/DX2                !
 ! D49   D(10,8,9,24)          178.8041         estimate D2E/DX2                !
 ! D50   D(10,8,9,25)           59.5256         estimate D2E/DX2                !
 ! D51   D(10,8,9,26)          -61.7078         estimate D2E/DX2                !
 ! D52   D(7,8,10,11)          179.1883         estimate D2E/DX2                !
 ! D53   D(7,8,10,27)           -0.0711         estimate D2E/DX2                !
 ! D54   D(9,8,10,11)            1.122          estimate D2E/DX2                !
 ! D55   D(9,8,10,27)         -178.1374         estimate D2E/DX2                !
 ! D56   D(8,10,11,12)         179.6256         estimate D2E/DX2                !
 ! D57   D(8,10,11,28)          58.9638         estimate D2E/DX2                !
 ! D58   D(8,10,11,29)         -60.0528         estimate D2E/DX2                !
 ! D59   D(27,10,11,12)         -1.1018         estimate D2E/DX2                !
 ! D60   D(27,10,11,28)       -121.7636         estimate D2E/DX2                !
 ! D61   D(27,10,11,29)        119.2198         estimate D2E/DX2                !
 ! D62   D(10,11,12,30)        -64.1608         estimate D2E/DX2                !
 ! D63   D(10,11,12,31)       -178.4402         estimate D2E/DX2                !
 ! D64   D(28,11,12,30)         56.8762         estimate D2E/DX2                !
 ! D65   D(28,11,12,31)        -57.4032         estimate D2E/DX2                !
 ! D66   D(29,11,12,30)        175.0003         estimate D2E/DX2                !
 ! D67   D(29,11,12,31)         60.7209         estimate D2E/DX2                !
 --------------------------------------------------------------------------------
 Trust Radius=3.00D-01 FncErr=1.00D-07 GrdErr=1.00D-06 EigMax=2.50D+02 EigMin=1.00D-04
 Number of steps in this run=    161 maximum allowed number of steps=    186.
 GradGradGradGradGradGradGradGradGradGradGradGradGradGradGradGradGradGrad

                          Input orientation:                          
 ---------------------------------------------------------------------
 Center     Atomic      Atomic             Coordinates (Angstroms)
 Number     Number       Type             X           Y           Z
 ---------------------------------------------------------------------
      1          6           0        1.072490    0.060150   -0.030710
      2          6           0        2.575190    0.035890   -0.050530
      3          8           0        3.175450   -0.100550   -1.121810
      4          6           0        3.304300    0.228780    1.283110
      5          6           0        2.919840   -0.871700    2.265720
      6          6           0        4.810550    0.218370    1.026290
      7          6           0        5.676840    0.422910    2.267450
      8          6           0        7.161490    0.389100    1.990110
      9          6           0        7.672870    0.158410    0.589230
     10          6           0        8.032620    0.527580    3.011410
     11          6           0        9.514000    0.487160    2.819150
     12          7           0       10.216230    0.669720    4.075970
     13          1           0        0.695270   -0.079530   -1.047480
     14          1           0        0.728150    1.024050    0.349430
     15          1           0        0.692870   -0.755860    0.586250
     16          1           0        3.018840    1.210740    1.679420
     17          1           0        3.190130   -1.855610    1.866060
     18          1           0        1.847700   -0.870590    2.471520
     19          1           0        3.418620   -0.745920    3.230410
     20          1           0        5.041390    1.008840    0.298550
     21          1           0        5.071010   -0.743390    0.562580
     22          1           0        5.465830   -0.363730    3.001080
     23          1           0        5.409830    1.380830    2.732510
     24          1           0        6.899130    0.037920   -0.167980
     25          1           0        8.269670   -0.758470    0.553440
     26          1           0        8.278990    1.009770    0.267520
     27          1           0        7.656840    0.663370    4.024290
     28          1           0        9.816160    1.278530    2.124350
     29          1           0        9.802560   -0.479610    2.392900
     30          1           0       10.013120    1.602010    4.430900
     31          1           0       11.216150    0.659280    3.880410
 ---------------------------------------------------------------------
                    Distance matrix (angstroms):
                    1          2          3          4          5
     1  C    0.000000
     2  C    1.503027   0.000000
     3  O    2.374608   1.235544   0.000000
     4  C    2.595291   1.532124   2.430782   0.000000
     5  C    3.091058   2.511477   3.483586   1.524594   0.000000
     6  C    3.887850   2.487906   2.718381   1.528023   2.509825
     7  C    5.158796   3.891407   4.244767   2.575958   3.045828
     8  C    6.424005   5.032208   5.080582   3.924725   4.433641
     9  C    6.630158   5.139129   4.818870   4.423893   5.144224
    10  C    7.610282   6.277004   6.408600   5.043145   5.352995
    11  C    8.919817   7.522353   7.486908   6.402074   6.755422
    12  N   10.042130   8.707194   8.785375   7.467883   7.674001
    13  H    1.093447   2.131040   2.481383   3.511943   4.068604
    14  H    1.091870   2.132601   3.068966   2.853202   3.474124
    15  H    1.091157   2.139038   3.083846   2.876577   2.791672
    16  H    2.834904   2.137715   3.096917   1.096720   2.165665
    17  H    3.428159   2.762108   3.465230   2.167383   1.095839
    18  H    2.779997   2.776992   3.907416   2.177755   1.091714
    19  H    4.097436   3.476661   4.406524   2.180616   1.093265
    20  H    4.093970   2.674066   2.594205   2.143673   3.450676
    21  H    4.121387   2.685572   2.616020   2.141388   2.746758
    22  H    5.354705   4.222300   4.723698   2.823951   2.698306
    23  H    5.309623   4.193967   4.694968   2.803790   3.389961
    24  H    5.828299   4.325535   3.846396   3.881352   4.752373
    25  H    7.267102   5.781253   5.402814   5.114878   5.618310
    26  H    7.274913   5.795078   5.404551   5.137014   6.021065
    27  H    7.756324   6.543780   6.866497   5.162126   5.280926
    28  H    9.087381   7.661978   7.519205   6.649359   7.225144
    29  H    9.076307   7.646631   7.511023   6.630297   6.895052
    30  H   10.110300   8.823761   8.971345   7.536751   7.818048
    31  H   10.888051   9.513522   9.500126   8.338385   8.589522
                    6          7          8          9         10
     6  C    0.000000
     7  C    1.527342   0.000000
     8  C    2.546570   1.510710   0.000000
     9  C    2.896117   2.621167   1.509037   0.000000
    10  C    3.797110   2.472677   1.349481   2.476421   0.000000
    11  C    5.040738   3.877151   2.496242   2.910392   1.494351
    12  N    6.222993   4.892619   3.709582   4.345972   2.433443
    13  H    4.617878   6.004769   7.159509   7.170937   8.407132
    14  H    4.215833   5.341320   6.669547   7.002569   7.790244
    15  H    4.254180   5.390351   6.717500   7.039623   7.835850
    16  H    2.149791   2.833976   4.234757   4.894477   5.232485
    17  H    2.762674   3.396541   4.563531   5.077552   5.517348
    18  H    3.471744   4.046863   5.482238   6.207613   6.363929
    19  H    2.779473   2.719010   4.103132   5.088446   4.791530
    20  H    1.098970   2.150274   2.782135   2.780722   4.066777
    21  H    1.099022   2.152642   2.773172   2.753839   4.047625
    22  H    2.160562   1.096148   2.112836   3.310691   2.717159
    23  H    2.149799   1.097810   2.145460   3.348031   2.772156
    24  H    2.412677   2.752005   2.202161   1.089293   3.410731
    25  H    3.625371   3.325095   2.146858   1.094587   2.784194
    26  H    3.637598   3.333963   2.145077   1.093477   2.796808
    27  H    4.157811   2.657952   2.111512   3.472014   1.088841
    28  H    5.233145   4.229247   2.802923   2.864429   2.128806
    29  H    5.222544   4.225144   2.809297   2.862844   2.128303
    30  H    6.369660   4.987396   3.944667   4.724318   2.663031
    31  H    7.026529   5.774207   4.481796   4.861848   3.302631
                   11         12         13         14         15
    11  C    0.000000
    12  N    1.451224   0.000000
    13  H    9.645826  10.837887   0.000000
    14  H    9.142151  10.199819   1.780541   0.000000
    15  H    9.183860  10.242305   1.768192   1.795942   0.000000
    16  H    6.633977   7.605168   3.807855   2.655370   3.236151
    17  H    6.810894   7.786339   4.226997   4.080926   3.013913
    18  H    7.793362   8.659048   3.786454   3.057175   2.213829
    19  H    6.232438   6.994749   5.114788   4.321049   3.797551
    20  H    5.160408   6.415830   4.678152   4.313567   4.701762
    21  H    5.132886   6.388590   4.709576   4.693582   4.378222
    22  H    4.140627   4.978926   6.263374   5.603819   5.363424
    23  H    4.201234   5.041036   6.216756   5.265405   5.605496
    24  H    3.995286   5.423415   6.266992   6.270659   6.302112
    25  H    2.869389   4.270485   7.771450   7.752001   7.576871
    26  H    2.882566   4.286353   7.773584   7.551298   7.795400
    27  H    2.220913   2.559920   8.645126   7.851206   7.895012
    28  H    1.095589   2.083153   9.751690   9.263208   9.473063
    29  H    1.095263   2.079617   9.743665   9.422403   9.291219
    30  H    2.022313   1.018034  10.939038  10.158893  10.354127
    31  H    2.013259   1.018917  11.641257  11.072444  11.117263
                   16         17         18         19         20
    16  H    0.000000
    17  H    3.076797   0.000000
    18  H    2.516133   1.771712   0.000000
    19  H    2.528619   1.773435   1.749070   0.000000
    20  H    2.457290   3.753575   4.295778   3.782640   0.000000
    21  H    3.045875   2.544367   3.748328   3.138107   1.772258
    22  H    3.195857   2.948353   3.691640   2.095168   3.060681
    23  H    2.618160   4.018998   4.222058   2.955653   2.489636
    24  H    4.454778   4.634593   5.771421   4.927211   2.147448
    25  H    5.719863   5.359889   6.703231   5.540669   3.689193
    26  H    5.450048   6.054934   7.053713   5.956875   3.237749
    27  H    5.225808   5.563696   6.205662   4.536392   4.565202
    28  H    6.812204   7.334427   8.260484   6.800756   5.119053
    29  H    7.027460   6.774597   7.964851   6.444147   5.410224
    30  H    7.526200   8.067635   8.753685   7.102210   6.492016
    31  H    8.505549   8.648657   9.596527   7.949752   7.146998
                   21         22         23         24         25
    21  H    0.000000
    22  H    2.499261   0.000000
    23  H    3.055439   1.766000   0.000000
    24  H    2.118062   3.501230   3.526225   0.000000
    25  H    3.198709   3.742764   4.183735   1.741569   0.000000
    26  H    3.667665   4.156046   3.800782   1.743034   1.791231
    27  H    4.544109   2.627245   2.689330   4.305861   3.800525
    28  H    5.389224   4.731918   4.449277   3.911899   3.001459
    29  H    5.080080   4.380701   4.782536   3.905874   2.410628
    30  H    6.699944   5.156197   4.911591   5.770009   4.862734
    31  H    7.123077   5.906433   5.962521   5.950816   4.664814
                   26         27         28         29         30
    26  H    0.000000
    27  H    3.823661   0.000000
    28  H    2.425478   2.941234   0.000000
    29  H    3.009445   2.927789   1.778584   0.000000
    30  H    4.548812   2.568741   2.337436   2.920774   0.000000
    31  H    4.669339   3.562219   2.329633   2.346911   1.624518
                   31
    31  H    0.000000
 Stoichiometry    C10H19NO
 Framework group  C1[X(C10H19NO)]
 Deg. of freedom    87
 Full point group                 C1      NOp   1
 Largest Abelian subgroup         C1      NOp   1
 Largest concise Abelian subgroup C1      NOp   1
                         Standard orientation:                         
 ---------------------------------------------------------------------
 Center     Atomic      Atomic             Coordinates (Angstroms)
 Number     Number       Type             X           Y           Z
 ---------------------------------------------------------------------
      1          6           0        4.712238   -0.159175   -0.309997
      2          6           0        3.329089    0.397074   -0.118756
      3          8           0        3.176219    1.598334    0.126548
      4          6           0        2.149220   -0.566330   -0.283578
      5          6           0        2.243860   -1.704038    0.726894
      6          6           0        0.848129    0.212687   -0.096104
      7          6           0       -0.426111   -0.614532   -0.253565
      8          6           0       -1.697622    0.173987   -0.044414
      9          6           0       -1.639398    1.642511    0.297987
     10          6           0       -2.890196   -0.452170   -0.126840
     11          6           0       -4.189170    0.255534    0.085069
     12          7           0       -5.315155   -0.646886   -0.069361
     13          1           0        5.445562    0.640067   -0.171888
     14          1           0        4.807254   -0.561247   -1.320684
     15          1           0        4.910808   -0.932909    0.433326
     16          1           0        2.182170   -0.960886   -1.306336
     17          1           0        2.226364   -1.311967    1.750045
     18          1           0        3.162126   -2.280417    0.598776
     19          1           0        1.418140   -2.412269    0.618153
     20          1           0        0.830156    1.034022   -0.826050
     21          1           0        0.861181    0.662521    0.906556
     22          1           0       -0.429005   -1.433925    0.474534
     23          1           0       -0.433247   -1.068274   -1.253192
     24          1           0       -0.635133    2.059441    0.362638
     25          1           0       -2.098308    1.818671    1.275990
     26          1           0       -2.158837    2.225763   -0.467318
     27          1           0       -2.923959   -1.518544   -0.344285
     28          1           0       -4.285346    1.071920   -0.639209
     29          1           0       -4.215399    0.680231    1.094298
     30          1           0       -5.339011   -0.977253   -1.032004
     31          1           0       -6.169411   -0.106697    0.059613
 ---------------------------------------------------------------------
 Rotational constants (GHZ):           2.6221864           0.2954068           0.2732084
 Standard basis: 6-31G(2df,p) (6D, 7F)
 There are   467 symmetry adapted cartesian basis functions of A   symmetry.
 There are   431 symmetry adapted basis functions of A   symmetry.
   431 basis functions,   661 primitive gaussians,   467 cartesian basis functions
    47 alpha electrons       47 beta electrons
       nuclear repulsion energy       696.6589185043 Hartrees.
 NAtoms=   31 NActive=   31 NUniq=   31 SFac= 1.00D+00 NAtFMM=   60 NAOKFM=F Big=F
 Integral buffers will be    131072 words long.
 Raffenetti 2 integral format.
 Two-electron integral symmetry is turned on.
 One-electron integrals computed using PRISM.
 PrsmSu:  requested number of processors reduced to:  13 ShMem   1 Linda.
 NBasis=   431 RedAO= T EigKep=  3.95D-04  NBF=   431
 NBsUse=   431 1.00D-06 EigRej= -1.00D+00 NBFU=   431
 ExpMin= 1.61D-01 ExpMax= 5.48D+03 ExpMxC= 8.25D+02 IAcc=3 IRadAn=         5 AccDes= 0.00D+00
 Harris functional with IExCor=  402 and IRadAn=       5 diagonalized for initial guess.
 HarFok:  IExCor=  402 AccDes= 0.00D+00 IRadAn=         5 IDoV= 1 UseB2=F ITyADJ=14
 ICtDFT=  3500011 ScaDFX=  1.000000  1.000000  1.000000  1.000000
 FoFCou: FMM=F IPFlag=           0 FMFlag=      100000 FMFlg1=           0
         NFxFlg=           0 DoJE=T BraDBF=F KetDBF=T FulRan=T
         wScrn=  0.000000 ICntrl=       500 IOpCl=  0 I1Cent=   200000004 NGrid=           0
         NMat0=    1 NMatS0=      1 NMatT0=    0 NMatD0=    1 NMtDS0=    0 NMtDT0=    0
 Petite list used in FoFCou.
 Requested convergence on RMS density matrix=1.00D-08 within 128 cycles.
 Requested convergence on MAX density matrix=1.00D-06.
 Requested convergence on             energy=1.00D-06.
 No special actions if energy rises.
 Integral accuracy reduced to 1.0D-05 until final iterations.
 Initial convergence to 1.0D-05 achieved.  Increase integral accuracy.
 SCF Done:  E(RB3LYP) =  -522.487004588     A.U. after   13 cycles
            NFock= 13  Conv=0.93D-08     -V/T= 2.0080

 **********************************************************************

            Population analysis using the SCF density.

 **********************************************************************

 Orbital symmetries:
       Occupied  (A) (A) (A) (A) (A) (A) (A) (A) (A) (A) (A) (A)
                 (A) (A) (A) (A) (A) (A) (A) (A) (A) (A) (A) (A)
                 (A) (A) (A) (A) (A) (A) (A) (A) (A) (A) (A) (A)
                 (A) (A) (A) (A) (A) (A) (A) (A) (A) (A) (A)
       Virtual   (A) (A) (A) (A) (A) (A) (A) (A) (A) (A) (A) (A)
                 (A) (A) (A) (A) (A) (A) (A) (A) (A) (A) (A) (A)
                 (A) (A) (A) (A) (A) (A) (A) (A) (A) (A) (A) (A)
                 (A) (A) (A) (A) (A) (A) (A) (A) (A) (A) (A) (A)
                 (A) (A) (A) (A) (A) (A) (A) (A) (A) (A) (A) (A)
                 (A) (A) (A) (A) (A) (A) (A) (A) (A) (A) (A) (A)
                 (A) (A) (A) (A) (A) (A) (A) (A) (A) (A) (A) (A)
                 (A) (A) (A) (A) (A) (A) (A) (A) (A) (A) (A) (A)
                 (A) (A) (A) (A) (A) (A) (A) (A) (A) (A) (A) (A)
                 (A) (A) (A) (A) (A) (A) (A) (A) (A) (A) (A) (A)
                 (A) (A) (A) (A) (A) (A) (A) (A) (A) (A) (A) (A)
                 (A) (A) (A) (A) (A) (A) (A) (A) (A) (A) (A) (A)
                 (A) (A) (A) (A) (A) (A) (A) (A) (A) (A) (A) (A)
                 (A) (A) (A) (A) (A) (A) (A) (A) (A) (A) (A) (A)
                 (A) (A) (A) (A) (A) (A) (A) (A) (A) (A) (A) (A)
                 (A) (A) (A) (A) (A) (A) (A) (A) (A) (A) (A) (A)
                 (A) (A) (A) (A) (A) (A) (A) (A) (A) (A) (A) (A)
                 (A) (A) (A) (A) (A) (A) (A) (A) (A) (A) (A) (A)
                 (A) (A) (A) (A) (A) (A) (A) (A) (A) (A) (A) (A)
                 (A) (A) (A) (A) (A) (A) (A) (A) (A) (A) (A) (A)
                 (A) (A) (A) (A) (A) (A) (A) (A) (A) (A) (A) (A)
                 (A) (A) (A) (A) (A) (A) (A) (A) (A) (A) (A) (A)
                 (A) (A) (A) (A) (A) (A) (A) (A) (A) (A) (A) (A)
                 (A) (A) (A) (A) (A) (A) (A) (A) (A) (A) (A) (A)
                 (A) (A) (A) (A) (A) (A) (A) (A) (A) (A) (A) (A)
                 (A) (A) (A) (A) (A) (A) (A) (A) (A) (A) (A) (A)
                 (A) (A) (A) (A) (A) (A) (A) (A) (A) (A) (A) (A)
                 (A) (A) (A) (A) (A) (A) (A) (A) (A) (A) (A) (A)
                 (A) (A) (A) (A) (A) (A) (A) (A) (A) (A) (A) (A)
                 (A) (A) (A) (A) (A) (A) (A) (A) (A) (A) (A) (A)
                 (A) (A) (A) (A) (A) (A) (A) (A) (A) (A) (A) (A)
                 (A) (A) (A) (A) (A) (A) (A) (A) (A) (A) (A) (A)
 The electronic state is 1-A.
 Alpha  occ. eigenvalues --  -19.12558 -14.29951 -10.26694 -10.19619 -10.19607
 Alpha  occ. eigenvalues --  -10.18659 -10.18555 -10.17732 -10.17640 -10.17370
 Alpha  occ. eigenvalues --  -10.16885 -10.15993  -1.02309  -0.87727  -0.82321
 Alpha  occ. eigenvalues --   -0.79445  -0.74588  -0.71654  -0.68859  -0.66642
 Alpha  occ. eigenvalues --   -0.62433  -0.57687  -0.52588  -0.51468  -0.47890
 Alpha  occ. eigenvalues --   -0.47220  -0.46734  -0.45459  -0.44520  -0.43553
 Alpha  occ. eigenvalues --   -0.42679  -0.41897  -0.40384  -0.39726  -0.38817
 Alpha  occ. eigenvalues --   -0.38575  -0.37978  -0.37004  -0.35719  -0.34173
 Alpha  occ. eigenvalues --   -0.33573  -0.33316  -0.32306  -0.31390  -0.24069
 Alpha  occ. eigenvalues --   -0.23428  -0.21260
 Alpha virt. eigenvalues --   -0.01560   0.02351   0.07717   0.08779   0.10638
 Alpha virt. eigenvalues --    0.11651   0.12281   0.13390   0.13865   0.14385
 Alpha virt. eigenvalues --    0.14711   0.15295   0.16482   0.16868   0.17079
 Alpha virt. eigenvalues --    0.18126   0.18553   0.19568   0.19908   0.21170
 Alpha virt. eigenvalues --    0.22195   0.23254   0.23532   0.25333   0.25623
 Alpha virt. eigenvalues --    0.26600   0.27991   0.29350   0.31870   0.33952
 Alpha virt. eigenvalues --    0.36801   0.38333   0.44445   0.44918   0.46848
 Alpha virt. eigenvalues --    0.47106   0.48466   0.48888   0.50123   0.51376
 Alpha virt. eigenvalues --    0.52195   0.53729   0.54671   0.55603   0.56822
 Alpha virt. eigenvalues --    0.57390   0.58165   0.59355   0.60450   0.62072
 Alpha virt. eigenvalues --    0.63466   0.63709   0.65370   0.65932   0.66072
 Alpha virt. eigenvalues --    0.67089   0.68076   0.68829   0.69942   0.70211
 Alpha virt. eigenvalues --    0.71668   0.71936   0.72478   0.73600   0.74231
 Alpha virt. eigenvalues --    0.74957   0.75170   0.75809   0.76238   0.76636
 Alpha virt. eigenvalues --    0.77518   0.77921   0.78700   0.79087   0.80291
 Alpha virt. eigenvalues --    0.81165   0.82812   0.83122   0.83602   0.84200
 Alpha virt. eigenvalues --    0.85004   0.85673   0.85824   0.86355   0.87373
 Alpha virt. eigenvalues --    0.89859   0.91270   0.92269   0.93293   0.94605
 Alpha virt. eigenvalues --    0.97397   0.98217   0.99943   1.01402   1.03781
 Alpha virt. eigenvalues --    1.05507   1.10095   1.12208   1.12602   1.14129
 Alpha virt. eigenvalues --    1.15959   1.17126   1.18732   1.19753   1.22044
 Alpha virt. eigenvalues --    1.23900   1.26919   1.28215   1.28912   1.31679
 Alpha virt. eigenvalues --    1.32686   1.33841   1.34431   1.35860   1.36336
 Alpha virt. eigenvalues --    1.38701   1.38938   1.41651   1.43260   1.44359
 Alpha virt. eigenvalues --    1.44841   1.45278   1.46744   1.50678   1.52877
 Alpha virt. eigenvalues --    1.53367   1.54595   1.54906   1.56189   1.58790
 Alpha virt. eigenvalues --    1.60245   1.64604   1.65288   1.67206   1.69195
 Alpha virt. eigenvalues --    1.70321   1.71782   1.73206   1.75058   1.76775
 Alpha virt. eigenvalues --    1.79508   1.79899   1.82855   1.85298   1.85361
 Alpha virt. eigenvalues --    1.86851   1.89234   1.90095   1.90969   1.92480
 Alpha virt. eigenvalues --    1.93725   1.94540   1.94748   1.96078   1.97410
 Alpha virt. eigenvalues --    1.98426   2.02796   2.03799   2.06448   2.08664
 Alpha virt. eigenvalues --    2.10886   2.16166   2.17620   2.20266   2.22410
 Alpha virt. eigenvalues --    2.22511   2.24294   2.26182   2.28213   2.30707
 Alpha virt. eigenvalues --    2.31636   2.35091   2.37376   2.38529   2.39381
 Alpha virt. eigenvalues --    2.41384   2.42614   2.44156   2.47518   2.48406
 Alpha virt. eigenvalues --    2.50569   2.52701   2.55539   2.57094   2.58407
 Alpha virt. eigenvalues --    2.59857   2.62992   2.65323   2.66184   2.72569
 Alpha virt. eigenvalues --    2.73981   2.76530   2.76926   2.79295   2.79824
 Alpha virt. eigenvalues --    2.80727   2.80752   2.82232   2.83444   2.85461
 Alpha virt. eigenvalues --    2.86272   2.87762   2.89329   2.90005   2.90308
 Alpha virt. eigenvalues --    2.92235   2.92606   2.93798   2.94270   2.95402
 Alpha virt. eigenvalues --    2.96272   2.96921   2.98395   2.99582   3.00868
 Alpha virt. eigenvalues --    3.02220   3.03123   3.04581   3.06194   3.06656
 Alpha virt. eigenvalues --    3.08756   3.10021   3.11770   3.14383   3.16298
 Alpha virt. eigenvalues --    3.17933   3.20340   3.22106   3.22545   3.24016
 Alpha virt. eigenvalues --    3.25971   3.29973   3.30284   3.31475   3.32998
 Alpha virt. eigenvalues --    3.34617   3.36938   3.37278   3.38982   3.39346
 Alpha virt. eigenvalues --    3.41558   3.42451   3.43909   3.46518   3.47318
 Alpha virt. eigenvalues --    3.50700   3.51149   3.56265   3.56552   3.58676
 Alpha virt. eigenvalues --    3.60345   3.60958   3.61744   3.64183   3.65030
 Alpha virt. eigenvalues --    3.65406   3.67912   3.68935   3.70204   3.74871
 Alpha virt. eigenvalues --    3.75264   3.76983   3.78841   3.80896   3.82892
 Alpha virt. eigenvalues --    3.83668   3.86652   3.88523   3.90090   3.93063
 Alpha virt. eigenvalues --    3.94318   3.97880   4.00604   4.03091   4.06087
 Alpha virt. eigenvalues --    4.07819   4.09563   4.11493   4.14923   4.17854
 Alpha virt. eigenvalues --    4.19561   4.22744   4.23107   4.25947   4.27747
 Alpha virt. eigenvalues --    4.31813   4.32812   4.33938   4.34197   4.34903
 Alpha virt. eigenvalues --    4.37944   4.39350   4.40550   4.42423   4.44009
 Alpha virt. eigenvalues --    4.44388   4.46196   4.46858   4.49064   4.50412
 Alpha virt. eigenvalues --    4.52761   4.54544   4.55319   4.57371   4.57526
 Alpha virt. eigenvalues --    4.59491   4.60813   4.61152   4.62617   4.64158
 Alpha virt. eigenvalues --    4.64318   4.65116   4.66483   4.67300   4.69358
 Alpha virt. eigenvalues --    4.70238   4.70647   4.71934   4.73979   4.74324
 Alpha virt. eigenvalues --    4.74992   4.76031   4.77495   4.78243   4.80334
 Alpha virt. eigenvalues --    4.81110   4.81778   4.83272   4.84145   4.84237
 Alpha virt. eigenvalues --    4.86213   4.87757   4.88149   4.89704   4.91088
 Alpha virt. eigenvalues --    4.93562   4.94329   4.96302   4.98036   4.99779
 Alpha virt. eigenvalues --    5.00523   5.06553   5.08155   5.10535   5.12475
 Alpha virt. eigenvalues --    5.16419   5.20105   5.22260   5.26305   5.28699
 Alpha virt. eigenvalues --    5.33396   5.36811   5.40598   5.42833   5.44518
 Alpha virt. eigenvalues --    5.50791   5.52967   5.54193   5.56129   5.59906
 Alpha virt. eigenvalues --    5.66166   5.69432   5.71799   5.75886   5.93006
 Alpha virt. eigenvalues --    6.01453   6.17696   6.41569   6.49556   6.72902
 Alpha virt. eigenvalues --    6.84643   9.75800  10.28422  10.96462  11.30939
 Alpha virt. eigenvalues --   11.45574  11.55449  11.80076  11.88689  12.12585
 Alpha virt. eigenvalues --   12.40867  12.64077  12.78655  13.10095
          Condensed to atoms (all electrons):
               1          2          3          4          5          6
     1  C    5.246938   0.351972  -0.066154  -0.128864   0.000217   0.005513
     2  C    0.351972   4.282105   0.777518   0.300181  -0.016994  -0.019257
     3  O   -0.066154   0.777518   7.673549  -0.088186  -0.000704   0.004131
     4  C   -0.128864   0.300181  -0.088186   5.101170   0.368637   0.386924
     5  C    0.000217  -0.016994  -0.000704   0.368637   5.005206  -0.027715
     6  C    0.005513  -0.019257   0.004131   0.386924  -0.027715   4.829967
     7  C    0.000009   0.003578   0.001097  -0.026765  -0.006032   0.369710
     8  C    0.000001  -0.000051   0.000001   0.000474   0.000495  -0.024705
     9  C   -0.000000  -0.000014  -0.000033   0.000929  -0.000025  -0.007344
    10  C   -0.000000   0.000002   0.000000  -0.000144   0.000005   0.001246
    11  C    0.000000  -0.000000   0.000000   0.000002   0.000000  -0.000186
    12  N   -0.000000   0.000000  -0.000000  -0.000000   0.000000   0.000000
    13  H    0.348974  -0.007679   0.004148   0.005246   0.000116  -0.000165
    14  H    0.355801  -0.017302   0.001071   0.005125  -0.000712   0.000022
    15  H    0.357429  -0.014754   0.001162   0.000908  -0.000405  -0.000025
    16  H   -0.001157  -0.023770   0.001443   0.343780  -0.043034  -0.034043
    17  H    0.000010  -0.002627   0.000715  -0.029250   0.377200  -0.005721
    18  H    0.001773  -0.005188   0.000056  -0.025780   0.369861   0.003901
    19  H   -0.000130   0.001196  -0.000052  -0.020178   0.377755  -0.005028
    20  H    0.000410  -0.000128   0.005550  -0.032843   0.005499   0.367445
    21  H    0.000389  -0.003144   0.005928  -0.033364  -0.008687   0.368952
    22  H   -0.000001  -0.000067  -0.000009  -0.007674   0.001124  -0.024715
    23  H    0.000002   0.000086  -0.000006  -0.002454  -0.001087  -0.029565
    24  H    0.000001   0.000063   0.000198  -0.000230   0.000013   0.002758
    25  H   -0.000000  -0.000000   0.000000  -0.000033   0.000003  -0.000033
    26  H   -0.000000  -0.000000   0.000000  -0.000017  -0.000000   0.000043
    27  H    0.000000  -0.000000  -0.000000  -0.000007  -0.000004   0.000454
    28  H    0.000000   0.000000   0.000000   0.000000  -0.000000   0.000013
    29  H    0.000000   0.000000   0.000000  -0.000000   0.000000   0.000007
    30  H   -0.000000  -0.000000   0.000000  -0.000000   0.000000   0.000000
    31  H    0.000000  -0.000000   0.000000   0.000000   0.000000  -0.000000
               7          8          9         10         11         12
     1  C    0.000009   0.000001  -0.000000  -0.000000   0.000000  -0.000000
     2  C    0.003578  -0.000051  -0.000014   0.000002  -0.000000   0.000000
     3  O    0.001097   0.000001  -0.000033   0.000000   0.000000  -0.000000
     4  C   -0.026765   0.000474   0.000929  -0.000144   0.000002  -0.000000
     5  C   -0.006032   0.000495  -0.000025   0.000005   0.000000   0.000000
     6  C    0.369710  -0.024705  -0.007344   0.001246  -0.000186   0.000000
     7  C    5.082245   0.422898  -0.084935  -0.048001   0.007501  -0.000061
     8  C    0.422898   4.407967   0.390705   0.635750   0.008567   0.000881
     9  C   -0.084935   0.390705   5.132562  -0.030253  -0.029687   0.000388
    10  C   -0.048001   0.635750  -0.030253   4.958594   0.360054  -0.027459
    11  C    0.007501   0.008567  -0.029687   0.360054   4.918415   0.380057
    12  N   -0.000061   0.000881   0.000388  -0.027459   0.380057   6.549652
    13  H    0.000000  -0.000000   0.000000  -0.000000  -0.000000   0.000000
    14  H   -0.000006   0.000000   0.000000  -0.000000  -0.000000   0.000000
    15  H   -0.000007  -0.000000   0.000000  -0.000000  -0.000000   0.000000
    16  H   -0.003477   0.000091  -0.000003  -0.000001  -0.000000   0.000000
    17  H   -0.000227  -0.000040   0.000002  -0.000001  -0.000000   0.000000
    18  H    0.000180  -0.000011   0.000000  -0.000000   0.000000  -0.000000
    19  H   -0.000111   0.000156   0.000009  -0.000016  -0.000000   0.000000
    20  H   -0.037872  -0.000750  -0.001830   0.000353  -0.000003   0.000000
    21  H   -0.037831  -0.001824  -0.001908   0.000375  -0.000004   0.000000
    22  H    0.344302  -0.016282   0.004458  -0.007621  -0.000228  -0.000000
    23  H    0.341212  -0.017178   0.004293  -0.007521  -0.000172   0.000001
    24  H   -0.013007  -0.016035   0.370678   0.004311  -0.000056  -0.000006
    25  H    0.004535  -0.018194   0.362662  -0.011046   0.002783   0.000090
    26  H    0.004157  -0.018358   0.362100  -0.011734   0.003109  -0.000009
    27  H   -0.019397  -0.028314   0.009455   0.359325  -0.074160   0.002459
    28  H   -0.000285  -0.006191   0.002984  -0.039302   0.368900  -0.049046
    29  H   -0.000109  -0.014352   0.002024  -0.013165   0.346643  -0.021582
    30  H   -0.000006  -0.000388   0.000023   0.000364  -0.056835   0.340437
    31  H    0.000004  -0.000184  -0.000017   0.004306  -0.047334   0.339292
              13         14         15         16         17         18
     1  C    0.348974   0.355801   0.357429  -0.001157   0.000010   0.001773
     2  C   -0.007679  -0.017302  -0.014754  -0.023770  -0.002627  -0.005188
     3  O    0.004148   0.001071   0.001162   0.001443   0.000715   0.000056
     4  C    0.005246   0.005125   0.000908   0.343780  -0.029250  -0.025780
     5  C    0.000116  -0.000712  -0.000405  -0.043034   0.377200   0.369861
     6  C   -0.000165   0.000022  -0.000025  -0.034043  -0.005721   0.003901
     7  C    0.000000  -0.000006  -0.000007  -0.003477  -0.000227   0.000180
     8  C   -0.000000   0.000000  -0.000000   0.000091  -0.000040  -0.000011
     9  C    0.000000   0.000000   0.000000  -0.000003   0.000002   0.000000
    10  C   -0.000000  -0.000000  -0.000000  -0.000001  -0.000001  -0.000000
    11  C   -0.000000  -0.000000  -0.000000  -0.000000  -0.000000   0.000000
    12  N    0.000000   0.000000   0.000000   0.000000   0.000000  -0.000000
    13  H    0.557715  -0.024983  -0.025302  -0.000161  -0.000046  -0.000094
    14  H   -0.024983   0.568299  -0.025550   0.001717   0.000050   0.000510
    15  H   -0.025302  -0.025550   0.560811   0.000086   0.000610   0.003217
    16  H   -0.000161   0.001717   0.000086   0.663133   0.005967  -0.002943
    17  H   -0.000046   0.000050   0.000610   0.005967   0.585152  -0.032811
    18  H   -0.000094   0.000510   0.003217  -0.002943  -0.032811   0.601653
    19  H    0.000003  -0.000014   0.000015  -0.003547  -0.031943  -0.028925
    20  H   -0.000005  -0.000035  -0.000006  -0.004406   0.000001  -0.000198
    21  H   -0.000003   0.000002  -0.000025   0.006802   0.005846  -0.000035
    22  H    0.000000   0.000000  -0.000000  -0.000228   0.000750  -0.000175
    23  H    0.000000  -0.000001   0.000000   0.005445   0.000110  -0.000044
    24  H   -0.000000  -0.000000  -0.000000   0.000012  -0.000004  -0.000000
    25  H   -0.000000   0.000000  -0.000000  -0.000000  -0.000000  -0.000000
    26  H   -0.000000  -0.000000   0.000000   0.000002   0.000000  -0.000000
    27  H    0.000000   0.000000   0.000000   0.000002   0.000000  -0.000000
    28  H    0.000000  -0.000000  -0.000000   0.000000   0.000000  -0.000000
    29  H    0.000000   0.000000   0.000000  -0.000000  -0.000000   0.000000
    30  H    0.000000   0.000000   0.000000  -0.000000  -0.000000   0.000000
    31  H   -0.000000  -0.000000  -0.000000  -0.000000  -0.000000   0.000000
              19         20         21         22         23         24
     1  C   -0.000130   0.000410   0.000389  -0.000001   0.000002   0.000001
     2  C    0.001196  -0.000128  -0.003144  -0.000067   0.000086   0.000063
     3  O   -0.000052   0.005550   0.005928  -0.000009  -0.000006   0.000198
     4  C   -0.020178  -0.032843  -0.033364  -0.007674  -0.002454  -0.000230
     5  C    0.377755   0.005499  -0.008687   0.001124  -0.001087   0.000013
     6  C   -0.005028   0.367445   0.368952  -0.024715  -0.029565   0.002758
     7  C   -0.000111  -0.037872  -0.037831   0.344302   0.341212  -0.013007
     8  C    0.000156  -0.000750  -0.001824  -0.016282  -0.017178  -0.016035
     9  C    0.000009  -0.001830  -0.001908   0.004458   0.004293   0.370678
    10  C   -0.000016   0.000353   0.000375  -0.007621  -0.007521   0.004311
    11  C   -0.000000  -0.000003  -0.000004  -0.000228  -0.000172  -0.000056
    12  N    0.000000   0.000000   0.000000  -0.000000   0.000001  -0.000006
    13  H    0.000003  -0.000005  -0.000003   0.000000   0.000000  -0.000000
    14  H   -0.000014  -0.000035   0.000002   0.000000  -0.000001  -0.000000
    15  H    0.000015  -0.000006  -0.000025  -0.000000   0.000000  -0.000000
    16  H   -0.003547  -0.004406   0.006802  -0.000228   0.005445   0.000012
    17  H   -0.031943   0.000001   0.005846   0.000750   0.000110  -0.000004
    18  H   -0.028925  -0.000198  -0.000035  -0.000175  -0.000044  -0.000000
    19  H    0.574003  -0.000005  -0.000038   0.004731   0.000616   0.000001
    20  H   -0.000005   0.626619  -0.039684   0.006067  -0.005777   0.003516
    21  H   -0.000038  -0.039684   0.623296  -0.005474   0.006215   0.003309
    22  H    0.004731   0.006067  -0.005474   0.625250  -0.039901   0.000284
    23  H    0.000616  -0.005777   0.006215  -0.039901   0.641344   0.000264
    24  H    0.000001   0.003516   0.003309   0.000284   0.000264   0.574715
    25  H    0.000000   0.000108   0.000063  -0.000118  -0.000131  -0.032668
    26  H   -0.000000   0.000010   0.000110  -0.000116  -0.000084  -0.031551
    27  H    0.000006   0.000017   0.000016   0.003418   0.003120  -0.000132
    28  H   -0.000000  -0.000004   0.000001  -0.000028   0.000071   0.000042
    29  H    0.000000   0.000001  -0.000004   0.000070  -0.000027  -0.000010
    30  H    0.000000   0.000000  -0.000000   0.000003  -0.000006  -0.000000
    31  H   -0.000000   0.000000  -0.000000   0.000000  -0.000000  -0.000000
              25         26         27         28         29         30
     1  C   -0.000000  -0.000000   0.000000   0.000000   0.000000  -0.000000
     2  C   -0.000000  -0.000000  -0.000000   0.000000   0.000000  -0.000000
     3  O    0.000000   0.000000  -0.000000   0.000000   0.000000   0.000000
     4  C   -0.000033  -0.000017  -0.000007   0.000000  -0.000000  -0.000000
     5  C    0.000003  -0.000000  -0.000004  -0.000000   0.000000   0.000000
     6  C   -0.000033   0.000043   0.000454   0.000013   0.000007   0.000000
     7  C    0.004535   0.004157  -0.019397  -0.000285  -0.000109  -0.000006
     8  C   -0.018194  -0.018358  -0.028314  -0.006191  -0.014352  -0.000388
     9  C    0.362662   0.362100   0.009455   0.002984   0.002024   0.000023
    10  C   -0.011046  -0.011734   0.359325  -0.039302  -0.013165   0.000364
    11  C    0.002783   0.003109  -0.074160   0.368900   0.346643  -0.056835
    12  N    0.000090  -0.000009   0.002459  -0.049046  -0.021582   0.340437
    13  H   -0.000000  -0.000000   0.000000   0.000000   0.000000   0.000000
    14  H    0.000000  -0.000000   0.000000  -0.000000   0.000000   0.000000
    15  H   -0.000000   0.000000   0.000000  -0.000000   0.000000   0.000000
    16  H   -0.000000   0.000002   0.000002   0.000000  -0.000000  -0.000000
    17  H   -0.000000   0.000000   0.000000   0.000000  -0.000000  -0.000000
    18  H   -0.000000  -0.000000  -0.000000  -0.000000   0.000000   0.000000
    19  H    0.000000  -0.000000   0.000006  -0.000000   0.000000   0.000000
    20  H    0.000108   0.000010   0.000017  -0.000004   0.000001   0.000000
    21  H    0.000063   0.000110   0.000016   0.000001  -0.000004  -0.000000
    22  H   -0.000118  -0.000116   0.003418  -0.000028   0.000070   0.000003
    23  H   -0.000131  -0.000084   0.003120   0.000071  -0.000027  -0.000006
    24  H   -0.032668  -0.031551  -0.000132   0.000042  -0.000010  -0.000000
    25  H    0.593606  -0.031811  -0.000192  -0.002295   0.007111   0.000011
    26  H   -0.031811   0.594110  -0.000126   0.007912  -0.002114  -0.000030
    27  H   -0.000192  -0.000126   0.657615   0.005402   0.003803   0.002502
    28  H   -0.002295   0.007912   0.005402   0.689264  -0.050828  -0.007100
    29  H    0.007111  -0.002114   0.003803  -0.050828   0.628764   0.007176
    30  H    0.000011  -0.000030   0.002502  -0.007100   0.007176   0.524888
    31  H    0.000007  -0.000002  -0.000214  -0.004819  -0.003086  -0.031522
              31
     1  C    0.000000
     2  C   -0.000000
     3  O    0.000000
     4  C    0.000000
     5  C    0.000000
     6  C   -0.000000
     7  C    0.000004
     8  C   -0.000184
     9  C   -0.000017
    10  C    0.004306
    11  C   -0.047334
    12  N    0.339292
    13  H   -0.000000
    14  H   -0.000000
    15  H   -0.000000
    16  H   -0.000000
    17  H   -0.000000
    18  H    0.000000
    19  H   -0.000000
    20  H    0.000000
    21  H   -0.000000
    22  H    0.000000
    23  H   -0.000000
    24  H   -0.000000
    25  H    0.000007
    26  H   -0.000002
    27  H   -0.000214
    28  H   -0.004819
    29  H   -0.003086
    30  H   -0.031522
    31  H    0.522935
 Mulliken charges:
               1
     1  C   -0.473133
     2  C    0.394272
     3  O   -0.321425
     4  C   -0.117587
     5  C   -0.400734
     6  C   -0.162585
     7  C   -0.303299
     8  C    0.294869
     9  C   -0.487223
    10  C   -0.128422
    11  C   -0.187366
    12  N   -0.515093
    13  H    0.142235
    14  H    0.136005
    15  H    0.141833
    16  H    0.088293
    17  H    0.126256
    18  H    0.115054
    19  H    0.131497
    20  H    0.107949
    21  H    0.110720
    22  H    0.112180
    23  H    0.101174
    24  H    0.133532
    25  H    0.125541
    26  H    0.124400
    27  H    0.074951
    28  H    0.085308
    29  H    0.109676
    30  H    0.220484
    31  H    0.220636
 Sum of Mulliken charges =  -0.00000
 Mulliken charges with hydrogens summed into heavy atoms:
               1
     1  C   -0.053060
     2  C    0.394272
     3  O   -0.321425
     4  C   -0.029295
     5  C   -0.027927
     6  C    0.056085
     7  C   -0.089945
     8  C    0.294869
     9  C   -0.103749
    10  C   -0.053471
    11  C    0.007618
    12  N   -0.073972
 Electronic spatial extent (au):  <R**2>=           4002.1053
 Charge=             -0.0000 electrons
 Dipole moment (field-independent basis, Debye):
    X=              0.4070    Y=             -1.4916    Z=             -1.2894  Tot=              2.0133
 Quadrupole moment (field-independent basis, Debye-Ang):
   XX=            -69.3999   YY=            -80.2545   ZZ=            -73.1756
   XY=            -13.7861   XZ=              2.9274   YZ=              1.2416
 Traceless Quadrupole moment (field-independent basis, Debye-Ang):
   XX=              4.8767   YY=             -5.9778   ZZ=              1.1011
   XY=            -13.7861   XZ=              2.9274   YZ=              1.2416
 Octapole moment (field-independent basis, Debye-Ang**2):
  XXX=             -7.8621  YYY=             -3.1333  ZZZ=             -1.3382  XYY=             -6.2905
  XXY=              6.9375  XXZ=            -31.5820  XZZ=              1.7473  YZZ=              1.6659
  YYZ=             -3.4433  XYZ=            -10.5778
 Hexadecapole moment (field-independent basis, Debye-Ang**3):
 XXXX=          -4092.0566 YYYY=           -569.4775 ZZZZ=           -164.4750 XXXY=           -209.3605
 XXXZ=            125.5655 YYYX=             -7.7765 YYYZ=              0.4008 ZZZX=              3.4324
 ZZZY=              6.2395 XXYY=           -931.2552 XXZZ=           -750.3406 YYZZ=           -118.4511
 XXYZ=             39.6366 YYXZ=              9.7501 ZZXY=              7.7722
 N-N= 6.966589185043D+02 E-N=-2.606845638996D+03  KE= 5.183383517697D+02
 PrsmSu:  requested number of processors reduced to:  13 ShMem   1 Linda.
 Calling FoFJK, ICntrl=      2127 FMM=F ISym2X=0 I1Cent= 0 IOpClX= 0 NMat=1 NMatS=1 NMatT=0.
 ***** Axes restored to original set *****
 -------------------------------------------------------------------
 Center     Atomic                   Forces (Hartrees/Bohr)
 Number     Number              X              Y              Z
 -------------------------------------------------------------------
      1        6          -0.003228293   -0.003403420   -0.007775568
      2        6           0.015795225    0.001443368   -0.033349068
      3        8          -0.013556442    0.002450712    0.032739131
      4        6           0.010722938   -0.003979385   -0.008478228
      5        6          -0.008687775   -0.002619438    0.007424526
      6        6           0.002693385    0.002825261   -0.000551539
      7        6          -0.005071503   -0.001119124   -0.001204254
      8        6           0.011618553    0.001811702    0.013463700
      9        6          -0.001091954    0.000237105   -0.002217256
     10        6          -0.014414552   -0.002133886   -0.016748674
     11        6          -0.001015995    0.005650332    0.003113970
     12        7           0.008765862   -0.002523396    0.011943714
     13        1           0.001138141    0.001264054    0.000933613
     14        1          -0.003523342   -0.000478512    0.004447370
     15        1          -0.003731655    0.002422603    0.003890597
     16        1          -0.003735071    0.000418637    0.001826197
     17        1           0.000087838    0.000052946    0.000660338
     18        1          -0.001508908   -0.001550324    0.000479676
     19        1           0.000348804   -0.000045880   -0.001407111
     20        1          -0.000823786   -0.004640247   -0.000199859
     21        1          -0.001676034    0.003676469   -0.001449537
     22        1          -0.001784629    0.002278003    0.001128983
     23        1          -0.000417575   -0.000437605    0.002111744
     24        1          -0.001547463    0.000715594    0.002388303
     25        1           0.005514873    0.001806758   -0.001417246
     26        1           0.005947532   -0.001832842   -0.001305151
     27        1           0.001845564   -0.000089617    0.000150362
     28        1          -0.001111560   -0.001161982   -0.012386036
     29        1           0.003060374   -0.000487529   -0.002221845
     30        1           0.000972400   -0.001113618    0.000330589
     31        1          -0.001584952    0.000563262    0.003678559
 -------------------------------------------------------------------
 Cartesian Forces:  Max     0.033349068 RMS     0.007038746

 GradGradGradGradGradGradGradGradGradGradGradGradGradGradGradGradGradGrad
 Berny optimization.
 FormGI is forming the generalized inverse of G from B-inverse, IUseBI=4.
 Internal  Forces:  Max     0.035243699 RMS     0.004990862
 Search for a local minimum.
 Step number   1 out of a maximum of  161
 All quantities printed in internal units (Hartrees-Bohrs-Radians)
 Mixed Optimization -- RFO/linear search
 Second derivative matrix not updated -- first step.
 ITU=  0
     Eigenvalues ---    0.00341   0.00395   0.00404   0.00441   0.00531
     Eigenvalues ---    0.00624   0.00646   0.00726   0.00841   0.01014
     Eigenvalues ---    0.01162   0.01624   0.02757   0.03396   0.04004
     Eigenvalues ---    0.04199   0.04664   0.04841   0.04913   0.05312
     Eigenvalues ---    0.05404   0.05498   0.05537   0.05765   0.06706
     Eigenvalues ---    0.06830   0.07225   0.07397   0.07564   0.08686
     Eigenvalues ---    0.09579   0.09861   0.12453   0.12967   0.13189
     Eigenvalues ---    0.15999   0.16000   0.16000   0.16000   0.16000
     Eigenvalues ---    0.16000   0.16000   0.16000   0.16000   0.16000
     Eigenvalues ---    0.16000   0.16000   0.16414   0.17579   0.21989
     Eigenvalues ---    0.21998   0.22000   0.22031   0.24985   0.24986
     Eigenvalues ---    0.24990   0.25000   0.29228   0.29607   0.29670
     Eigenvalues ---    0.29928   0.31279   0.31447   0.32062   0.32977
     Eigenvalues ---    0.33791   0.33796   0.33926   0.34047   0.34112
     Eigenvalues ---    0.34146   0.34175   0.34211   0.34288   0.34414
     Eigenvalues ---    0.34417   0.34438   0.34597   0.34615   0.34679
     Eigenvalues ---    0.34895   0.34947   0.38085   0.44511   0.44653
     Eigenvalues ---    0.55132   0.88815
 RFO step:  Lambda=-1.37592519D-02 EMin= 3.41010135D-03
 Linear search not attempted -- first point.
 Iteration  1 RMS(Cart)=  0.14025263 RMS(Int)=  0.00294667
 Iteration  2 RMS(Cart)=  0.00729679 RMS(Int)=  0.00029096
 Iteration  3 RMS(Cart)=  0.00001653 RMS(Int)=  0.00029089
 Iteration  4 RMS(Cart)=  0.00000001 RMS(Int)=  0.00029089
 Variable       Old X    -DE/DX   Delta X   Delta X   Delta X     New X
                                 (Linear)    (Quad)   (Total)
    R1        2.84031   0.00936   0.00000   0.02799   0.02799   2.86830
    R2        2.06632  -0.00142   0.00000  -0.00397  -0.00397   2.06234
    R3        2.06333   0.00224   0.00000   0.00622   0.00622   2.06955
    R4        2.06199   0.00169   0.00000   0.00468   0.00468   2.06667
    R5        2.33484  -0.03524   0.00000  -0.03908  -0.03908   2.29576
    R6        2.89529   0.00214   0.00000   0.00700   0.00700   2.90230
    R7        2.88107   0.01008   0.00000   0.03220   0.03220   2.91327
    R8        2.88754   0.00994   0.00000   0.03210   0.03210   2.91964
    R9        2.07250   0.00201   0.00000   0.00566   0.00566   2.07817
   R10        2.07084  -0.00027   0.00000  -0.00075  -0.00075   2.07009
   R11        2.06304   0.00157   0.00000   0.00436   0.00436   2.06740
   R12        2.06597  -0.00109   0.00000  -0.00304  -0.00304   2.06293
   R13        2.88626   0.00644   0.00000   0.02074   0.02074   2.90700
   R14        2.07675  -0.00338   0.00000  -0.00960  -0.00960   2.06715
   R15        2.07685  -0.00300   0.00000  -0.00854  -0.00854   2.06831
   R16        2.85483   0.01686   0.00000   0.05163   0.05163   2.90646
   R17        2.07142  -0.00054   0.00000  -0.00151  -0.00151   2.06991
   R18        2.07456   0.00061   0.00000   0.00174   0.00174   2.07630
   R19        2.85167   0.00522   0.00000   0.01589   0.01589   2.86756
   R20        2.55015  -0.01157   0.00000  -0.02047  -0.02047   2.52967
   R21        2.05846  -0.00064   0.00000  -0.00176  -0.00176   2.05670
   R22        2.06847   0.00154   0.00000   0.00431   0.00431   2.07278
   R23        2.06637   0.00226   0.00000   0.00630   0.00630   2.07267
   R24        2.82391   0.00841   0.00000   0.02448   0.02448   2.84839
   R25        2.05761  -0.00051   0.00000  -0.00140  -0.00140   2.05621
   R26        2.74242   0.01737   0.00000   0.04403   0.04403   2.78645
   R27        2.07036   0.00671   0.00000   0.01887   0.01887   2.08924
   R28        2.06975   0.00210   0.00000   0.00590   0.00590   2.07565
   R29        1.92381  -0.00110   0.00000  -0.00239  -0.00239   1.92142
   R30        1.92547  -0.00227   0.00000  -0.00494  -0.00494   1.92053
    A1        1.90772  -0.00117   0.00000  -0.00065  -0.00076   1.90695
    A2        1.91149   0.00284   0.00000   0.01187   0.01188   1.92336
    A3        1.92113   0.00413   0.00000   0.02208   0.02200   1.94314
    A4        1.90468  -0.00011   0.00000   0.00266   0.00263   1.90731
    A5        1.88622   0.00055   0.00000   0.01212   0.01194   1.89816
    A6        1.93223  -0.00628   0.00000  -0.04787  -0.04783   1.88440
    A7        2.09317   0.00360   0.00000   0.01385   0.01379   2.10696
    A8        2.05135   0.00232   0.00000   0.00896   0.00890   2.06025
    A9        2.13819  -0.00591   0.00000  -0.02223  -0.02229   2.11590
   A10        1.92851  -0.00226   0.00000  -0.00094  -0.00276   1.92575
   A11        1.89858   0.00045   0.00000   0.02198   0.02118   1.91976
   A12        1.87906  -0.00056   0.00000  -0.03309  -0.03343   1.84563
   A13        1.93049   0.00622   0.00000   0.05173   0.05134   1.98183
   A14        1.92597  -0.00274   0.00000  -0.03604  -0.03631   1.88966
   A15        1.90013  -0.00125   0.00000  -0.00523  -0.00443   1.89570
   A16        1.92926   0.00031   0.00000  -0.00005  -0.00009   1.92917
   A17        1.94810   0.00217   0.00000   0.01508   0.01507   1.96317
   A18        1.95047  -0.00131   0.00000  -0.00826  -0.00827   1.94219
   A19        1.88798  -0.00111   0.00000  -0.00502  -0.00505   1.88293
   A20        1.88871  -0.00019   0.00000  -0.00590  -0.00594   1.88277
   A21        1.85625   0.00005   0.00000   0.00376   0.00377   1.86002
   A22        2.00602  -0.00021   0.00000   0.00358   0.00348   2.00950
   A23        1.88963  -0.00052   0.00000  -0.01059  -0.01060   1.87902
   A24        1.88651  -0.00057   0.00000   0.00038   0.00012   1.88662
   A25        1.89933   0.00049   0.00000   0.00169   0.00173   1.90107
   A26        1.90249   0.00220   0.00000   0.02534   0.02526   1.92775
   A27        1.87577  -0.00154   0.00000  -0.02273  -0.02278   1.85299
   A28        1.98802   0.01501   0.00000   0.07290   0.07247   2.06049
   A29        1.91621  -0.00424   0.00000  -0.01268  -0.01377   1.90244
   A30        1.89985  -0.00352   0.00000  -0.01570  -0.01566   1.88420
   A31        1.87129  -0.00294   0.00000   0.00326   0.00258   1.87386
   A32        1.91381  -0.00546   0.00000  -0.02462  -0.02456   1.88924
   A33        1.87114   0.00041   0.00000  -0.02881  -0.02927   1.84187
   A34        2.10236   0.01063   0.00000   0.04050   0.04042   2.14278
   A35        2.08652  -0.00489   0.00000  -0.01832  -0.01840   2.06812
   A36        2.09382  -0.00573   0.00000  -0.02150  -0.02158   2.07224
   A37        2.00591  -0.00409   0.00000  -0.01660  -0.01655   1.98936
   A38        1.92109   0.00302   0.00000   0.01412   0.01417   1.93526
   A39        1.91978   0.00355   0.00000   0.01694   0.01699   1.93677
   A40        1.84616   0.00189   0.00000   0.01771   0.01776   1.86392
   A41        1.84974   0.00148   0.00000   0.01490   0.01495   1.86468
   A42        1.91807  -0.00636   0.00000  -0.05035  -0.05030   1.86777
   A43        2.14097   0.00951   0.00000   0.04070   0.04070   2.18167
   A44        2.08751  -0.00292   0.00000  -0.00975  -0.00976   2.07775
   A45        2.05463  -0.00659   0.00000  -0.03089  -0.03090   2.02374
   A46        1.94428  -0.00303   0.00000  -0.00546  -0.00596   1.93832
   A47        1.91289  -0.00226   0.00000  -0.00690  -0.00783   1.90506
   A48        1.91253   0.00231   0.00000  -0.00047  -0.00075   1.91178
   A49        1.90171   0.00890   0.00000   0.07735   0.07731   1.97902
   A50        1.89715  -0.00184   0.00000  -0.02176  -0.02158   1.87558
   A51        1.89454  -0.00409   0.00000  -0.04367  -0.04341   1.85112
   A52        1.89716   0.00108   0.00000   0.00890   0.00873   1.90589
   A53        1.88321   0.00554   0.00000   0.03462   0.03445   1.91767
   A54        1.84636  -0.00206   0.00000  -0.00562  -0.00598   1.84038
    D1        0.02307  -0.00097   0.00000  -0.03008  -0.03025  -0.00717
    D2        3.13210  -0.00070   0.00000  -0.01129  -0.01124   3.12086
    D3       -2.06279  -0.00183   0.00000  -0.04010  -0.04024  -2.10303
    D4        1.04624  -0.00157   0.00000  -0.02132  -0.02124   1.02500
    D5        2.09219   0.00147   0.00000  -0.00248  -0.00250   2.08969
    D6       -1.08197   0.00173   0.00000   0.01631   0.01650  -1.06546
    D7        1.05342  -0.00364   0.00000  -0.03068  -0.03033   1.02309
    D8       -3.10741   0.00294   0.00000   0.04707   0.04708  -3.06033
    D9       -1.05098   0.00139   0.00000   0.03444   0.03441  -1.01657
   D10       -2.12164  -0.00317   0.00000  -0.01063  -0.01050  -2.13214
   D11        0.00071   0.00341   0.00000   0.06712   0.06691   0.06763
   D12        2.05715   0.00186   0.00000   0.05448   0.05424   2.11139
   D13        1.05064   0.00282   0.00000   0.05268   0.05259   1.10323
   D14       -1.05154   0.00256   0.00000   0.04901   0.04891  -1.00263
   D15       -3.12785   0.00192   0.00000   0.03962   0.03955  -3.08830
   D16       -1.05274  -0.00034   0.00000  -0.00816  -0.00841  -1.06115
   D17        3.12826  -0.00059   0.00000  -0.01183  -0.01208   3.11618
   D18        1.05195  -0.00124   0.00000  -0.02122  -0.02145   1.03051
   D19        3.12679  -0.00103   0.00000  -0.01174  -0.01141   3.11537
   D20        1.02460  -0.00129   0.00000  -0.01541  -0.01509   1.00951
   D21       -1.05171  -0.00193   0.00000  -0.02480  -0.02446  -1.07616
   D22        3.12587  -0.00214   0.00000  -0.07092  -0.07137   3.05450
   D23        0.99860  -0.00225   0.00000  -0.06757  -0.06799   0.93061
   D24       -1.02831   0.00014   0.00000  -0.03545  -0.03595  -1.06426
   D25       -1.03617  -0.00074   0.00000  -0.02524  -0.02489  -1.06106
   D26        3.11974  -0.00084   0.00000  -0.02188  -0.02151   3.09824
   D27        1.09283   0.00154   0.00000   0.01023   0.01054   1.10337
   D28        1.08283  -0.00103   0.00000  -0.04075  -0.04062   1.04220
   D29       -1.04444  -0.00114   0.00000  -0.03739  -0.03724  -1.08168
   D30       -3.07135   0.00125   0.00000  -0.00527  -0.00520  -3.07655
   D31        3.12736   0.00163   0.00000   0.04269   0.04277  -3.11305
   D32        1.02883  -0.00166   0.00000  -0.00153  -0.00138   1.02744
   D33       -1.01448   0.00230   0.00000   0.04946   0.04943  -0.96504
   D34       -1.03382   0.00118   0.00000   0.03268   0.03270  -1.00112
   D35       -3.13235  -0.00210   0.00000  -0.01155  -0.01146   3.13937
   D36        1.10753   0.00185   0.00000   0.03944   0.03936   1.14688
   D37        1.00703   0.00085   0.00000   0.02057   0.02050   1.02753
   D38       -1.09151  -0.00244   0.00000  -0.02366  -0.02365  -1.11516
   D39       -3.13481   0.00152   0.00000   0.02733   0.02716  -3.10765
   D40       -0.00788   0.00024   0.00000   0.00809   0.00778  -0.00010
   D41       -3.11556  -0.00026   0.00000  -0.01443  -0.01495  -3.13050
   D42        2.11572   0.00235   0.00000   0.04084   0.04123   2.15695
   D43       -0.99195   0.00185   0.00000   0.01833   0.01850  -0.97345
   D44       -2.14157  -0.00162   0.00000  -0.00423  -0.00399  -2.14556
   D45        1.03394  -0.00212   0.00000  -0.02674  -0.02672   1.00722
   D46        0.01319  -0.00012   0.00000  -0.00605  -0.00613   0.00706
   D47       -2.06862  -0.00202   0.00000  -0.02813  -0.02822  -2.09683
   D48        2.09865   0.00165   0.00000   0.01449   0.01441   2.11305
   D49        3.12072   0.00040   0.00000   0.01663   0.01671   3.13743
   D50        1.03892  -0.00150   0.00000  -0.00545  -0.00537   1.03355
   D51       -1.07700   0.00217   0.00000   0.03717   0.03725  -1.03975
   D52        3.12743   0.00025   0.00000   0.00872   0.00844   3.13587
   D53       -0.00124   0.00011   0.00000   0.00378   0.00346   0.00222
   D54        0.01958  -0.00057   0.00000  -0.01490  -0.01458   0.00500
   D55       -3.10908  -0.00071   0.00000  -0.01984  -0.01956  -3.12864
   D56        3.13506   0.00306   0.00000   0.02259   0.02251  -3.12562
   D57        1.02911  -0.00463   0.00000  -0.06624  -0.06602   0.96309
   D58       -1.04812   0.00034   0.00000  -0.00844  -0.00853  -1.05665
   D59       -0.01923   0.00322   0.00000   0.02758   0.02747   0.00824
   D60       -2.12518  -0.00447   0.00000  -0.06124  -0.06105  -2.18623
   D61        2.08078   0.00050   0.00000  -0.00344  -0.00356   2.07722
   D62       -1.11982  -0.00000   0.00000  -0.01276  -0.01295  -1.13277
   D63       -3.11437  -0.00100   0.00000  -0.02860  -0.02899   3.13983
   D64        0.99268   0.00115   0.00000   0.02651   0.02718   1.01986
   D65       -1.00187   0.00016   0.00000   0.01067   0.01114  -0.99073
   D66        3.05433   0.00024   0.00000   0.00558   0.00541   3.05974
   D67        1.05978  -0.00076   0.00000  -0.01026  -0.01063   1.04914
         Item               Value     Threshold  Converged?
 Maximum Force            0.035244     0.000450     NO 
 RMS     Force            0.004991     0.000300     NO 
 Maximum Displacement     0.474176     0.001800     NO 
 RMS     Displacement     0.140631     0.001200     NO 
 Predicted change in Energy=-7.674149D-03
 GradGradGradGradGradGradGradGradGradGradGradGradGradGradGradGradGradGrad

                          Input orientation:                          
 ---------------------------------------------------------------------
 Center     Atomic      Atomic             Coordinates (Angstroms)
 Number     Number       Type             X           Y           Z
 ---------------------------------------------------------------------
      1          6           0        0.965244    0.171148    0.056468
      2          6           0        2.474653    0.040177   -0.035034
      3          8           0        3.018489   -0.135531   -1.107073
      4          6           0        3.289291    0.154593    1.261901
      5          6           0        2.842431   -0.920939    2.271946
      6          6           0        4.800246    0.111447    0.942212
      7          6           0        5.729746    0.337889    2.146860
      8          6           0        7.247466    0.346940    1.897891
      9          6           0        7.855473    0.142825    0.522642
     10          6           0        8.064834    0.530368    2.942036
     11          6           0        9.570024    0.558277    2.867267
     12          7           0       10.163174    0.758693    4.202268
     13          1           0        0.535504    0.089018   -0.943337
     14          1           0        0.695251    1.141008    0.487574
     15          1           0        0.535680   -0.610638    0.689174
     16          1           0        3.047072    1.142331    1.680330
     17          1           0        3.042862   -1.923744    1.879252
     18          1           0        1.775325   -0.858441    2.504895
     19          1           0        3.374476   -0.819740    3.219787
     20          1           0        5.002161    0.878752    0.189176
     21          1           0        5.019509   -0.848915    0.465175
     22          1           0        5.527036   -0.428480    2.902757
     23          1           0        5.452099    1.292745    2.614160
     24          1           0        7.121989   -0.002826   -0.268124
     25          1           0        8.511871   -0.735895    0.511855
     26          1           0        8.468423    1.004894    0.232598
     27          1           0        7.634697    0.665053    3.932392
     28          1           0        9.882467    1.319952    2.129345
     29          1           0        9.936697   -0.403842    2.484732
     30          1           0        9.903042    1.678403    4.549092
     31          1           0       11.176899    0.772929    4.131333
 ---------------------------------------------------------------------
                    Distance matrix (angstroms):
                    1          2          3          4          5
     1  C    0.000000
     2  C    1.517840   0.000000
     3  O    2.379851   1.214865   0.000000
     4  C    2.618117   1.535829   2.401988   0.000000
     5  C    3.102390   2.526096   3.473561   1.541636   0.000000
     6  C    3.936413   2.523584   2.726762   1.545007   2.582064
     7  C    5.205576   3.930004   4.261821   2.602416   3.152282
     8  C    6.548897   5.158493   5.210263   4.013556   4.599105
     9  C    6.906039   5.410616   5.111739   4.625653   5.415003
    10  C    7.672009   6.352430   6.504176   5.076403   5.461576
    11  C    9.060503   7.683494   7.694113   6.495211   6.913972
    12  N   10.106175   8.808198   8.946243   7.500730   7.755037
    13  H    1.091344   2.141891   2.498489   3.528558   4.084111
    14  H    1.095161   2.156668   3.093523   2.881256   3.470732
    15  H    1.093633   2.169713   3.101060   2.914785   2.814702
    16  H    2.813207   2.117754   3.066490   1.099718   2.156147
    17  H    3.468085   2.800775   3.480867   2.182048   1.095444
    18  H    2.776883   2.783490   3.887720   2.205303   1.094022
    19  H    4.097907   3.484681   4.395063   2.188583   1.091657
    20  H    4.100612   2.672411   2.577594   2.146875   3.498750
    21  H    4.200551   2.741712   2.642908   2.153010   2.830066
    22  H    5.410255   4.262312   4.738920   2.835469   2.801347
    23  H    5.285039   4.177600   4.670118   2.793158   3.439168
    24  H    6.167749   4.653377   4.190484   4.129810   5.060584
    25  H    7.614570   6.111414   5.758351   5.350783   5.939252
    26  H    7.551414   6.076808   5.726873   5.348447   6.286458
    27  H    7.729705   6.538884   6.880881   5.125880   5.313970
    28  H    9.226778   7.822920   7.727033   6.751333   7.389455
    29  H    9.312037   7.888503   7.799657   6.781974   7.116269
[...]
 03,-0.00028808,-0.00005225,-0.00003219,-0.00000079,0.00000268,-0.00000
 093,-0.00000209,0.00000042,-0.00000027,-0.00000054,-0.00000062,0.00000
 133,-0.00003552,-0.00001003,0.00001816,-0.00000856,0.00000122,-0.00002
 103,0.00000020,-0.00001336,-0.00001051,0.00000060,-0.00000368,0.000005
 10,-0.00002096,0.00001095,-0.00009846,0.00005298,0.00012085,0.00010832
 ,0.00036883,0.00044963,0.00016515,-0.00032786,0.00019182,0.00002508,0.
 00190505,0.02856920,-0.00478692,-0.00405881,-0.04041103,0.05463302,-0.
 00003528,0.00004094,-0.00001947,0.00012965,-0.00016809,0.00015605,-0.0
 0007774,0.00007727,-0.00012813,-0.00001058,0.00011327,0.00000219,-0.00
 001684,0.00000976,0.00000129,0.00037952,-0.00027446,0.00014052,0.00056
 721,0.00152840,0.00281529,-0.01336345,-0.00337356,0.00064741,-0.295675
 96,-0.06632777,0.02516247,-0.00075886,-0.00039312,-0.00094570,-0.00056
 726,-0.00075864,-0.00072264,0.00047163,-0.00042080,-0.00034484,-0.0000
 1888,0.00001239,-0.00000741,-0.00000127,-0.00000260,0.00000206,0.00000
 795,-0.00000260,-0.00000105,-0.00004311,-0.00002450,-0.00001597,0.0000
 1518,0.00000126,0.00000358,-0.00003903,-0.00000756,-0.00000408,0.00002
 700,0.00003740,-0.00001476,-0.00006269,0.00009663,0.00000906,0.0001013
 7,-0.00000554,0.00011620,0.00027498,-0.00004869,-0.00016796,-0.0009746
 7,-0.00009745,0.00001978,-0.01316257,-0.00413250,0.00156156,-0.0006643
 6,-0.00013925,-0.00046572,0.32260917,0.00000236,-0.00001038,0.00000524
 ,-0.00001101,0.00003662,-0.00002080,0.00000977,-0.00001569,0.00002986,
 -0.00000434,-0.00004633,-0.00005933,-0.00000506,-0.00002601,-0.0000065
 1,-0.00016151,0.00018421,-0.00003973,0.00057248,-0.00134537,-0.0027707
 8,0.01688715,0.00463772,0.00047933,-0.06812949,-0.06446268,0.00669073,
 -0.00056591,0.00037696,0.00083092,0.00034745,-0.00129064,-0.00136435,-
 0.00013475,0.00020336,0.00023294,0.00000332,-0.00000148,0.00000113,0.0
 0000171,0.00000074,-0.00000209,-0.00000113,-0.00000033,-0.00000080,0.0
 0002573,0.00002039,0.00002204,0.00001226,0.00000102,0.00002402,-0.0000
 0338,0.00001405,0.00000481,0.00000239,-0.00001203,-0.00002098,0.000009
 75,-0.00002467,-0.00001399,-0.00006230,-0.00006140,-0.00005133,0.00019
 863,0.00039359,-0.00007264,0.00088429,0.00036515,-0.00030573,0.0074549
 9,0.00109320,-0.00089902,-0.03111901,-0.00745309,0.00188855,0.07510805
 ,0.06816324,0.00000411,-0.00001982,0.00001687,0.00006510,0.00007552,-0
 .00010187,-0.00003201,-0.00001305,0.00008034,0.00011214,-0.00000852,0.
 00035026,-0.00000644,-0.00001008,-0.00005018,-0.00016752,0.00002821,-0
 .00064233,0.00126024,-0.00318438,-0.00353520,0.02440978,0.00929831,-0.
 00054112,0.02272258,0.00565763,-0.04926064,-0.00047070,0.00070442,0.00
 098369,0.00080782,-0.00103015,-0.00186197,-0.00040091,0.00065369,0.000
 50274,0.00000686,-0.00000467,0.00000045,0.00000104,-0.00000063,-0.0000
 0090,-0.00000377,0.00000218,0.00000040,-0.00014428,0.00001511,0.000022
 62,0.00001742,0.00001160,0.00002107,0.00000497,0.00000061,0.00001872,-
 0.00001845,-0.00003639,0.00000574,0.00001576,0.00000737,0.00010107,0.0
 0018723,0.00003178,0.00045052,-0.00048000,-0.00017460,-0.00001978,0.00
 150289,-0.00011015,-0.00018479,-0.02648595,-0.00855826,0.00332635,0.00
 532486,0.00151537,-0.00145980,-0.02633758,-0.00361509,0.05162274,0.000
 00704,-0.00000871,-0.00000155,-0.00003402,0.00002602,-0.00001306,0.000
 00745,-0.00000905,0.00002224,-0.00001277,0.00000405,-0.00005292,0.0000
 0421,0.00000379,-0.00000169,-0.00014100,-0.00026285,-0.00007443,0.0003
 9666,-0.00005651,-0.00319534,0.00731018,-0.00720451,-0.01018882,-0.000
 57159,-0.00363780,0.00002081,-0.13501235,0.06045780,0.11099436,-0.0182
 8782,0.01272996,0.02403147,0.00295423,0.00076838,-0.00081362,-0.000000
 90,0.00000061,0.00000122,-0.00000054,0.00000116,-0.00000056,-0.0000008
 3,0.00000151,-0.00000036,-0.00001846,0.00000385,0.00000480,0.00000286,
 0.00000189,0.00000319,0.00000794,-0.00000078,0.00000381,-0.00000927,-0
 .00001578,0.00000254,0.00000531,0.00003337,0.00004886,-0.00000741,0.00
 001898,-0.00001029,0.00007583,0.00005965,-0.00002463,0.00002974,-0.000
 37990,-0.00018095,-0.00001915,0.00011876,0.00004287,0.00047807,-0.0003
 6419,-0.00076972,0.00007763,0.00001836,-0.00007134,0.14707791,0.000012
 82,-0.00002951,0.00003067,0.00004153,0.00010430,-0.00013696,0.00000864
 ,-0.00003932,0.00009022,0.00009746,-0.00016915,0.00027596,-0.00004367,
 -0.00003523,0.00000233,0.00054221,0.00062259,0.00009724,0.00340787,-0.
 00461551,0.00250834,0.01019189,-0.00600891,-0.01653385,-0.00424860,0.0
 0606371,-0.00665992,0.05872204,-0.08793995,-0.08632654,-0.00573438,0.0
 0318169,0.00424116,0.00043987,0.00171098,0.00053798,0.00001589,-0.0000
 1122,0.00000118,0.00000555,-0.00000017,-0.00000346,-0.00000549,-0.0000
 0075,0.00000027,-0.00003556,0.00001748,-0.00000309,0.00000396,0.000005
 14,0.00001383,-0.00000113,0.00001695,-0.00000731,-0.00000095,0.0000059
 0,-0.00002456,0.00006719,-0.00000723,-0.00003637,0.00011125,-0.0000714
 7,0.00016792,-0.00083275,-0.00015332,-0.00014045,-0.00114393,0.0002455
 9,0.00066982,0.00122078,-0.00143955,-0.00170139,-0.00074586,0.00052364
 ,0.00129936,0.00001520,0.00006608,0.00016989,-0.06042419,0.08770178,-0
 .00001132,0.00002026,-0.00002828,-0.00010297,-0.00003776,0.00004697,0.
 00001673,0.00000862,0.00001090,-0.00013941,0.00016989,-0.00031099,0.00
 006237,0.00002626,-0.00002123,-0.00099087,-0.00051096,0.00012403,0.000
 55524,0.00473280,-0.00258611,0.01343147,-0.01088993,-0.01437217,-0.001
 05653,-0.00656095,0.00436308,0.10739455,-0.08693012,-0.18820952,-0.000
 78618,-0.00148906,0.00166312,-0.00077222,0.00003178,-0.00006439,-0.000
 00523,0.00000738,0.00000565,-0.00001152,0.00000879,0.00000392,0.000001
 62,-0.00000090,-0.00000045,-0.00004145,0.00000583,0.00003462,0.0000009
 5,0.00000528,0.00000700,0.00001306,-0.00000108,0.00001478,-0.00000231,
 -0.00002411,0.00001575,-0.00007584,0.00004738,-0.00011603,0.00008962,0
 .00003840,0.00011338,0.00052294,0.00046589,0.00063766,-0.00091940,-0.0
 0025702,0.00062691,-0.00051338,0.00037820,0.00047389,0.00086516,-0.000
 98454,-0.00186938,0.00004273,0.00023847,0.00020289,-0.11847473,0.10167
 785,0.19776170,-0.00000231,0.00001486,-0.00001273,-0.00001277,-0.00004
 305,0.00009426,0.00000618,0.00001400,-0.00007315,-0.00001491,0.0000315
 5,-0.00009693,-0.00000813,0.00000479,0.00001369,-0.00004131,-0.0001023
 4,0.00007602,-0.00017905,0.00017643,-0.00037741,0.00103936,0.00164714,
 0.00103490,-0.00094400,-0.00052586,0.00015741,-0.01679142,0.01066020,0
 .02671168,-0.11325765,0.03802925,0.09330627,0.00448700,0.00074933,-0.0
 0212057,-0.00000697,0.00000333,-0.00000241,0.00000207,-0.00000429,0.00
 000077,0.00000360,-0.00000093,0.00000065,0.00002976,-0.00000741,-0.000
 00784,-0.00000259,-0.00000555,-0.00000914,-0.00000837,-0.00000675,-0.0
 0000480,0.00000430,0.00001121,-0.00000187,0.00000840,-0.00000965,0.000
 05106,-0.00006139,-0.00000546,-0.00010614,-0.00001916,-0.00015116,-0.0
 0007214,0.00030207,-0.00007511,-0.00024545,0.00056974,0.00016758,-0.00
 010214,0.00052599,0.00005029,-0.00013287,0.00065982,-0.00129035,-0.001
 62348,-0.00543281,-0.00179527,-0.00003109,0.12097792,-0.00001116,0.000
 00623,-0.00000212,0.00003820,-0.00003305,0.00000586,-0.00002518,0.0000
 1805,-0.00000144,0.00001166,0.00000766,0.00000066,-0.00000240,-0.00000
 322,-0.00000011,0.00002954,-0.00002073,-0.00006859,0.00006534,0.000003
 53,0.00001403,0.00052508,-0.00045787,-0.00061990,-0.00129425,-0.000994
 89,-0.00081493,-0.00247266,0.00480194,0.00777444,0.04088717,-0.0728206
 0,-0.05988274,0.01528211,-0.02906356,-0.02759092,-0.00000334,0.0000017
 7,-0.00000148,-0.00000211,0.00000129,0.00000245,0.00000123,0.00000040,
 -0.00000090,-0.00000894,-0.00000315,0.00000758,0.00000275,0.00000223,0
 .00000299,-0.00000653,-0.00000046,-0.00000033,0.00000345,0.00000539,-0
 .00000345,-0.00000208,0.00000810,0.00000203,-0.00000590,0.00002552,0.0
 0001760,0.00000752,0.00001095,-0.00001277,0.00007696,0.00002214,-0.000
 00087,-0.00022848,-0.00001702,0.00002578,0.00014365,0.00003944,0.00003
 711,-0.00113066,-0.00085592,-0.00133035,-0.00233659,0.00014959,-0.0007
 2962,-0.04423073,0.09124296,0.00000181,-0.00001170,0.00000742,0.000006
 17,0.00002260,-0.00005902,-0.00000042,-0.00000163,0.00004602,0.0000145
 1,-0.00001540,0.00006210,0.00000866,-0.00000274,-0.00001294,0.00001734
 ,0.00003341,-0.00011222,-0.00000747,0.00015428,0.00006342,0.00039550,-
 0.00075715,-0.00048265,-0.00103890,-0.00070682,-0.00137530,-0.00029366
 ,0.00048666,0.00056321,0.09642599,-0.05932268,-0.19938702,-0.00079461,
 -0.00505138,0.00429370,0.00000374,-0.00000243,0.00000170,-0.00000186,0
 .00000312,0.00000064,-0.00000217,0.00000157,-0.00000104,-0.00001513,0.
 00000379,0.00000450,0.00000167,0.00000276,0.00000755,0.00000748,0.0000
 0444,0.00000424,-0.00000404,-0.00000974,0.00000231,-0.00001462,0.00001
 652,-0.00000644,0.00001506,0.00001790,0.00006288,0.00012309,0.00010115
 ,-0.00000605,-0.00002732,0.00005356,0.00008390,-0.00055468,-0.00012233
 ,0.00008197,-0.00001924,0.00012965,0.00025621,-0.00146400,-0.00136261,
 -0.00025118,-0.00055667,-0.00014874,0.00118048,-0.10498634,0.07532038,
 0.21564264,-0.00003488,0.00003902,-0.00001525,0.00011031,-0.00012297,0
 .00011518,-0.00007816,0.00004664,-0.00007603,0.00003348,0.00001411,-0.
 00009983,-0.00006336,-0.00001861,0.00003881,0.00030216,-0.00002249,0.0
 0028327,0.00052021,-0.00251375,0.00060442,-0.00240817,0.00203022,0.002
 08086,-0.00067000,0.00071209,-0.00021990,-0.01776122,0.00602067,-0.028
 65557,-0.09148117,0.04065528,-0.08685055,0.00203692,-0.00016582,0.0008
 6589,-0.00001518,0.00001096,-0.00000474,0.00000006,0.00000040,-0.00000
 121,0.00000482,-0.00000547,-0.00000234,-0.00001661,-0.00000232,0.00001
 835,0.00001188,0.00000160,0.00000556,-0.00004810,-0.00000392,-0.000020
 71,0.00003088,0.00004520,-0.00004129,0.00005897,0.00002113,-0.00000646
 ,-0.00000580,-0.00000764,-0.00001169,-0.00086202,-0.00025413,0.0000482
 3,-0.00011651,0.00006177,0.00010042,0.00028232,-0.00007299,-0.00020912
 ,0.00013904,-0.00015567,-0.00010571,0.00022554,-0.00011212,-0.00030116
 ,0.00087873,-0.00009487,0.00087450,0.00730860,-0.00539531,0.01422231,0
 .10025498,-0.00001789,0.00001873,-0.00001213,0.00004905,-0.00007473,0.
 00007700,-0.00003182,0.00003518,-0.00005238,0.00001087,0.00002111,-0.0
 0005706,-0.00002559,-0.00001312,0.00001647,0.00012258,-0.00005440,0.00
 011070,0.00025421,-0.00091741,0.00036233,-0.00108602,0.00039622,0.0002
 2932,-0.00034717,0.00034288,-0.00006624,-0.00565591,0.00366507,-0.0097
 4459,0.03413752,-0.07073230,0.06457824,0.01852657,-0.02448267,0.030026
 50,-0.00000935,0.00000515,-0.00000323,-0.00000171,0.00000016,0.0000033
 1,0.00000424,-0.00000088,-0.00000115,-0.00000917,-0.00000411,0.0000098
 0,0.00000549,0.00000116,0.00000233,-0.00002278,-0.00000090,-0.00000878
 ,0.00001363,0.00002440,-0.00001952,0.00002150,0.00001693,0.00000190,-0
 .00000089,0.00000353,-0.00000467,-0.00039093,-0.00008982,0.00006096,-0
 .00007133,0.00001263,0.00005035,-0.00006662,-0.00014828,-0.00013084,0.
 00012384,-0.00007042,-0.00000513,0.00009635,0.00018802,0.00003450,0.00
 042400,0.00010611,0.00032036,-0.00409087,0.00486097,-0.00794810,-0.040
 19180,0.09316417,-0.00001417,0.00002028,-0.00000195,0.00004775,-0.0000
 4905,0.00003063,-0.00004164,0.00001386,-0.00002015,0.00000903,0.000022
 50,-0.00003578,-0.00001254,0.00000783,0.00000206,0.00002817,-0.0000434
 7,0.00003023,-0.00021921,-0.00003270,-0.00015986,0.00016701,0.00090451
 ,0.00115121,-0.00001850,0.00007311,-0.00036955,-0.00284819,-0.00325262
 ,0.00023908,-0.08428630,0.07243257,-0.22083699,0.00077667,0.00090522,0
 .00366833,-0.00000616,0.00000420,-0.00000306,0.00000014,0.00000068,-0.
 00000091,0.00000014,-0.00000295,-0.00000059,-0.00000971,-0.00000217,0.
 00000684,0.00000531,0.00000114,0.00000084,-0.00001551,-0.00000634,-0.0
 0000171,0.00000939,0.00000750,-0.00000383,0.00000102,-0.00000673,0.000
 00626,-0.00000136,0.00001008,0.00000974,-0.00004138,0.00004591,0.00002
 005,-0.00000909,0.00001126,0.00000193,-0.00025779,-0.00016423,-0.00000
 805,-0.00002915,-0.00002275,0.00000941,-0.00017881,0.00026482,0.000302
 37,-0.00050331,-0.00012244,0.00040734,-0.01039753,0.00772184,-0.022739
 05,0.09674308,-0.07860009,0.23656693,0.00000659,-0.00002014,-0.0000032
 6,-0.00005169,0.00002536,-0.00004663,0.00003747,0.00000489,0.00004103,
 -0.00001965,0.00002281,0.00002028,0.00002871,-0.00001145,-0.00000844,-
 0.00005544,-0.00015679,-0.00003964,-0.00007819,0.00016521,-0.00002660,
 -0.00029473,-0.00023696,-0.00070623,0.00025659,-0.00014099,-0.00005493
 ,0.00160929,0.00015109,0.00113390,0.00027077,0.00285197,0.00229889,-0.
 08668977,0.03024376,-0.10551514,0.00000544,-0.00000304,0.00000452,-0.0
 0000828,0.00000352,0.00000568,0.00000056,0.00000560,-0.00000013,-0.000
 00334,-0.00000173,0.00000503,-0.00000345,0.00000315,0.00000414,0.00001
 739,0.00001271,0.00000200,-0.00000799,-0.00000351,0.00000224,-0.000004
 35,0.00005947,-0.00001351,0.00000842,0.00002959,0.00001492,0.00008209,
 0.00005955,-0.00001923,-0.00001240,-0.00001774,0.00001201,-0.00007919,
 -0.00002173,0.00004571,-0.00011036,0.00001735,0.00003488,-0.00013191,0
 .00008560,0.00015150,-0.00018077,-0.00009249,0.00034611,-0.00013856,-0
 .00067492,-0.00089206,0.00103079,-0.00138411,0.00091738,0.10046206,0.0
 0002313,-0.00002328,0.00001018,-0.00006694,0.00007584,-0.00004920,0.00
 005081,-0.00003237,0.00002692,-0.00000644,-0.00002355,0.00006065,0.000
 01763,-0.00000089,-0.00000571,0.00003065,0.00003333,-0.00006267,-0.000
 01939,-0.00012907,0.00012040,-0.00058570,-0.00015230,-0.00074349,-0.00
 001590,0.00010784,-0.00009159,0.00100843,0.00221464,0.00035320,0.01469
 548,-0.02086303,0.03606426,0.03674614,-0.10064960,0.11305427,0.0000090
 7,-0.00000533,0.00000283,0.00000311,0.00000019,-0.00000348,-0.00000291
 ,0.00000061,0.00000112,0.00001602,0.00000229,-0.00001358,-0.00000597,-
 0.00000249,-0.00000364,0.00001789,0.00000769,0.00000174,-0.00000983,-0
 .00001074,0.00000812,-0.00001416,0.00001752,0.00001060,-0.00001267,-0.
 00001079,-0.00001443,0.00002011,0.00001774,-0.00000329,0.00002977,-0.0
 0001176,-0.00002518,-0.00003682,-0.00005573,0.00000344,0.00006953,0.00
 009090,0.00004516,0.00007650,-0.00011578,-0.00003649,-0.00004029,-0.00
 015558,0.00004054,0.00071049,0.00185992,-0.00012897,-0.00078699,-0.007
 67159,-0.00083474,-0.04764211,0.12073178,0.00001184,-0.00000386,0.0000
 0234,-0.00002701,0.00002735,0.00001404,0.00002351,-0.00001324,-0.00001
 836,0.00000160,-0.00001486,0.00002441,-0.00000065,0.00000591,-0.000004
 07,0.00001614,0.00007659,-0.00001536,-0.00004124,0.00005175,-0.0000004
 2,0.00022271,0.00011677,0.00002312,-0.00002255,-0.00006185,0.00002800,
 0.00031177,0.00036349,0.00039889,0.00395761,-0.00865533,-0.00048569,-0
 .14872918,0.14512425,-0.30812657,0.00000228,-0.00000221,-0.00000064,0.
 00000635,-0.00000266,-0.00000237,-0.00000085,-0.00000190,0.00000156,0.
 00001400,0.00000260,-0.00001387,-0.00000246,-0.00000413,-0.00000415,0.
 00000326,-0.00000162,0.00000157,-0.00000269,-0.00000499,0.00000526,0.0
 0000163,-0.00002359,0.00003351,-0.00001215,-0.00002974,-0.00001633,0.0
 0003528,-0.00002009,-0.00001784,0.00003636,0.00001051,-0.00003643,0.00
 004000,0.00000677,0.00002082,0.00001590,0.00000747,-0.00003399,0.00009
 441,-0.00007262,-0.00005423,0.00016373,0.00017782,-0.00020655,0.000019
 89,-0.00050006,0.00187649,0.00029148,0.00025978,0.00176006,0.13756953,
 -0.13699071,0.31071076,-0.00001742,0.00002454,-0.00000943,0.00004358,-
 0.00006980,0.00007160,-0.00003623,0.00002551,-0.00004319,-0.00000121,0
 .00004021,-0.00009312,-0.00001597,0.00000307,0.00000729,-0.00006745,-0
 .00007112,0.00011955,0.00001143,0.00022716,-0.00023144,0.00054282,0.00
 018063,0.00087092,-0.00013620,0.00001869,-0.00005771,-0.00008739,-0.00
 282426,-0.00024061,-0.00097806,0.00726446,0.00422337,-0.39079546,-0.11
 101258,-0.05259705,-0.00000980,0.00000529,-0.00000312,0.00000004,-0.00
 000129,0.00000006,0.00000244,-0.00000244,-0.00000161,-0.00000537,-0.00
 000179,0.00000787,0.00000499,-0.00000028,0.00000142,-0.00001799,-0.000
 00812,-0.00000294,0.00001031,0.00000978,-0.00000753,0.00000841,-0.0000
 0560,0.00001310,0.00000168,-0.00000555,-0.00000650,-0.00000870,-0.0000
 2968,0.00001133,-0.00001261,0.00001030,0.00001881,0.00003937,-0.000028
 33,-0.00008783,0.00007824,-0.00002180,-0.00002535,0.00005779,-0.000023
 97,-0.00005070,0.00041591,0.00029501,-0.00028260,0.00099661,0.00075656
 ,-0.00057014,0.00033148,-0.00038589,0.00018526,-0.01594609,-0.00427863
 ,0.00599952,0.40559084,-0.00000695,0.00001511,-0.00001638,-0.00002238,
 -0.00004925,0.00007331,-0.00000027,0.00001737,-0.00003957,-0.00003179,
 0.00007250,-0.00013885,0.00000303,0.00000824,0.00000496,-0.00025580,-0
 .00020871,0.00015945,-0.00017394,0.00048966,-0.00081144,-0.00138114,0.
 00006082,0.00095818,-0.00013753,-0.00017551,0.00031070,0.00143171,-0.0
 0809377,-0.00146167,-0.04007759,-0.01385993,-0.00245070,-0.08657685,-0
 .07675746,0.00712429,-0.00000766,0.00000564,0.,-0.00000331,0.00000163,
 0.00000158,0.00000284,-0.00000081,-0.00000066,-0.00000235,-0.00000210,
 0.00000766,0.00000140,-0.00000101,-0.00000075,-0.00000720,-0.00000325,
 -0.00000162,0.00000648,0.00000522,-0.00000295,-0.00000094,0.00002031,0
 .00000745,0.00000172,0.00000071,-0.00001556,0.00002722,-0.00002111,0.0
 0000900,0.00000876,0.00000071,0.00002045,0.00007986,0.00000531,-0.0000
 5937,0.00004122,-0.00005441,-0.00008209,0.00009438,-0.00002256,-0.0000
 7354,0.00006900,0.00015535,0.00019207,0.00007433,0.00120241,-0.0007593
 6,0.00026776,0.00139822,0.00069298,0.01666609,0.00475359,0.00017241,0.
 10990990,0.09103705,0.00002068,-0.00002269,0.00000531,-0.00005745,0.00
 006279,-0.00003324,0.00004691,-0.00002270,0.00001692,0.00000406,-0.000
 03064,0.00005895,0.00000923,-0.00000247,-0.00000433,0.00004647,0.00005
 820,-0.00003988,-0.00006099,-0.00001038,0.00010499,0.00041245,0.000192
 93,0.00044915,-0.00004273,-0.00009071,0.00013565,0.00041816,0.00072051
 ,0.00040907,-0.00124120,-0.00696222,-0.00318089,-0.00604022,0.01965116
 ,-0.02670811,0.00000711,-0.00000519,0.00000290,0.00000027,-0.00000102,
 -0.00000029,-0.00000180,0.00000310,0.00000095,0.00000829,0.00000146,-0
 .00000946,-0.00000518,-0.00000113,-0.00000317,0.00001784,0.00000422,0.
 00000288,-0.00001138,-0.00001013,0.00000767,-0.00000368,-0.00000230,-0
 .00000858,-0.00000897,-0.00000347,-0.00000664,0.00003718,0.00003111,0.
 00002164,0.00000278,-0.00002212,-0.00001382,0.00005297,0.00006684,0.00
 008350,-0.00001185,0.00002437,-0.00000840,0.00004353,-0.00003445,-0.00
 004487,-0.00040592,-0.00011676,0.00009103,-0.00106258,0.00062782,0.000
 19151,0.00032919,0.00051006,-0.00003183,-0.03528394,-0.01079624,-0.005
 86396,0.04278078,-0.00381996,0.03437534\\-0.00000199,0.00000074,-0.000
 00109,-0.00000030,-0.00000524,0.00000810,-0.00000004,0.00000162,-0.000
 00425,0.00000271,0.00000789,-0.00000501,-0.00000317,-0.00000670,0.0000
 0017,-0.00000529,0.00000412,-0.00000506,0.00000322,-0.00000425,0.00000
 796,-0.00000037,-0.00000367,-0.00000145,-0.00000116,0.00000040,-0.0000
 0079,-0.00000171,0.00000221,0.00000065,-0.00000017,-0.00000205,0.00000
 100,-0.00000023,0.00000127,0.00000040,0.00000089,0.00000036,-0.0000009
 8,0.00000019,0.00000056,-0.00000041,0.00000029,0.00000102,-0.00000102,
 -0.00000050,-0.00000156,0.00000087,-0.00000002,0.00000108,0.00000049,0
 .00000092,0.00000090,0.00000100,0.00000104,0.00000139,0.00000017,0.000
 00133,-0.00000081,-0.00000111,0.00000069,-0.00000158,0.00000175,0.0000
 0030,0.00000102,-0.00000048,0.00000073,0.00000083,-0.00000136,0.000000
 50,-0.00000078,0.,-0.00000020,-0.00000026,0.00000034,-0.00000074,-0.00
 000087,0.00000075,0.00000166,0.00000073,0.00000048,0.00000020,0.000001
 39,0.00000070,0.00000082,0.00000013,0.00000014,-0.00000009,0.00000008,
 -0.00000101,0.00000053,0.,-0.00000095\\\@


 TO DRY ONE'S EYES AND LAUGH AT A FALL
 AND BAFFLED, GET UP AND BEGIN AGAIN.
           R. BROWNING
 Job cpu time:       0 days  4 hours 50 minutes 38.5 seconds.
 Elapsed time:       0 days  1 hours 12 minutes 40.8 seconds.
 File lengths (MBytes):  RWF=    411 Int=      0 D2E=      0 Chk=     16 Scr=      1
 Normal termination of Gaussian 16 at Sun May 28 08:36:06 2023.
### All Done ###
