### Starting Gaussian ###
 Entering Gaussian System, Link 0=g16
 Initial command:
 /cluster/software/gaussian/gaussian-16-A.03/avx2/g16/l1.exe "/local/scratch/cz9n3/Gau-18191.inp" -scrdir="/local/scratch/cz9n3/"
 Entering Link 1 = /cluster/software/gaussian/gaussian-16-A.03/avx2/g16/l1.exe PID=     18192.
  
 Copyright (c) 1988,1990,1992,1993,1995,1998,2003,2009,2016,
            Gaussian, Inc.  All Rights Reserved.
  
 This is part of the Gaussian(R) 16 program.  It is based on
 the Gaussian(R) 09 system (copyright 2009, Gaussian, Inc.),
 the Gaussian(R) 03 system (copyright 2003, Gaussian, Inc.),
 the Gaussian(R) 98 system (copyright 1998, Gaussian, Inc.),
 the Gaussian(R) 94 system (copyright 1995, Gaussian, Inc.),
 the Gaussian 92(TM) system (copyright 1992, Gaussian, Inc.),
 the Gaussian 90(TM) system (copyright 1990, Gaussian, Inc.),
 the Gaussian 88(TM) system (copyright 1988, Gaussian, Inc.),
 the Gaussian 86(TM) system (copyright 1986, Carnegie Mellon
 University), and the Gaussian 82(TM) system (copyright 1983,
 Carnegie Mellon University). Gaussian is a federally registered
 trademark of Gaussian, Inc.
  
 This software contains proprietary and confidential information,
 including trade secrets, belonging to Gaussian, Inc.
  
 This software is provided under written license and may be
 used, copied, transmitted, or stored only in accord with that
 written license.
  
 The following legend is applicable only to US Government
 contracts under FAR:
  
                    RESTRICTED RIGHTS LEGEND
  
 Use, reproduction and disclosure by the US Government is
 subject to restrictions as set forth in subparagraphs (a)
 and (c) of the Commercial Computer Software - Restricted
 Rights clause in FAR 52.227-19.
  
 Gaussian, Inc.
 340 Quinnipiac St., Bldg. 40, Wallingford CT 06492
  
  
 ---------------------------------------------------------------
 Warning -- This program may not be used in any manner that
 competes with the business of Gaussian, Inc. or will provide
 assistance to any competitor of Gaussian, Inc.  The licensee
 of this program is prohibited from giving any competitor of
 Gaussian, Inc. access to this program.  By using this program,
 the user acknowledges that Gaussian, Inc. is engaged in the
 business of creating and licensing software in the field of
 computational chemistry and represents and warrants to the
 licensee that it is not a competitor of Gaussian, Inc. and that
 it will not use this program in any manner prohibited above.
 ---------------------------------------------------------------
  

 Cite this work as:
 Gaussian 16, Revision A.03,
 M. J. Frisch, G. W. Trucks, H. B. Schlegel, G. E. Scuseria, 
 M. A. Robb, J. R. Cheeseman, G. Scalmani, V. Barone, 
 G. A. Petersson, H. Nakatsuji, X. Li, M. Caricato, A. V. Marenich, 
 J. Bloino, B. G. Janesko, R. Gomperts, B. Mennucci, H. P. Hratchian, 
 J. V. Ortiz, A. F. Izmaylov, J. L. Sonnenberg, D. Williams-Young, 
 F. Ding, F. Lipparini, F. Egidi, J. Goings, B. Peng, A. Petrone, 
 T. Henderson, D. Ranasinghe, V. G. Zakrzewski, J. Gao, N. Rega, 
 G. Zheng, W. Liang, M. Hada, M. Ehara, K. Toyota, R. Fukuda, 
 J. Hasegawa, M. Ishida, T. Nakajima, Y. Honda, O. Kitao, H. Nakai, 
 T. Vreven, K. Throssell, J. A. Montgomery, Jr., J. E. Peralta, 
 F. Ogliaro, M. J. Bearpark, J. J. Heyd, E. N. Brothers, K. N. Kudin, 
 V. N. Staroverov, T. A. Keith, R. Kobayashi, J. Normand, 
 K. Raghavachari, A. P. Rendell, J. C. Burant, S. S. Iyengar, 
 J. Tomasi, M. Cossi, J. M. Millam, M. Klene, C. Adamo, R. Cammi, 
 J. W. Ochterski, R. L. Martin, K. Morokuma, O. Farkas, 
 J. B. Foresman, and D. J. Fox, Gaussian, Inc., Wallingford CT, 2016.
 
 ******************************************
 Gaussian 16:  ES64L-G16RevA.03 25-Dec-2016
                29-May-2023 
 ******************************************
 %chk=CCqNrCqCdOrC1COCC1C.chk
 %NProcShared=20
 Will use up to   20 processors via shared memory.
 -----------------------------
 # opt freq b3lyp/6-31g(2df,p)
 -----------------------------
 1/18=20,19=15,26=3,38=1/1,3;
 2/9=110,12=2,17=6,18=5,40=1/2;
 3/5=1,6=6,7=104,11=2,25=1,30=1,71=1,74=-5/1,2,3;
 4//1;
 5/5=2,38=5/2;
 6/7=2,8=2,9=2,10=2,28=1/1;
 7//1,2,3,16;
 1/18=20,19=15,26=3/3(2);
 2/9=110/2;
 99//99;
 2/9=110/2;
 3/5=1,6=6,7=104,11=2,25=1,30=1,71=1,74=-5/1,2,3;
 4/5=5,16=3,69=1/1;
 5/5=2,38=5/2;
 7//1,2,3,16;
 1/18=20,19=15,26=3/3(-5);
 2/9=110/2;
 6/7=2,8=2,9=2,10=2,19=2,28=1/1;
 99/9=1/99;
 -------------------
 Title Card Required
 -------------------
 Symbolic Z-matrix:
 Charge =  0 Multiplicity = 1
 C                     0.9499    0.12057   0.16432 
 C                     2.47313   0.05062   0.08132 
 N                     3.00256   0.19068   1.45081 
 C                     2.98768  -1.26351  -0.56486 
 C                     2.31332  -1.51662  -1.91909 
 O                     1.09851  -1.63175  -2.09069 
 C                     4.54327  -1.29038  -0.6096 
 C                     5.12617  -2.64171  -0.22808 
 O                     6.45443  -2.64149  -0.75931 
 C                     6.43346  -1.90065  -1.98125 
 C                     5.22916  -0.97564  -1.93753 
 C                     5.53787   0.5023   -2.09906 
 H                     0.61774   1.0378    0.6583 
 H                     0.54742  -0.74036   0.70947 
 H                     0.49754   0.14439  -0.82907 
 H                     2.83141   0.90524  -0.50311 
 H                     2.64822  -0.56297   2.04172 
 H                     2.64988   1.05215   1.87039 
 H                     2.65688  -2.09895   0.06999 
 H                     2.93449  -1.62997  -2.80662 
 H                     4.94992  -0.5915    0.13654 
 H                     4.56745  -3.47765  -0.65961 
 H                     5.18042  -2.77969   0.85811 
 H                     6.30094  -2.62742  -2.79335 
 H                     7.38217  -1.38392  -2.1374 
 H                     4.66165  -1.24076  -2.82234 
 H                     6.26191   0.84841  -1.35693 
 H                     4.62478   1.09894  -1.99729 
 H                     5.94235   0.69085  -3.09784 
 

 GradGradGradGradGradGradGradGradGradGradGradGradGradGradGradGradGradGrad
 Berny optimization.
 Initialization pass.
                           ----------------------------
                           !    Initial Parameters    !
                           ! (Angstroms and Degrees)  !
 --------------------------                            --------------------------
 ! Name  Definition              Value          Derivative Info.                !
 --------------------------------------------------------------------------------
 ! R1    R(1,2)                  1.5271         estimate D2E/DX2                !
 ! R2    R(1,13)                 1.0935         estimate D2E/DX2                !
 ! R3    R(1,14)                 1.0956         estimate D2E/DX2                !
 ! R4    R(1,15)                 1.0918         estimate D2E/DX2                !
 ! R5    R(2,3)                  1.4749         estimate D2E/DX2                !
 ! R6    R(2,4)                  1.5522         estimate D2E/DX2                !
 ! R7    R(2,16)                 1.0956         estimate D2E/DX2                !
 ! R8    R(3,17)                 1.0211         estimate D2E/DX2                !
 ! R9    R(3,18)                 1.0211         estimate D2E/DX2                !
 ! R10   R(4,5)                  1.5339         estimate D2E/DX2                !
 ! R11   R(4,7)                  1.5565         estimate D2E/DX2                !
 ! R12   R(4,19)                 1.1002         estimate D2E/DX2                !
 ! R13   R(5,6)                  1.2323         estimate D2E/DX2                !
 ! R14   R(5,20)                 1.0892         estimate D2E/DX2                !
 ! R15   R(7,8)                  1.5203         estimate D2E/DX2                !
 ! R16   R(7,11)                 1.5274         estimate D2E/DX2                !
 ! R17   R(7,21)                 1.1002         estimate D2E/DX2                !
 ! R18   R(8,9)                  1.4306         estimate D2E/DX2                !
 ! R19   R(8,22)                 1.0942         estimate D2E/DX2                !
 ! R20   R(8,23)                 1.0963         estimate D2E/DX2                !
 ! R21   R(9,10)                 1.4291         estimate D2E/DX2                !
 ! R22   R(10,11)                1.5192         estimate D2E/DX2                !
 ! R23   R(10,24)                1.0978         estimate D2E/DX2                !
 ! R24   R(10,25)                1.0915         estimate D2E/DX2                !
 ! R25   R(11,12)                1.5185         estimate D2E/DX2                !
 ! R26   R(11,26)                1.0841         estimate D2E/DX2                !
 ! R27   R(12,27)                1.0931         estimate D2E/DX2                !
 ! R28   R(12,28)                1.0955         estimate D2E/DX2                !
 ! R29   R(12,29)                1.0939         estimate D2E/DX2                !
 ! A1    A(2,1,13)             111.4678         estimate D2E/DX2                !
 ! A2    A(2,1,14)             110.9452         estimate D2E/DX2                !
 ! A3    A(2,1,15)             111.3968         estimate D2E/DX2                !
 ! A4    A(13,1,14)            108.8308         estimate D2E/DX2                !
 ! A5    A(13,1,15)            105.4786         estimate D2E/DX2                !
 ! A6    A(14,1,15)            108.5217         estimate D2E/DX2                !
 ! A7    A(1,2,3)              107.6516         estimate D2E/DX2                !
 ! A8    A(1,2,4)              113.0835         estimate D2E/DX2                !
 ! A9    A(1,2,16)             108.6301         estimate D2E/DX2                !
 ! A10   A(3,2,4)              110.3619         estimate D2E/DX2                !
 ! A11   A(3,2,16)             107.6888         estimate D2E/DX2                !
 ! A12   A(4,2,16)             109.2654         estimate D2E/DX2                !
 ! A13   A(2,3,17)             110.0394         estimate D2E/DX2                !
 ! A14   A(2,3,18)             109.7358         estimate D2E/DX2                !
 ! A15   A(17,3,18)            105.3695         estimate D2E/DX2                !
 ! A16   A(2,4,5)              111.1931         estimate D2E/DX2                !
 ! A17   A(2,4,7)              110.9712         estimate D2E/DX2                !
 ! A18   A(2,4,19)             107.6381         estimate D2E/DX2                !
 ! A19   A(5,4,7)              114.2784         estimate D2E/DX2                !
 ! A20   A(5,4,19)             104.5935         estimate D2E/DX2                !
 ! A21   A(7,4,19)             107.697          estimate D2E/DX2                !
 ! A22   A(4,5,6)              124.8747         estimate D2E/DX2                !
 ! A23   A(4,5,20)             119.0679         estimate D2E/DX2                !
 ! A24   A(6,5,20)             116.0412         estimate D2E/DX2                !
 ! A25   A(4,7,8)              113.0365         estimate D2E/DX2                !
 ! A26   A(4,7,11)             118.0501         estimate D2E/DX2                !
 ! A27   A(4,7,21)             109.812          estimate D2E/DX2                !
 ! A28   A(8,7,11)             103.2477         estimate D2E/DX2                !
 ! A29   A(8,7,21)             104.6379         estimate D2E/DX2                !
 ! A30   A(11,7,21)            107.0218         estimate D2E/DX2                !
 ! A31   A(7,8,9)              105.2281         estimate D2E/DX2                !
 ! A32   A(7,8,22)             112.6017         estimate D2E/DX2                !
 ! A33   A(7,8,23)             112.3018         estimate D2E/DX2                !
 ! A34   A(9,8,22)             109.1345         estimate D2E/DX2                !
 ! A35   A(9,8,23)             108.7843         estimate D2E/DX2                !
 ! A36   A(22,8,23)            108.6557         estimate D2E/DX2                !
 ! A37   A(8,9,10)             107.6959         estimate D2E/DX2                !
 ! A38   A(9,10,11)            107.6177         estimate D2E/DX2                !
 ! A39   A(9,10,24)            106.9227         estimate D2E/DX2                !
 ! A40   A(9,10,25)            110.7913         estimate D2E/DX2                !
 ! A41   A(11,10,24)           109.1888         estimate D2E/DX2                !
 ! A42   A(11,10,25)           113.8834         estimate D2E/DX2                !
 ! A43   A(24,10,25)           108.2089         estimate D2E/DX2                !
 ! A44   A(7,11,10)            104.8053         estimate D2E/DX2                !
 ! A45   A(7,11,12)            112.6034         estimate D2E/DX2                !
 ! A46   A(7,11,26)            115.0952         estimate D2E/DX2                !
 ! A47   A(10,11,12)           115.3671         estimate D2E/DX2                !
 ! A48   A(10,11,26)           104.0396         estimate D2E/DX2                !
 ! A49   A(12,11,26)           104.9298         estimate D2E/DX2                !
 ! A50   A(11,12,27)           111.755          estimate D2E/DX2                !
 ! A51   A(11,12,28)           110.5343         estimate D2E/DX2                !
 ! A52   A(11,12,29)           109.8802         estimate D2E/DX2                !
 ! A53   A(27,12,28)           108.4564         estimate D2E/DX2                !
 ! A54   A(27,12,29)           108.6865         estimate D2E/DX2                !
 ! A55   A(28,12,29)           107.4054         estimate D2E/DX2                !
 ! D1    D(13,1,2,3)            55.597          estimate D2E/DX2                !
 ! D2    D(13,1,2,4)           177.7742         estimate D2E/DX2                !
 ! D3    D(13,1,2,16)          -60.7476         estimate D2E/DX2                !
 ! D4    D(14,1,2,3)           -65.8631         estimate D2E/DX2                !
 ! D5    D(14,1,2,4)            56.3141         estimate D2E/DX2                !
 ! D6    D(14,1,2,16)          177.7923         estimate D2E/DX2                !
 ! D7    D(15,1,2,3)           173.1194         estimate D2E/DX2                !
 ! D8    D(15,1,2,4)           -64.7033         estimate D2E/DX2                !
 ! D9    D(15,1,2,16)           56.7748         estimate D2E/DX2                !
 ! D10   D(1,2,3,17)            59.9951         estimate D2E/DX2                !
 ! D11   D(1,2,3,18)           -55.5097         estimate D2E/DX2                !
 ! D12   D(4,2,3,17)           -63.8513         estimate D2E/DX2                !
 ! D13   D(4,2,3,18)          -179.356          estimate D2E/DX2                !
 ! D14   D(16,2,3,17)          176.9548         estimate D2E/DX2                !
 ! D15   D(16,2,3,18)           61.4501         estimate D2E/DX2                !
 ! D16   D(1,2,4,5)             52.2822         estimate D2E/DX2                !
 ! D17   D(1,2,4,7)           -179.3362         estimate D2E/DX2                !
 ! D18   D(1,2,4,19)           -61.7248         estimate D2E/DX2                !
 ! D19   D(3,2,4,5)            172.9306         estimate D2E/DX2                !
 ! D20   D(3,2,4,7)            -58.6879         estimate D2E/DX2                !
 ! D21   D(3,2,4,19)            58.9236         estimate D2E/DX2                !
 ! D22   D(16,2,4,5)           -68.8373         estimate D2E/DX2                !
 ! D23   D(16,2,4,7)            59.5443         estimate D2E/DX2                !
 ! D24   D(16,2,4,19)          177.1557         estimate D2E/DX2                !
 ! D25   D(2,4,5,6)            -58.7831         estimate D2E/DX2                !
 ! D26   D(2,4,5,20)           122.7398         estimate D2E/DX2                !
 ! D27   D(7,4,5,6)            174.6331         estimate D2E/DX2                !
 ! D28   D(7,4,5,20)            -3.8439         estimate D2E/DX2                !
 ! D29   D(19,4,5,6)            57.1147         estimate D2E/DX2                !
 ! D30   D(19,4,5,20)         -121.3623         estimate D2E/DX2                !
 ! D31   D(2,4,7,8)            137.654          estimate D2E/DX2                !
 ! D32   D(2,4,7,11)          -101.7663         estimate D2E/DX2                !
 ! D33   D(2,4,7,21)            21.2258         estimate D2E/DX2                !
 ! D34   D(5,4,7,8)            -95.6472         estimate D2E/DX2                !
 ! D35   D(5,4,7,11)            24.9325         estimate D2E/DX2                !
 ! D36   D(5,4,7,21)           147.9246         estimate D2E/DX2                !
 ! D37   D(19,4,7,8)            20.0785         estimate D2E/DX2                !
 ! D38   D(19,4,7,11)          140.6582         estimate D2E/DX2                !
 ! D39   D(19,4,7,21)          -96.3497         estimate D2E/DX2                !
 ! D40   D(4,7,8,9)            160.2784         estimate D2E/DX2                !
 ! D41   D(4,7,8,22)            41.5081         estimate D2E/DX2                !
 ! D42   D(4,7,8,23)           -81.534          estimate D2E/DX2                !
 ! D43   D(11,7,8,9)            31.591          estimate D2E/DX2                !
 ! D44   D(11,7,8,22)          -87.1793         estimate D2E/DX2                !
 ! D45   D(11,7,8,23)          149.7786         estimate D2E/DX2                !
 ! D46   D(21,7,8,9)           -80.2677         estimate D2E/DX2                !
 ! D47   D(21,7,8,22)          160.962          estimate D2E/DX2                !
 ! D48   D(21,7,8,23)           37.92           estimate D2E/DX2                !
 ! D49   D(4,7,11,10)         -143.2279         estimate D2E/DX2                !
 ! D50   D(4,7,11,12)           90.6124         estimate D2E/DX2                !
 ! D51   D(4,7,11,26)          -29.5957         estimate D2E/DX2                !
 ! D52   D(8,7,11,10)          -17.7094         estimate D2E/DX2                !
 ! D53   D(8,7,11,12)         -143.8691         estimate D2E/DX2                !
 ! D54   D(8,7,11,26)           95.9228         estimate D2E/DX2                !
 ! D55   D(21,7,11,10)          92.3861         estimate D2E/DX2                !
 ! D56   D(21,7,11,12)         -33.7736         estimate D2E/DX2                !
 ! D57   D(21,7,11,26)        -153.9817         estimate D2E/DX2                !
 ! D58   D(7,8,9,10)           -34.1436         estimate D2E/DX2                !
 ! D59   D(22,8,9,10)           86.924          estimate D2E/DX2                !
 ! D60   D(23,8,9,10)         -154.6749         estimate D2E/DX2                !
 ! D61   D(8,9,10,11)           22.5399         estimate D2E/DX2                !
 ! D62   D(8,9,10,24)          -94.6592         estimate D2E/DX2                !
 ! D63   D(8,9,10,25)          147.637          estimate D2E/DX2                !
 ! D64   D(9,10,11,7)           -1.9115         estimate D2E/DX2                !
 ! D65   D(9,10,11,12)         122.5108         estimate D2E/DX2                !
 ! D66   D(9,10,11,26)        -123.1292         estimate D2E/DX2                !
 ! D67   D(24,10,11,7)         113.803          estimate D2E/DX2                !
 ! D68   D(24,10,11,12)       -121.7747         estimate D2E/DX2                !
 ! D69   D(24,10,11,26)         -7.4147         estimate D2E/DX2                !
 ! D70   D(25,10,11,7)        -125.1361         estimate D2E/DX2                !
 ! D71   D(25,10,11,12)         -0.7139         estimate D2E/DX2                !
 ! D72   D(25,10,11,26)        113.6462         estimate D2E/DX2                !
 ! D73   D(7,11,12,27)          64.4334         estimate D2E/DX2                !
 ! D74   D(7,11,12,28)         -56.4613         estimate D2E/DX2                !
 ! D75   D(7,11,12,29)        -174.8281         estimate D2E/DX2                !
 ! D76   D(10,11,12,27)        -55.8135         estimate D2E/DX2                !
 ! D77   D(10,11,12,28)       -176.7083         estimate D2E/DX2                !
 ! D78   D(10,11,12,29)         64.925          estimate D2E/DX2                !
 ! D79   D(26,11,12,27)       -169.6595         estimate D2E/DX2                !
 ! D80   D(26,11,12,28)         69.4457         estimate D2E/DX2                !
 ! D81   D(26,11,12,29)        -48.921          estimate D2E/DX2                !
 --------------------------------------------------------------------------------
 Trust Radius=3.00D-01 FncErr=1.00D-07 GrdErr=1.00D-06 EigMax=2.50D+02 EigMin=1.00D-04
 Number of steps in this run=    174 maximum allowed number of steps=    174.
 GradGradGradGradGradGradGradGradGradGradGradGradGradGradGradGradGradGrad

                          Input orientation:                          
 ---------------------------------------------------------------------
 Center     Atomic      Atomic             Coordinates (Angstroms)
 Number     Number       Type             X           Y           Z
 ---------------------------------------------------------------------
      1          6           0        0.949900    0.120570    0.164320
      2          6           0        2.473130    0.050620    0.081320
      3          7           0        3.002560    0.190680    1.450810
      4          6           0        2.987680   -1.263510   -0.564860
      5          6           0        2.313320   -1.516620   -1.919090
      6          8           0        1.098510   -1.631750   -2.090690
      7          6           0        4.543270   -1.290380   -0.609600
      8          6           0        5.126170   -2.641710   -0.228080
      9          8           0        6.454430   -2.641490   -0.759310
     10          6           0        6.433460   -1.900650   -1.981250
     11          6           0        5.229160   -0.975640   -1.937530
     12          6           0        5.537870    0.502300   -2.099060
     13          1           0        0.617740    1.037800    0.658300
     14          1           0        0.547420   -0.740360    0.709470
     15          1           0        0.497540    0.144390   -0.829070
     16          1           0        2.831410    0.905240   -0.503110
     17          1           0        2.648220   -0.562970    2.041720
     18          1           0        2.649880    1.052150    1.870390
     19          1           0        2.656880   -2.098950    0.069990
     20          1           0        2.934490   -1.629970   -2.806620
     21          1           0        4.949920   -0.591500    0.136540
     22          1           0        4.567450   -3.477650   -0.659610
     23          1           0        5.180420   -2.779690    0.858110
     24          1           0        6.300940   -2.627420   -2.793350
     25          1           0        7.382170   -1.383920   -2.137400
     26          1           0        4.661650   -1.240760   -2.822340
     27          1           0        6.261910    0.848410   -1.356930
     28          1           0        4.624780    1.098940   -1.997290
     29          1           0        5.942350    0.690850   -3.097840
 ---------------------------------------------------------------------
                    Distance matrix (angstroms):
                    1          2          3          4          5
     1  C    0.000000
     2  C    1.527093   0.000000
     3  N    2.423507   1.474929   0.000000
     4  C    2.569033   1.552175   2.485521   0.000000
     5  C    2.979917   2.546256   3.840072   1.533873   0.000000
     6  O    2.859682   3.072064   4.414621   2.456160   1.232260
     7  C    3.937263   2.561470   2.968605   1.556465   2.595886
     8  C    5.022489   3.792491   3.918013   2.566319   3.469505
     9  O    6.227513   4.879023   4.982090   3.735639   4.445134
    10  C    6.225611   4.872973   5.284295   3.779617   4.138465
    11  C    4.891985   3.567165   4.218874   2.644111   2.965657
    12  C    5.130115   3.788232   4.373383   3.460538   3.808694
    13  H    1.093461   2.179427   2.651990   3.522608   4.005370
    14  H    1.095618   2.174530   2.728394   2.802226   3.260416
    15  H    1.091797   2.177282   3.387495   2.872766   2.691497
    16  H    2.145052   1.095581   2.087508   2.175249   2.852862
    17  H    2.622241   2.061630   1.021137   2.720340   4.087740
    18  H    2.582334   2.057930   1.021059   3.377400   4.590426
    19  H    2.801597   2.157439   2.696027   1.100192   2.100852
    20  H    3.978627   3.373045   4.630887   2.272138   1.089224
    21  H    4.063001   2.559269   2.476151   2.189508   3.468879
    22  H    5.168435   4.169394   4.512139   2.721593   3.242380
    23  H    5.175920   3.992928   3.730612   3.021879   4.186699
    24  H    6.703200   5.485231   6.069093   4.219492   4.230759
    25  H    6.995392   5.574881   5.876700   4.668932   5.075284
    26  H    4.954841   3.858565   4.802230   2.810500   2.531129
    27  H    5.573276   4.130361   4.351939   3.975948   4.636891
    28  H    4.374301   3.170046   3.917388   3.211405   3.491435
    29  H    5.990949   4.748941   5.439003   4.354950   4.408201
                    6          7          8          9         10
     6  O    0.000000
     7  C    3.765174   0.000000
     8  C    4.550976   1.520336   0.000000
     9  O    5.610528   2.345303   1.430552   0.000000
    10  C    5.342843   2.413850   2.309065   1.429133   0.000000
    11  C    4.185237   1.527385   2.389271   2.380030   1.519175
    12  C    4.925663   2.534052   3.681693   3.538139   2.567125
    13  H    3.861940   4.736853   5.886459   7.043702   7.030243
    14  H    2.989845   4.243735   5.045699   6.376863   6.575083
    15  H    2.259983   4.298216   5.435785   6.576514   6.383170
    16  H    3.458276   2.786136   4.233488   5.076535   4.799238
    17  H    4.541003   3.339137   3.951378   5.162678   5.683460
    18  H    5.029933   3.901631   4.917336   5.918860   6.153831
    19  H    2.704687   2.161966   2.545747   3.924726   4.302263
    20  H    1.970630   2.744156   3.532131   4.195787   3.605176
    21  H    4.569030   1.100237   2.089826   2.696026   2.898241
    22  H    4.181971   2.187975   1.094158   2.066349   2.777707
    23  H    5.164802   2.185904   1.096262   2.063552   3.225645
    24  H    5.343254   3.105776   2.821507   2.039872   1.097845
    25  H    6.288719   3.225256   3.212020   2.083582   1.091533
    26  H    3.658436   2.216460   2.984732   3.071188   2.069347
    27  H    5.774972   2.843703   3.839941   3.545929   2.824276
    28  H    4.460938   2.764268   4.168208   4.344080   3.502730
    29  H    5.465492   3.474771   4.472989   4.103101   2.864234
                   11         12         13         14         15
    11  C    0.000000
    12  C    1.518453   0.000000
    13  H    5.661932   5.665463   0.000000
    14  H    5.383368   5.859747   1.780285   0.000000
    15  H    4.987121   5.210173   1.739224   1.775493   0.000000
    16  H    3.368156   3.167703   2.503354   3.065120   2.476306
    17  H    4.760880   5.160517   2.932433   2.493936   3.656121
    18  H    5.026417   4.939570   2.366212   2.996859   3.569829
    19  H    3.450882   4.446502   3.787268   2.589309   3.240931
    20  H    2.539483   3.438721   4.948737   4.341935   3.605244
    21  H    2.127746   2.557341   4.657750   4.442118   4.614935
    22  H    2.886346   4.342089   6.142181   5.052502   5.450877
    23  H    3.327548   4.432165   5.952412   5.064153   5.772884
    24  H    2.146979   3.295370   7.592528   6.995265   6.724640
    25  H    2.200476   2.638321   7.709616   7.431867   7.172558
    26  H    1.084087   2.080662   5.801715   5.445270   4.819915
    27  H    2.175047   1.093061   5.996138   6.280891   5.831144
    28  H    2.161650   1.095477   4.807522   5.228235   4.394316
    29  H    2.152243   1.093945   6.525368   6.756422   5.923841
                   16         17         18         19         20
    16  H    0.000000
    17  H    2.943698   0.000000
    18  H    2.384961   1.624183   0.000000
    19  H    3.063342   2.499406   3.629176   0.000000
    20  H    3.426963   4.972609   5.398999   2.927780   0.000000
    21  H    2.671604   2.988034   3.316324   2.744971   3.715181
    22  H    4.716784   4.413161   5.531461   2.466456   3.269577
    23  H    4.577060   3.567466   4.702270   2.729981   4.449304
    24  H    5.455504   6.401736   6.972800   4.664458   3.511135
    25  H    5.349820   6.367832   6.662686   5.264238   4.504470
    26  H    3.651564   5.307766   5.596996   3.622315   1.770540
    27  H    3.535614   5.157671   4.848078   4.870244   4.394962
    28  H    2.342279   4.793990   4.342968   4.286348   3.310445
    29  H    4.056665   6.232049   5.971114   5.349060   3.810280
                   21         22         23         24         25
    21  H    0.000000
    22  H    3.018278   0.000000
    23  H    2.315593   1.779425   0.000000
    24  H    3.815034   2.877625   3.822553   0.000000
    25  H    3.422656   3.806602   3.971015   1.773590   0.000000
    26  H    3.042961   3.112869   4.022827   2.147309   2.809069
    27  H    2.454610   4.698111   4.386244   3.761146   2.616756
    28  H    2.741630   4.768422   4.848280   4.162809   3.713142
    29  H    3.618087   5.021126   5.317398   3.351450   2.701888
                   26         27         28         29
    26  H    0.000000
    27  H    3.012124   0.000000
    28  H    2.481182   1.775675   0.000000
    29  H    2.333926   1.776995   1.764579   0.000000
 Stoichiometry    C9H17NO2
 Framework group  C1[X(C9H17NO2)]
 Deg. of freedom    81
 Full point group                 C1      NOp   1
 Largest Abelian subgroup         C1      NOp   1
 Largest concise Abelian subgroup C1      NOp   1
                         Standard orientation:                         
 ---------------------------------------------------------------------
 Center     Atomic      Atomic             Coordinates (Angstroms)
 Number     Number       Type             X           Y           Z
 ---------------------------------------------------------------------
      1          6           0       -3.256558   -0.230355    0.157987
      2          6           0       -1.814992   -0.691618    0.360810
      3          7           0       -1.741030   -2.112319   -0.028487
      4          6           0       -0.788735    0.144578   -0.449635
      5          6           0       -0.967405    1.645582   -0.189199
      6          8           0       -2.003312    2.278832   -0.399808
      7          6           0        0.659760   -0.376792   -0.220240
      8          6           0        1.480379   -0.435506   -1.498739
      9          8           0        2.844430   -0.465262   -1.068669
     10          6           0        2.943824    0.327979    0.115945
     11          6           0        1.559733    0.400940    0.737928
     12          6           0        1.461756   -0.100975    2.167677
     13          1           0       -3.959747   -0.860796    0.709100
     14          1           0       -3.526463   -0.244103   -0.903776
     15          1           0       -3.409052    0.780410    0.541548
     16          1           0       -1.573195   -0.625682    1.427340
     17          1           0       -2.010028   -2.221320   -1.007506
     18          1           0       -2.426811   -2.651402    0.502226
     19          1           0       -1.024509    0.018405   -1.516834
     20          1           0       -0.123271    2.221397    0.188010
     21          1           0        0.629430   -1.416401    0.138668
     22          1           0        1.325054    0.438342   -2.138619
     23          1           0        1.274912   -1.339532   -2.083811
     24          1           0        3.251848    1.333888   -0.197952
     25          1           0        3.708784   -0.069607    0.785425
     26          1           0        1.355157    1.463717    0.800369
     27          1           0        1.825526   -1.127353    2.262560
     28          1           0        0.423844   -0.067245    2.516492
     29          1           0        2.050214    0.541962    2.828786
 ---------------------------------------------------------------------
 Rotational constants (GHZ):           1.3426710           0.5895756           0.5449652
 Standard basis: 6-31G(2df,p) (6D, 7F)
 There are   457 symmetry adapted cartesian basis functions of A   symmetry.
 There are   421 symmetry adapted basis functions of A   symmetry.
   421 basis functions,   647 primitive gaussians,   457 cartesian basis functions
    47 alpha electrons       47 beta electrons
       nuclear repulsion energy       770.9643525008 Hartrees.
 NAtoms=   29 NActive=   29 NUniq=   29 SFac= 1.00D+00 NAtFMM=   60 NAOKFM=F Big=F
 Integral buffers will be    131072 words long.
 Raffenetti 2 integral format.
 Two-electron integral symmetry is turned on.
 One-electron integrals computed using PRISM.
 PrsmSu:  requested number of processors reduced to:  13 ShMem   1 Linda.
 NBasis=   421 RedAO= T EigKep=  3.98D-04  NBF=   421
 NBsUse=   421 1.00D-06 EigRej= -1.00D+00 NBFU=   421
 ExpMin= 1.61D-01 ExpMax= 5.48D+03 ExpMxC= 8.25D+02 IAcc=3 IRadAn=         5 AccDes= 0.00D+00
 Harris functional with IExCor=  402 and IRadAn=       5 diagonalized for initial guess.
 HarFok:  IExCor=  402 AccDes= 0.00D+00 IRadAn=         5 IDoV= 1 UseB2=F ITyADJ=14
 ICtDFT=  3500011 ScaDFX=  1.000000  1.000000  1.000000  1.000000
 FoFCou: FMM=F IPFlag=           0 FMFlag=      100000 FMFlg1=           0
         NFxFlg=           0 DoJE=T BraDBF=F KetDBF=T FulRan=T
         wScrn=  0.000000 ICntrl=       500 IOpCl=  0 I1Cent=   200000004 NGrid=           0
         NMat0=    1 NMatS0=      1 NMatT0=    0 NMatD0=    1 NMtDS0=    0 NMtDT0=    0
 Petite list used in FoFCou.
 Requested convergence on RMS density matrix=1.00D-08 within 128 cycles.
 Requested convergence on MAX density matrix=1.00D-06.
 Requested convergence on             energy=1.00D-06.
 No special actions if energy rises.
 Integral accuracy reduced to 1.0D-05 until final iterations.
 Initial convergence to 1.0D-05 achieved.  Increase integral accuracy.
 SCF Done:  E(RB3LYP) =  -558.384788765     A.U. after   13 cycles
            NFock= 13  Conv=0.77D-08     -V/T= 2.0075

 **********************************************************************

            Population analysis using the SCF density.

 **********************************************************************

 Orbital symmetries:
       Occupied  (A) (A) (A) (A) (A) (A) (A) (A) (A) (A) (A) (A)
                 (A) (A) (A) (A) (A) (A) (A) (A) (A) (A) (A) (A)
                 (A) (A) (A) (A) (A) (A) (A) (A) (A) (A) (A) (A)
                 (A) (A) (A) (A) (A) (A) (A) (A) (A) (A) (A)
       Virtual   (A) (A) (A) (A) (A) (A) (A) (A) (A) (A) (A) (A)
                 (A) (A) (A) (A) (A) (A) (A) (A) (A) (A) (A) (A)
                 (A) (A) (A) (A) (A) (A) (A) (A) (A) (A) (A) (A)
                 (A) (A) (A) (A) (A) (A) (A) (A) (A) (A) (A) (A)
                 (A) (A) (A) (A) (A) (A) (A) (A) (A) (A) (A) (A)
                 (A) (A) (A) (A) (A) (A) (A) (A) (A) (A) (A) (A)
                 (A) (A) (A) (A) (A) (A) (A) (A) (A) (A) (A) (A)
                 (A) (A) (A) (A) (A) (A) (A) (A) (A) (A) (A) (A)
                 (A) (A) (A) (A) (A) (A) (A) (A) (A) (A) (A) (A)
                 (A) (A) (A) (A) (A) (A) (A) (A) (A) (A) (A) (A)
                 (A) (A) (A) (A) (A) (A) (A) (A) (A) (A) (A) (A)
                 (A) (A) (A) (A) (A) (A) (A) (A) (A) (A) (A) (A)
                 (A) (A) (A) (A) (A) (A) (A) (A) (A) (A) (A) (A)
                 (A) (A) (A) (A) (A) (A) (A) (A) (A) (A) (A) (A)
                 (A) (A) (A) (A) (A) (A) (A) (A) (A) (A) (A) (A)
                 (A) (A) (A) (A) (A) (A) (A) (A) (A) (A) (A) (A)
                 (A) (A) (A) (A) (A) (A) (A) (A) (A) (A) (A) (A)
                 (A) (A) (A) (A) (A) (A) (A) (A) (A) (A) (A) (A)
                 (A) (A) (A) (A) (A) (A) (A) (A) (A) (A) (A) (A)
                 (A) (A) (A) (A) (A) (A) (A) (A) (A) (A) (A) (A)
                 (A) (A) (A) (A) (A) (A) (A) (A) (A) (A) (A) (A)
                 (A) (A) (A) (A) (A) (A) (A) (A) (A) (A) (A) (A)
                 (A) (A) (A) (A) (A) (A) (A) (A) (A) (A) (A) (A)
                 (A) (A) (A) (A) (A) (A) (A) (A) (A) (A) (A) (A)
                 (A) (A) (A) (A) (A) (A) (A) (A) (A) (A) (A) (A)
                 (A) (A) (A) (A) (A) (A) (A) (A) (A) (A) (A) (A)
                 (A) (A) (A) (A) (A) (A) (A) (A) (A) (A) (A) (A)
                 (A) (A) (A) (A) (A) (A) (A) (A) (A) (A) (A) (A)
                 (A) (A) (A) (A) (A) (A) (A) (A) (A) (A) (A) (A)
                 (A) (A) (A) (A) (A) (A) (A) (A) (A) (A) (A) (A)
                 (A) (A) (A) (A) (A) (A) (A) (A) (A) (A) (A) (A)
                 (A) (A)
 The electronic state is 1-A.
 Alpha  occ. eigenvalues --  -19.14341 -19.13005 -14.31486 -10.27598 -10.22563
 Alpha  occ. eigenvalues --  -10.22313 -10.22056 -10.20985 -10.18908 -10.18709
 Alpha  occ. eigenvalues --  -10.17961 -10.16774  -1.03706  -1.02616  -0.89498
 Alpha  occ. eigenvalues --   -0.82298  -0.77615  -0.73748  -0.70130  -0.67785
 Alpha  occ. eigenvalues --   -0.62237  -0.59652  -0.58903  -0.55329  -0.50193
 Alpha  occ. eigenvalues --   -0.50057  -0.48467  -0.46711  -0.44278  -0.44108
 Alpha  occ. eigenvalues --   -0.43396  -0.41995  -0.41251  -0.40880  -0.40115
 Alpha  occ. eigenvalues --   -0.39274  -0.37938  -0.37642  -0.37201  -0.34458
 Alpha  occ. eigenvalues --   -0.33234  -0.32788  -0.32355  -0.29893  -0.25179
 Alpha  occ. eigenvalues --   -0.24574  -0.23730
 Alpha virt. eigenvalues --   -0.04138   0.06893   0.07937   0.09202   0.09915
 Alpha virt. eigenvalues --    0.10587   0.12913   0.13340   0.13797   0.14323
 Alpha virt. eigenvalues --    0.14767   0.16396   0.17015   0.17497   0.17856
 Alpha virt. eigenvalues --    0.18545   0.19129   0.19820   0.20744   0.22069
 Alpha virt. eigenvalues --    0.23316   0.24037   0.24272   0.25396   0.26807
 Alpha virt. eigenvalues --    0.28455   0.29176   0.31295   0.31708   0.38400
 Alpha virt. eigenvalues --    0.42758   0.43493   0.45022   0.46809   0.47201
 Alpha virt. eigenvalues --    0.47772   0.49490   0.50455   0.50538   0.51685
 Alpha virt. eigenvalues --    0.53652   0.53797   0.55099   0.56995   0.58057
 Alpha virt. eigenvalues --    0.58414   0.59348   0.60977   0.62420   0.63202
 Alpha virt. eigenvalues --    0.64502   0.65638   0.66757   0.67827   0.68609
 Alpha virt. eigenvalues --    0.70188   0.70786   0.71632   0.71977   0.73188
 Alpha virt. eigenvalues --    0.74319   0.74451   0.75007   0.75952   0.76326
 Alpha virt. eigenvalues --    0.76905   0.77362   0.78988   0.79570   0.80630
 Alpha virt. eigenvalues --    0.82049   0.82465   0.83106   0.84276   0.84961
 Alpha virt. eigenvalues --    0.85260   0.86170   0.87274   0.88516   0.90208
 Alpha virt. eigenvalues --    0.90728   0.92781   0.93404   0.95432   0.97988
 Alpha virt. eigenvalues --    0.99736   1.01044   1.02872   1.04265   1.05140
 Alpha virt. eigenvalues --    1.06650   1.08347   1.09768   1.11748   1.14316
 Alpha virt. eigenvalues --    1.15570   1.16813   1.18843   1.20008   1.21594
 Alpha virt. eigenvalues --    1.24131   1.28143   1.29988   1.31536   1.31876
 Alpha virt. eigenvalues --    1.34253   1.34950   1.36961   1.37922   1.39395
 Alpha virt. eigenvalues --    1.40918   1.43107   1.43806   1.44832   1.46125
 Alpha virt. eigenvalues --    1.47680   1.48406   1.49765   1.51151   1.52828
 Alpha virt. eigenvalues --    1.54619   1.55502   1.57118   1.58323   1.59692
 Alpha virt. eigenvalues --    1.60196   1.61120   1.63201   1.65307   1.66527
 Alpha virt. eigenvalues --    1.68977   1.69586   1.71948   1.72345   1.74133
 Alpha virt. eigenvalues --    1.77174   1.77619   1.78948   1.81316   1.81756
 Alpha virt. eigenvalues --    1.84816   1.85285   1.87626   1.90025   1.90891
 Alpha virt. eigenvalues --    1.91957   1.94380   1.95553   1.95849   2.00585
 Alpha virt. eigenvalues --    2.00950   2.02870   2.07936   2.10268   2.11402
 Alpha virt. eigenvalues --    2.15751   2.19415   2.21070   2.24477   2.26917
 Alpha virt. eigenvalues --    2.28924   2.29607   2.31877   2.33204   2.34584
 Alpha virt. eigenvalues --    2.37609   2.38679   2.40328   2.42315   2.43250
 Alpha virt. eigenvalues --    2.45177   2.47368   2.48066   2.51625   2.54435
 Alpha virt. eigenvalues --    2.56248   2.57186   2.61052   2.65422   2.67186
 Alpha virt. eigenvalues --    2.69084   2.71751   2.73453   2.76322   2.76775
 Alpha virt. eigenvalues --    2.78510   2.79028   2.81572   2.82825   2.83990
 Alpha virt. eigenvalues --    2.84562   2.85721   2.86605   2.87107   2.87868
 Alpha virt. eigenvalues --    2.88569   2.90003   2.91200   2.91773   2.93576
 Alpha virt. eigenvalues --    2.94644   2.96021   2.97894   2.98989   3.01367
 Alpha virt. eigenvalues --    3.02124   3.03433   3.05458   3.06537   3.08217
 Alpha virt. eigenvalues --    3.10097   3.12677   3.14805   3.16651   3.18589
 Alpha virt. eigenvalues --    3.21041   3.22078   3.24399   3.26258   3.26970
 Alpha virt. eigenvalues --    3.28118   3.33453   3.34759   3.35073   3.35998
 Alpha virt. eigenvalues --    3.38558   3.38989   3.39795   3.41642   3.43291
 Alpha virt. eigenvalues --    3.46192   3.47411   3.48805   3.50651   3.53667
 Alpha virt. eigenvalues --    3.54398   3.57105   3.58856   3.60294   3.61673
 Alpha virt. eigenvalues --    3.63303   3.64368   3.65969   3.68582   3.69432
 Alpha virt. eigenvalues --    3.72572   3.77598   3.78487   3.81266   3.83094
 Alpha virt. eigenvalues --    3.85203   3.86443   3.89916   3.92228   3.93880
 Alpha virt. eigenvalues --    3.95778   3.99635   4.00535   4.03813   4.07297
 Alpha virt. eigenvalues --    4.09455   4.13076   4.15253   4.16433   4.19551
 Alpha virt. eigenvalues --    4.21493   4.26261   4.26762   4.29478   4.30654
 Alpha virt. eigenvalues --    4.31410   4.32129   4.35924   4.37760   4.38935
 Alpha virt. eigenvalues --    4.40713   4.42388   4.43983   4.45350   4.46499
 Alpha virt. eigenvalues --    4.46672   4.48083   4.49043   4.51070   4.52048
 Alpha virt. eigenvalues --    4.53381   4.53846   4.55129   4.56077   4.56768
 Alpha virt. eigenvalues --    4.57280   4.59922   4.60733   4.62926   4.63530
 Alpha virt. eigenvalues --    4.65237   4.66274   4.68008   4.69118   4.70816
 Alpha virt. eigenvalues --    4.72613   4.73029   4.74220   4.75581   4.77158
 Alpha virt. eigenvalues --    4.77481   4.78433   4.80065   4.80950   4.81348
 Alpha virt. eigenvalues --    4.82180   4.83705   4.85434   4.87342   4.88312
 Alpha virt. eigenvalues --    4.89157   4.90466   4.92871   4.94510   4.97441
 Alpha virt. eigenvalues --    4.98479   5.01351   5.02129   5.03449   5.06903
 Alpha virt. eigenvalues --    5.09674   5.11369   5.12470   5.15993   5.18241
 Alpha virt. eigenvalues --    5.23393   5.24889   5.28004   5.29908   5.34651
 Alpha virt. eigenvalues --    5.35147   5.38508   5.41392   5.46223   5.47545
 Alpha virt. eigenvalues --    5.48796   5.53916   5.54572   5.59564   5.61405
 Alpha virt. eigenvalues --    5.63111   5.66648   5.75178   5.79220   5.84301
 Alpha virt. eigenvalues --    5.96916   5.98818   6.04456   6.11493   6.22855
 Alpha virt. eigenvalues --    6.28207   6.43108   6.53925   6.82414   7.01451
 Alpha virt. eigenvalues --    7.22590  10.50976  11.00578  11.26532  11.45896
 Alpha virt. eigenvalues --   11.66576  11.69536  12.07423  12.32102  12.81153
 Alpha virt. eigenvalues --   12.97726  13.06956  13.33996  13.75322
          Condensed to atoms (all electrons):
               1          2          3          4          5          6
     1  C    5.069249   0.414233  -0.068861  -0.044312   0.002374  -0.005241
     2  C    0.414233   4.677855   0.385337   0.409509  -0.027155  -0.009132
     3  N   -0.068861   0.385337   6.558708  -0.027864   0.000634   0.000022
     4  C   -0.044312   0.409509  -0.027864   5.139116   0.290341  -0.052235
     5  C    0.002374  -0.027155   0.000634   0.290341   4.554538   0.698403
     6  O   -0.005241  -0.009132   0.000022  -0.052235   0.698403   7.679962
     7  C    0.003410  -0.024077  -0.012419   0.316967  -0.003099   0.001848
     8  C   -0.000170   0.001691   0.000242  -0.017832  -0.001137   0.000032
     9  O    0.000000  -0.000036   0.000005   0.001503  -0.000004   0.000000
    10  C    0.000002  -0.000008  -0.000009   0.003241   0.000296  -0.000007
    11  C    0.000084  -0.001170   0.000788  -0.031567  -0.011189   0.000085
    12  C    0.000031  -0.001090   0.000086   0.004591   0.000376  -0.000010
    13  H    0.355452  -0.024111  -0.003385   0.004034   0.000113   0.000605
    14  H    0.368807  -0.024480  -0.001599  -0.006587  -0.000855   0.001097
    15  H    0.346700  -0.017003   0.006292  -0.003645   0.001368   0.010354
    16  H   -0.051082   0.359621  -0.025633  -0.040571  -0.002956   0.000023
    17  H   -0.002869  -0.057934   0.340997  -0.004005  -0.000090   0.000002
    18  H   -0.002579  -0.050624   0.344911   0.005169  -0.000158   0.000004
    19  H   -0.005699  -0.025435  -0.007234   0.331751  -0.017526  -0.001557
    20  H    0.000332   0.000124  -0.000091  -0.097255   0.360351  -0.042759
    21  H    0.000863  -0.006399   0.018552  -0.033695   0.002499  -0.000058
    22  H    0.000011   0.000368  -0.000035   0.002804   0.000966  -0.000066
    23  H    0.000010  -0.000338   0.000590  -0.002281   0.000039   0.000001
    24  H    0.000000   0.000003  -0.000000   0.000652  -0.000048  -0.000000
    25  H   -0.000000   0.000000   0.000000  -0.000256   0.000003   0.000000
    26  H   -0.000009  -0.000109  -0.000018  -0.014421  -0.003747   0.000008
    27  H   -0.000001   0.000043  -0.000051  -0.000136  -0.000006   0.000000
    28  H   -0.000059  -0.000084  -0.000103  -0.001381   0.000645  -0.000013
    29  H   -0.000000   0.000022  -0.000001  -0.000065  -0.000029   0.000000
               7          8          9         10         11         12
     1  C    0.003410  -0.000170   0.000000   0.000002   0.000084   0.000031
     2  C   -0.024077   0.001691  -0.000036  -0.000008  -0.001170  -0.001090
     3  N   -0.012419   0.000242   0.000005  -0.000009   0.000788   0.000086
     4  C    0.316967  -0.017832   0.001503   0.003241  -0.031567   0.004591
     5  C   -0.003099  -0.001137  -0.000004   0.000296  -0.011189   0.000376
     6  O    0.001848   0.000032   0.000000  -0.000007   0.000085  -0.000010
     7  C    4.852957   0.349350  -0.053335  -0.048330   0.445877  -0.026830
     8  C    0.349350   4.917918   0.383872  -0.135424  -0.048349   0.004689
     9  O   -0.053335   0.383872   7.686821   0.392700  -0.050750   0.001599
    10  C   -0.048330  -0.135424   0.392700   4.849922   0.368566  -0.025665
    11  C    0.445877  -0.048349  -0.050750   0.368566   4.760078   0.389238
    12  C   -0.026830   0.004689   0.001599  -0.025665   0.389238   5.030303
    13  H   -0.000086   0.000001  -0.000000  -0.000000   0.000001  -0.000000
    14  H    0.000128  -0.000001   0.000000   0.000000  -0.000003  -0.000001
    15  H   -0.000131  -0.000000  -0.000000   0.000000  -0.000017  -0.000001
    16  H   -0.004901   0.000086   0.000000  -0.000022  -0.000351   0.000020
    17  H   -0.000441   0.000015  -0.000000   0.000001  -0.000030  -0.000006
    18  H    0.000372   0.000006  -0.000000   0.000000  -0.000022  -0.000001
    19  H   -0.043943  -0.013387   0.000106  -0.000134   0.002860  -0.000061
    20  H   -0.000681  -0.000339  -0.000036  -0.000116  -0.004930  -0.000121
    21  H    0.344321  -0.036931   0.003110   0.003885  -0.040666  -0.012462
    22  H   -0.045662   0.350713  -0.035113   0.003509  -0.010752   0.000035
    23  H   -0.007077   0.350326  -0.013626   0.006408   0.005375  -0.000194
    24  H    0.001553   0.005954  -0.036020   0.342532  -0.030879   0.005783
    25  H   -0.000262   0.005472  -0.019518   0.363784  -0.024684  -0.011966
    26  H   -0.035166   0.004479   0.002659  -0.034650   0.350801  -0.057365
    27  H   -0.004802   0.000509   0.000445  -0.005977  -0.026913   0.374564
    28  H   -0.006048  -0.000074  -0.000090   0.004116  -0.020645   0.369364
    29  H    0.004011  -0.000256   0.000026  -0.003813  -0.022137   0.367767
              13         14         15         16         17         18
     1  C    0.355452   0.368807   0.346700  -0.051082  -0.002869  -0.002579
     2  C   -0.024111  -0.024480  -0.017003   0.359621  -0.057934  -0.050624
     3  N   -0.003385  -0.001599   0.006292  -0.025633   0.340997   0.344911
     4  C    0.004034  -0.006587  -0.003645  -0.040571  -0.004005   0.005169
     5  C    0.000113  -0.000855   0.001368  -0.002956  -0.000090  -0.000158
     6  O    0.000605   0.001097   0.010354   0.000023   0.000002   0.000004
     7  C   -0.000086   0.000128  -0.000131  -0.004901  -0.000441   0.000372
     8  C    0.000001  -0.000001  -0.000000   0.000086   0.000015   0.000006
     9  O   -0.000000   0.000000  -0.000000   0.000000  -0.000000  -0.000000
    10  C   -0.000000   0.000000   0.000000  -0.000022   0.000001   0.000000
    11  C    0.000001  -0.000003  -0.000017  -0.000351  -0.000030  -0.000022
    12  C   -0.000000  -0.000001  -0.000001   0.000020  -0.000006  -0.000001
    13  H    0.632745  -0.033747  -0.029282  -0.002996   0.000238   0.006036
    14  H   -0.033747   0.597451  -0.024744   0.005714   0.005535   0.000005
    15  H   -0.029282  -0.024744   0.573812  -0.000084   0.000016  -0.000013
    16  H   -0.002996   0.005714  -0.000084   0.655106   0.006830  -0.003615
    17  H    0.000238   0.005535   0.000016   0.006830   0.517497  -0.031685
    18  H    0.006036   0.000005  -0.000013  -0.003615  -0.031685   0.504175
    19  H    0.000060   0.005037   0.000354   0.006313   0.005324  -0.000009
    20  H    0.000025   0.000008   0.000316   0.000160   0.000002   0.000004
    21  H   -0.000023  -0.000005  -0.000040   0.000307  -0.000839  -0.000712
    22  H   -0.000000   0.000000   0.000000   0.000004  -0.000004   0.000000
    23  H   -0.000000  -0.000001  -0.000000   0.000001   0.000084  -0.000013
    24  H    0.000000   0.000000   0.000000   0.000000  -0.000000  -0.000000
    25  H    0.000000   0.000000  -0.000000   0.000001   0.000000  -0.000000
    26  H    0.000000   0.000000   0.000002   0.000117   0.000001   0.000001
    27  H   -0.000000   0.000000   0.000000   0.000097   0.000001   0.000000
    28  H   -0.000000   0.000002   0.000012   0.005309   0.000005   0.000012
    29  H    0.000000   0.000000   0.000000  -0.000003   0.000000   0.000000
              19         20         21         22         23         24
     1  C   -0.005699   0.000332   0.000863   0.000011   0.000010   0.000000
     2  C   -0.025435   0.000124  -0.006399   0.000368  -0.000338   0.000003
     3  N   -0.007234  -0.000091   0.018552  -0.000035   0.000590  -0.000000
     4  C    0.331751  -0.097255  -0.033695   0.002804  -0.002281   0.000652
     5  C   -0.017526   0.360351   0.002499   0.000966   0.000039  -0.000048
     6  O   -0.001557  -0.042759  -0.000058  -0.000066   0.000001  -0.000000
     7  C   -0.043943  -0.000681   0.344321  -0.045662  -0.007077   0.001553
     8  C   -0.013387  -0.000339  -0.036931   0.350713   0.350326   0.005954
     9  O    0.000106  -0.000036   0.003110  -0.035113  -0.013626  -0.036020
    10  C   -0.000134  -0.000116   0.003885   0.003509   0.006408   0.342532
    11  C    0.002860  -0.004930  -0.040666  -0.010752   0.005375  -0.030879
    12  C   -0.000061  -0.000121  -0.012462   0.000035  -0.000194   0.005783
    13  H    0.000060   0.000025  -0.000023  -0.000000  -0.000000   0.000000
    14  H    0.005037   0.000008  -0.000005   0.000000  -0.000001   0.000000
    15  H    0.000354   0.000316  -0.000040   0.000000  -0.000000   0.000000
    16  H    0.006313   0.000160   0.000307   0.000004   0.000001   0.000000
    17  H    0.005324   0.000002  -0.000839  -0.000004   0.000084  -0.000000
    18  H   -0.000009   0.000004  -0.000712   0.000000  -0.000013  -0.000000
    19  H    0.640966   0.006128   0.002545   0.003361   0.002148   0.000026
    20  H    0.006128   0.668731  -0.000168   0.000376   0.000003   0.000221
    21  H    0.002545  -0.000168   0.632823   0.006745  -0.009489  -0.000115
    22  H    0.003361   0.000376   0.006745   0.690982  -0.054422   0.005356
    23  H    0.002148   0.000003  -0.009489  -0.054422   0.609736  -0.000417
    24  H    0.000026   0.000221  -0.000115   0.005356  -0.000417   0.691266
    25  H    0.000003   0.000010   0.000093  -0.000496  -0.000091  -0.056640
    26  H    0.000106   0.008760   0.006373   0.001204  -0.000228  -0.013507
    27  H   -0.000003   0.000004   0.005852   0.000009  -0.000018  -0.000019
    28  H   -0.000034   0.000025   0.000231  -0.000012  -0.000000  -0.000297
    29  H    0.000006   0.000045   0.000181   0.000011   0.000004   0.000310
              25         26         27         28         29
     1  C   -0.000000  -0.000009  -0.000001  -0.000059  -0.000000
     2  C    0.000000  -0.000109   0.000043  -0.000084   0.000022
     3  N    0.000000  -0.000018  -0.000051  -0.000103  -0.000001
     4  C   -0.000256  -0.014421  -0.000136  -0.001381  -0.000065
     5  C    0.000003  -0.003747  -0.000006   0.000645  -0.000029
     6  O    0.000000   0.000008   0.000000  -0.000013   0.000000
     7  C   -0.000262  -0.035166  -0.004802  -0.006048   0.004011
     8  C    0.005472   0.004479   0.000509  -0.000074  -0.000256
     9  O   -0.019518   0.002659   0.000445  -0.000090   0.000026
    10  C    0.363784  -0.034650  -0.005977   0.004116  -0.003813
    11  C   -0.024684   0.350801  -0.026913  -0.020645  -0.022137
    12  C   -0.011966  -0.057365   0.374564   0.369364   0.367767
    13  H    0.000000   0.000000  -0.000000  -0.000000   0.000000
    14  H    0.000000   0.000000   0.000000   0.000002   0.000000
    15  H   -0.000000   0.000002   0.000000   0.000012   0.000000
    16  H    0.000001   0.000117   0.000097   0.005309  -0.000003
    17  H    0.000000   0.000001   0.000001   0.000005   0.000000
    18  H   -0.000000   0.000001   0.000000   0.000012   0.000000
    19  H    0.000003   0.000106  -0.000003  -0.000034   0.000006
    20  H    0.000010   0.008760   0.000004   0.000025   0.000045
    21  H    0.000093   0.006373   0.005852   0.000231   0.000181
    22  H   -0.000496   0.001204   0.000009  -0.000012   0.000011
    23  H   -0.000091  -0.000228  -0.000018  -0.000000   0.000004
    24  H   -0.056640  -0.013507  -0.000019  -0.000297   0.000310
    25  H    0.627454   0.006659   0.004244   0.000087   0.001325
    26  H    0.006659   0.701946   0.006554  -0.001810  -0.004142
    27  H    0.004244   0.006554   0.585468  -0.032282  -0.031115
    28  H    0.000087  -0.001810  -0.032282   0.597858  -0.031585
    29  H    0.001325  -0.004142  -0.031115  -0.031585   0.607377
 Mulliken charges:
               1
     1  C   -0.380673
     2  C    0.020379
     3  N   -0.509859
     4  C   -0.131571
     5  C    0.155053
     6  O   -0.281370
     7  C   -0.003502
     8  C   -0.121455
     9  O   -0.264320
    10  C   -0.084806
    11  C    0.001298
    12  C   -0.412675
    13  H    0.094320
    14  H    0.108239
    15  H    0.135734
    16  H    0.092505
    17  H    0.221357
    18  H    0.228736
    19  H    0.107928
    20  H    0.100872
    21  H    0.113224
    22  H    0.080106
    23  H    0.113469
    24  H    0.084285
    25  H    0.104776
    26  H    0.075502
    27  H    0.123534
    28  H    0.116852
    29  H    0.112060
 Sum of Mulliken charges =  -0.00000
 Mulliken charges with hydrogens summed into heavy atoms:
               1
     1  C   -0.042380
     2  C    0.112884
     3  N   -0.059766
     4  C   -0.023642
     5  C    0.255925
     6  O   -0.281370
     7  C    0.109722
     8  C    0.072120
     9  O   -0.264320
    10  C    0.104256
    11  C    0.076800
    12  C   -0.060229
 Electronic spatial extent (au):  <R**2>=           2377.3637
 Charge=             -0.0000 electrons
 Dipole moment (field-independent basis, Debye):
    X=             -0.6229    Y=             -0.9760    Z=              1.0064  Tot=              1.5340
 Quadrupole moment (field-independent basis, Debye-Ang):
   XX=            -80.0639   YY=            -78.4109   ZZ=            -71.8211
   XY=             11.5413   XZ=              3.3683   YZ=              1.6086
 Traceless Quadrupole moment (field-independent basis, Debye-Ang):
   XX=             -3.2986   YY=             -1.6456   ZZ=              4.9442
   XY=             11.5413   XZ=              3.3683   YZ=              1.6086
 Octapole moment (field-independent basis, Debye-Ang**2):
  XXX=            -14.8873  YYY=            -12.4423  ZZZ=             -9.8132  XYY=              7.0815
  XXY=            -17.0066  XXZ=             18.3346  XZZ=             -7.7036  YZZ=             -2.4779
  YYZ=              0.2204  XYZ=             -5.3673
 Hexadecapole moment (field-independent basis, Debye-Ang**3):
 XXXX=          -1978.8160 YYYY=           -655.6518 ZZZZ=           -525.1902 XXXY=             72.6807
 XXXZ=             36.7673 YYYX=             52.9568 YYYZ=              8.4799 ZZZX=             -2.4488
 ZZZY=              5.2835 XXYY=           -425.3771 XXZZ=           -409.8834 YYZZ=           -180.8032
 XXYZ=             -3.7210 YYXZ=            -10.1021 ZZXY=              5.3863
 N-N= 7.709643525008D+02 E-N=-2.842159672800D+03  KE= 5.542378162314D+02
 PrsmSu:  requested number of processors reduced to:  13 ShMem   1 Linda.
 Calling FoFJK, ICntrl=      2127 FMM=F ISym2X=0 I1Cent= 0 IOpClX= 0 NMat=1 NMatS=1 NMatT=0.
 ***** Axes restored to original set *****
 -------------------------------------------------------------------
 Center     Atomic                   Forces (Hartrees/Bohr)
 Number     Number              X              Y              Z
 -------------------------------------------------------------------
      1        6          -0.009499217    0.003750517   -0.015208242
      2        6          -0.017758024    0.001718049    0.017134247
      3        7           0.014660142   -0.001268259    0.002422292
      4        6           0.006799167    0.006397324   -0.002647033
      5        6          -0.044141851   -0.007125261   -0.001490123
      6        8           0.034550885    0.001969929    0.009553578
      7        6          -0.005144211   -0.003583429    0.005553164
      8        6           0.014006226   -0.003991789   -0.004433015
      9        8           0.002013686    0.005862270    0.008740614
     10        6           0.002496853   -0.018682852    0.004072834
     11        6           0.000121957    0.012475972   -0.011456890
     12        6           0.002459419    0.004882830   -0.003313333
     13        1           0.003626682    0.000778157    0.004576095
     14        1          -0.000374739    0.000743613   -0.000655588
     15        1          -0.003131809   -0.003435034    0.001703799
     16        1           0.002870882   -0.000171194    0.000143603
     17        1          -0.000287862    0.001767156   -0.003715818
     18        1           0.001734700   -0.003517499   -0.004022339
     19        1          -0.002546944    0.001897696    0.001004212
     20        1           0.008527019   -0.000226070   -0.003445995
     21        1          -0.007860107    0.000853839   -0.002803928
     22        1          -0.005833753   -0.003929324   -0.001668155
     23        1           0.001314105   -0.001558340   -0.001774222
     24        1           0.003428786    0.001085630   -0.004968053
     25        1           0.003361152   -0.000474386    0.004522532
     26        1          -0.009067375   -0.001727649    0.000959238
     27        1           0.000542180    0.001237197    0.001248456
     28        1           0.001345951    0.001400966   -0.000051670
     29        1           0.001786099    0.002869940    0.000019743
 -------------------------------------------------------------------
 Cartesian Forces:  Max     0.044141851 RMS     0.008433642

 GradGradGradGradGradGradGradGradGradGradGradGradGradGradGradGradGradGrad
 Berny optimization.
 FormGI is forming the generalized inverse of G from B-inverse, IUseBI=4.
 Internal  Forces:  Max     0.035575873 RMS     0.005072464
 Search for a local minimum.
 Step number   1 out of a maximum of  174
 All quantities printed in internal units (Hartrees-Bohrs-Radians)
 Mixed Optimization -- RFO/linear search
 Second derivative matrix not updated -- first step.
 ITU=  0
     Eigenvalues ---    0.00230   0.00230   0.00318   0.00320   0.00408
     Eigenvalues ---    0.00522   0.00531   0.00701   0.01020   0.02749
     Eigenvalues ---    0.03063   0.03387   0.03890   0.03967   0.04320
     Eigenvalues ---    0.04364   0.04560   0.04597   0.04759   0.04902
     Eigenvalues ---    0.05443   0.05445   0.05555   0.05557   0.05750
     Eigenvalues ---    0.05793   0.05820   0.06096   0.06123   0.06263
     Eigenvalues ---    0.09790   0.11159   0.11227   0.11443   0.12461
     Eigenvalues ---    0.15342   0.16000   0.16000   0.16000   0.16000
     Eigenvalues ---    0.16000   0.16000   0.16000   0.16000   0.16000
     Eigenvalues ---    0.16819   0.17163   0.17612   0.18413   0.18750
     Eigenvalues ---    0.21545   0.22001   0.27109   0.27467   0.28215
     Eigenvalues ---    0.28323   0.29069   0.29694   0.30174   0.30516
     Eigenvalues ---    0.33656   0.33661   0.33922   0.34099   0.34171
     Eigenvalues ---    0.34176   0.34187   0.34337   0.34361   0.34416
     Eigenvalues ---    0.34461   0.34606   0.34636   0.34902   0.35157
     Eigenvalues ---    0.35505   0.38525   0.39364   0.44157   0.44170
     Eigenvalues ---    0.90151
 RFO step:  Lambda=-2.10251088D-02 EMin= 2.30000000D-03
 Linear search not attempted -- first point.
 Iteration  1 RMS(Cart)=  0.12428257 RMS(Int)=  0.00493568
 Iteration  2 RMS(Cart)=  0.00954112 RMS(Int)=  0.00071821
 Iteration  3 RMS(Cart)=  0.00004745 RMS(Int)=  0.00071785
 Iteration  4 RMS(Cart)=  0.00000016 RMS(Int)=  0.00071785
 Variable       Old X    -DE/DX   Delta X   Delta X   Delta X     New X
                                 (Linear)    (Quad)   (Total)
    R1        2.88579   0.00892   0.00000   0.02804   0.02804   2.91383
    R2        2.06634   0.00162   0.00000   0.00443   0.00443   2.07078
    R3        2.07042  -0.00077   0.00000  -0.00213  -0.00213   2.06828
    R4        2.06320  -0.00033   0.00000  -0.00089  -0.00089   2.06231
    R5        2.78721   0.00056   0.00000   0.00150   0.00150   2.78871
    R6        2.93319   0.00401   0.00000   0.01356   0.01356   2.94675
    R7        2.07035   0.00073   0.00000   0.00201   0.00201   2.07236
    R8        1.92967  -0.00335   0.00000  -0.00725  -0.00725   1.92242
    R9        1.92952  -0.00522   0.00000  -0.01128  -0.01128   1.91824
   R10        2.89860  -0.00272   0.00000  -0.00873  -0.00873   2.88987
   R11        2.94129   0.00518   0.00000   0.01772   0.01772   2.95901
   R12        2.07906  -0.00010   0.00000  -0.00027  -0.00027   2.07879
   R13        2.32863  -0.03558   0.00000  -0.03856  -0.03856   2.29007
   R14        2.05834   0.00769   0.00000   0.02079   0.02079   2.07913
   R15        2.87302   0.01075   0.00000   0.03068   0.03075   2.90377
   R16        2.88634   0.01423   0.00000   0.04712   0.04749   2.93383
   R17        2.07915  -0.00426   0.00000  -0.01193  -0.01193   2.06722
   R18        2.70335  -0.00408   0.00000  -0.01639  -0.01668   2.68667
   R19        2.06766   0.00664   0.00000   0.01822   0.01822   2.08588
   R20        2.07163  -0.00150   0.00000  -0.00413  -0.00413   2.06750
   R21        2.70067  -0.00300   0.00000  -0.00546  -0.00577   2.69490
   R22        2.87083   0.01780   0.00000   0.06163   0.06174   2.93256
   R23        2.07463   0.00254   0.00000   0.00706   0.00706   2.08169
   R24        2.06270   0.00205   0.00000   0.00558   0.00558   2.06827
   R25        2.86946   0.01158   0.00000   0.03551   0.03551   2.90497
   R26        2.04863   0.00439   0.00000   0.01166   0.01166   2.06029
   R27        2.06559   0.00160   0.00000   0.00437   0.00437   2.06996
   R28        2.07015  -0.00036   0.00000  -0.00101  -0.00101   2.06915
   R29        2.06726   0.00114   0.00000   0.00312   0.00312   2.07037
    A1        1.94548  -0.00685   0.00000  -0.03872  -0.03889   1.90659
    A2        1.93636   0.00023   0.00000  -0.00571  -0.00609   1.93027
    A3        1.94424   0.00649   0.00000   0.04364   0.04380   1.98804
    A4        1.89946   0.00113   0.00000  -0.00817  -0.00889   1.89057
    A5        1.84095   0.00243   0.00000   0.02687   0.02723   1.86818
    A6        1.89406  -0.00338   0.00000  -0.01705  -0.01709   1.87697
    A7        1.87888   0.01217   0.00000   0.08332   0.08450   1.96338
    A8        1.97368   0.00595   0.00000   0.04728   0.04848   2.02216
    A9        1.89595  -0.00398   0.00000  -0.00286  -0.00174   1.89421
   A10        1.92618  -0.01422   0.00000  -0.07086  -0.07444   1.85173
   A11        1.87952  -0.00078   0.00000  -0.03361  -0.03636   1.84317
   A12        1.90704   0.00077   0.00000  -0.02518  -0.02762   1.87942
   A13        1.92055  -0.00355   0.00000  -0.02167  -0.02179   1.89876
   A14        1.91525  -0.00240   0.00000  -0.01532  -0.01545   1.89980
   A15        1.83904   0.00220   0.00000   0.00784   0.00756   1.84660
   A16        1.94069   0.00530   0.00000   0.04283   0.04244   1.98313
   A17        1.93681  -0.00664   0.00000  -0.01877  -0.02070   1.91611
   A18        1.87864  -0.00050   0.00000  -0.02777  -0.02788   1.85076
   A19        1.99454   0.00461   0.00000   0.04117   0.04077   2.03531
   A20        1.82550  -0.00365   0.00000  -0.02894  -0.02807   1.79743
   A21        1.87967   0.00066   0.00000  -0.01578  -0.01608   1.86359
   A22        2.17947  -0.00338   0.00000  -0.01428  -0.01476   2.16471
   A23        2.07813  -0.00352   0.00000  -0.02215  -0.02263   2.05550
   A24        2.02530   0.00686   0.00000   0.03519   0.03471   2.06002
   A25        1.97286  -0.00063   0.00000  -0.00342  -0.00523   1.96763
   A26        2.06036   0.01038   0.00000   0.07660   0.07678   2.13714
   A27        1.91658  -0.00658   0.00000  -0.06911  -0.06820   1.84838
   A28        1.80201  -0.00472   0.00000  -0.00848  -0.00896   1.79305
   A29        1.82628   0.00273   0.00000   0.02221   0.02162   1.84789
   A30        1.86788  -0.00170   0.00000  -0.01962  -0.01859   1.84929
   A31        1.83658   0.00555   0.00000   0.01351   0.01362   1.85020
   A32        1.96527  -0.00199   0.00000  -0.00799  -0.00820   1.95707
   A33        1.96004  -0.00037   0.00000   0.00223   0.00207   1.96211
   A34        1.90476   0.00251   0.00000   0.03046   0.03027   1.93502
   A35        1.89864  -0.00575   0.00000  -0.03059  -0.03048   1.86817
   A36        1.89640   0.00007   0.00000  -0.00698  -0.00685   1.88955
   A37        1.87965   0.00086   0.00000  -0.00884  -0.00949   1.87016
   A38        1.87828   0.00216   0.00000   0.01328   0.01285   1.89113
   A39        1.86615   0.00079   0.00000   0.03635   0.03539   1.90154
   A40        1.93367  -0.00362   0.00000  -0.05159  -0.05153   1.88214
   A41        1.90570   0.00135   0.00000   0.02369   0.02304   1.92874
   A42        1.98764   0.00060   0.00000  -0.00757  -0.00788   1.97976
   A43        1.88860  -0.00119   0.00000  -0.01015  -0.00977   1.87883
   A44        1.82920  -0.00440   0.00000  -0.02745  -0.02692   1.80228
   A45        1.96530   0.00313   0.00000   0.01422   0.01328   1.97858
   A46        2.00879  -0.00163   0.00000  -0.02885  -0.02863   1.98016
   A47        2.01353  -0.00036   0.00000  -0.02152  -0.02175   1.99178
   A48        1.81583   0.00265   0.00000   0.03951   0.03925   1.85508
   A49        1.83137   0.00054   0.00000   0.02371   0.02409   1.85547
   A50        1.95049  -0.00056   0.00000  -0.00578  -0.00574   1.94475
   A51        1.92919   0.00206   0.00000   0.01186   0.01173   1.94092
   A52        1.91777   0.00394   0.00000   0.02389   0.02377   1.94154
   A53        1.89292  -0.00152   0.00000  -0.01239  -0.01236   1.88056
   A54        1.89694  -0.00203   0.00000  -0.01231  -0.01227   1.88467
   A55        1.87458  -0.00208   0.00000  -0.00611  -0.00640   1.86818
    D1        0.97035   0.00095   0.00000  -0.02833  -0.02920   0.94115
    D2        3.10275  -0.00461   0.00000  -0.02878  -0.02723   3.07551
    D3       -1.06025  -0.00255   0.00000  -0.03174  -0.03155  -1.09179
    D4       -1.14953   0.00407   0.00000   0.01276   0.01142  -1.13811
    D5        0.98287  -0.00150   0.00000   0.01231   0.01338   0.99625
    D6        3.10306   0.00057   0.00000   0.00935   0.00906   3.11213
    D7        3.02150   0.00377   0.00000   0.00860   0.00734   3.02884
    D8       -1.12929  -0.00179   0.00000   0.00815   0.00930  -1.11998
    D9        0.99091   0.00028   0.00000   0.00519   0.00499   0.99589
   D10        1.04711   0.00093   0.00000  -0.00513  -0.00567   1.04145
   D11       -0.96883   0.00169   0.00000   0.00659   0.00590  -0.96293
   D12       -1.11441  -0.00550   0.00000  -0.07397  -0.07209  -1.18650
   D13       -3.13035  -0.00474   0.00000  -0.06225  -0.06052   3.09231
   D14        3.08844   0.00219   0.00000   0.01737   0.01626   3.10470
   D15        1.07251   0.00295   0.00000   0.02909   0.02782   1.10032
   D16        0.91250  -0.00477   0.00000  -0.02095  -0.02033   0.89217
   D17       -3.13001   0.00031   0.00000   0.05316   0.05345  -3.07656
   D18       -1.07730  -0.00290   0.00000   0.00697   0.00784  -1.06946
   D19        3.01821   0.00477   0.00000   0.06771   0.06641   3.08462
   D20       -1.02430   0.00985   0.00000   0.14181   0.14019  -0.88410
   D21        1.02841   0.00664   0.00000   0.09562   0.09458   1.12299
   D22       -1.20144  -0.00420   0.00000  -0.03092  -0.03018  -1.23161
   D23        1.03924   0.00088   0.00000   0.04318   0.04361   1.08285
   D24        3.09195  -0.00233   0.00000  -0.00300  -0.00200   3.08995
   D25       -1.02596  -0.00155   0.00000  -0.02967  -0.02877  -1.05473
   D26        2.14221  -0.00014   0.00000   0.02820   0.02908   2.17129
   D27        3.04792  -0.00074   0.00000  -0.07404  -0.07494   2.97298
   D28       -0.06709   0.00067   0.00000  -0.01616  -0.01709  -0.08418
   D29        0.99684  -0.00164   0.00000  -0.05794  -0.05791   0.93893
   D30       -2.11817  -0.00023   0.00000  -0.00007  -0.00006  -2.11823
   D31        2.40252  -0.00280   0.00000  -0.01626  -0.01627   2.38625
   D32       -1.77616  -0.00152   0.00000   0.03092   0.03198  -1.74417
   D33        0.37046  -0.00153   0.00000   0.00331   0.00290   0.37336
   D34       -1.66936   0.00257   0.00000   0.05985   0.05954  -1.60982
   D35        0.43515   0.00385   0.00000   0.10703   0.10779   0.54295
   D36        2.58177   0.00384   0.00000   0.07942   0.07871   2.66048
   D37        0.35044   0.00113   0.00000   0.03726   0.03691   0.38734
   D38        2.45495   0.00240   0.00000   0.08444   0.08516   2.54011
   D39       -1.68162   0.00240   0.00000   0.05683   0.05608  -1.62554
   D40        2.79738   0.00988   0.00000   0.10777   0.10755   2.90494
   D41        0.72445   0.00445   0.00000   0.06679   0.06663   0.79108
   D42       -1.42304   0.00615   0.00000   0.08041   0.08026  -1.34278
   D43        0.55137   0.00065   0.00000   0.01950   0.01972   0.57109
   D44       -1.52157  -0.00478   0.00000  -0.02148  -0.02120  -1.54277
   D45        2.61413  -0.00308   0.00000  -0.00787  -0.00757   2.60656
   D46       -1.40094   0.00330   0.00000   0.03619   0.03586  -1.36507
   D47        2.80932  -0.00213   0.00000  -0.00479  -0.00506   2.80425
   D48        0.66183  -0.00043   0.00000   0.00882   0.00857   0.67040
   D49       -2.49980   0.00007   0.00000  -0.02945  -0.02990  -2.52970
   D50        1.58148   0.00167   0.00000   0.00800   0.00779   1.58928
   D51       -0.51654  -0.00029   0.00000  -0.01310  -0.01290  -0.52944
   D52       -0.30909   0.00231   0.00000   0.01036   0.01034  -0.29874
   D53       -2.51099   0.00391   0.00000   0.04782   0.04804  -2.46295
   D54        1.67417   0.00195   0.00000   0.02671   0.02735   1.70151
   D55        1.61244   0.00278   0.00000   0.02434   0.02393   1.63637
   D56       -0.58946   0.00437   0.00000   0.06179   0.06163  -0.52783
   D57       -2.68749   0.00242   0.00000   0.04069   0.04093  -2.64655
   D58       -0.59592  -0.00285   0.00000  -0.03492  -0.03542  -0.63134
   D59        1.51711  -0.00073   0.00000  -0.02064  -0.02043   1.49668
   D60       -2.69959  -0.00252   0.00000  -0.02924  -0.02954  -2.72912
   D61        0.39339   0.00165   0.00000   0.03515   0.03550   0.42889
   D62       -1.65212  -0.00141   0.00000  -0.01780  -0.01824  -1.67035
   D63        2.57675   0.00152   0.00000   0.00099   0.00159   2.57835
   D64       -0.03336  -0.00103   0.00000  -0.02389  -0.02408  -0.05744
   D65        2.13822  -0.00058   0.00000  -0.04030  -0.04014   2.09808
   D66       -2.14901   0.00158   0.00000   0.00290   0.00304  -2.14597
   D67        1.98624   0.00176   0.00000   0.03846   0.03853   2.02476
   D68       -2.12537   0.00222   0.00000   0.02205   0.02247  -2.10290
   D69       -0.12941   0.00438   0.00000   0.06526   0.06565  -0.06376
   D70       -2.18404   0.00162   0.00000   0.03754   0.03733  -2.14671
   D71       -0.01246   0.00207   0.00000   0.02113   0.02127   0.00881
   D72        1.98350   0.00423   0.00000   0.06434   0.06445   2.04795
   D73        1.12458  -0.00189   0.00000  -0.02638  -0.02639   1.09818
   D74       -0.98544  -0.00100   0.00000  -0.01490  -0.01483  -1.00027
   D75       -3.05133  -0.00215   0.00000  -0.02948  -0.02958  -3.08091
   D76       -0.97413   0.00181   0.00000   0.01551   0.01533  -0.95880
   D77       -3.08414   0.00270   0.00000   0.02698   0.02689  -3.05725
   D78        1.13315   0.00155   0.00000   0.01241   0.01214   1.14530
   D79       -2.96112  -0.00158   0.00000  -0.03680  -0.03660  -2.99772
   D80        1.21206  -0.00069   0.00000  -0.02532  -0.02504   1.18701
   D81       -0.85383  -0.00184   0.00000  -0.03990  -0.03979  -0.89362
         Item               Value     Threshold  Converged?
 Maximum Force            0.035576     0.000450     NO 
 RMS     Force            0.005072     0.000300     NO 
 Maximum Displacement     0.470374     0.001800     NO 
 RMS     Displacement     0.127630     0.001200     NO 
 Predicted change in Energy=-1.273915D-02
 GradGradGradGradGradGradGradGradGradGradGradGradGradGradGradGradGradGrad

                          Input orientation:                          
 ---------------------------------------------------------------------
 Center     Atomic      Atomic             Coordinates (Angstroms)
 Number     Number       Type             X           Y           Z
 ---------------------------------------------------------------------
      1          6           0        0.882981    0.153349    0.234411
      2          6           0        2.406804    0.036612    0.029731
      3          7           0        3.158090    0.171881    1.292677
      4          6           0        2.905137   -1.285356   -0.630300
      5          6           0        2.173775   -1.636757   -1.926543
      6          8           0        0.980495   -1.835091   -1.999578
      7          6           0        4.470059   -1.294186   -0.683286
      8          6           0        5.070237   -2.650621   -0.282000
      9          8           0        6.434630   -2.608669   -0.679455
     10          6           0        6.494092   -1.877826   -1.902582
     11          6           0        5.262008   -0.936729   -1.969891
     12          6           0        5.616257    0.555591   -2.072865
     13          1           0        0.660148    1.086857    0.763281
     14          1           0        0.510422   -0.680873    0.837053
     15          1           0        0.311743    0.168366   -0.695348
     16          1           0        2.738498    0.869747   -0.601534
     17          1           0        2.859896   -0.561518    1.931507
     18          1           0        2.898791    1.047256    1.736399
     19          1           0        2.605901   -2.096371    0.050010
     20          1           0        2.780245   -1.793329   -2.831076
     21          1           0        4.799861   -0.583419    0.080073
     22          1           0        4.546624   -3.495419   -0.762127
     23          1           0        5.056391   -2.809234    0.800427
     24          1           0        6.483696   -2.588064   -2.744564
     25          1           0        7.450157   -1.345726   -1.929081
     26          1           0        4.733536   -1.190122   -2.889224
     27          1           0        6.277149    0.867201   -1.256795
     28          1           0        4.717597    1.179768   -2.031442
     29          1           0        6.119407    0.779691   -3.019938
 ---------------------------------------------------------------------
                    Distance matrix (angstroms):
                    1          2          3          4          5
     1  C    0.000000
     2  C    1.541933   0.000000
     3  N    2.509261   1.475724   0.000000
     4  C    2.628063   1.559351   2.425978   0.000000
     5  C    3.088746   2.584855   3.821443   1.529255   0.000000
     6  O    2.992342   3.107367   4.428183   2.425156   1.211853
     7  C    3.975506   2.556645   2.788376   1.565843   2.633622
     8  C    5.065772   3.796350   3.755320   2.583199   3.481657
     9  O    6.267751   4.870712   4.728263   3.769734   4.544747
    10  C    6.338531   4.909667   5.053700   3.853611   4.327104
    11  C    5.022260   3.619125   4.037305   2.733292   3.166876
    12  C    5.281025   3.871800   4.185295   3.580538   4.083930
    13  H    1.095808   2.166083   2.712408   3.550978   4.116345
    14  H    1.094488   2.182388   2.818675   2.872836   3.364213
    15  H    1.091325   2.220896   3.471880   2.973758   2.870797
    16  H    2.157538   1.096645   2.061822   2.161728   2.890870
    17  H    2.701734   2.044457   1.017299   2.662488   4.063429
    18  H    2.668057   2.043568   1.015089   3.323009   4.598557
    19  H    2.839665   2.142351   2.644636   1.100050   2.074787
    20  H    4.097118   3.416484   4.583684   2.262090   1.100227
    21  H    3.988558   2.472589   2.176304   2.141804   3.468769
    22  H    5.265822   4.204891   4.427114   2.756127   3.231238
    23  H    5.149235   3.963977   3.568319   2.999512   4.137697
    24  H    6.910691   5.586294   5.914073   4.355828   4.488826
    25  H    7.075007   5.584193   5.577158   4.727334   5.284403
    26  H    5.137001   3.929231   4.671764   2.907722   2.771031
    27  H    5.641837   4.162282   4.088007   4.049254   4.853457
    28  H    4.570766   3.300758   3.807580   3.365271   3.796689
    29  H    6.197035   4.861694   5.266639   4.506253   4.754235
                    6          7          8          9         10
     6  O    0.000000
     7  C    3.768589   0.000000
     8  C    4.510117   1.536607   0.000000
     9  O    5.664693   2.363773   1.421724   0.000000
    10  C    5.514616   2.433933   2.291475   1.426080   0.000000
    11  C    4.374848   1.552518   2.413126   2.415709   1.551846
    12  C    5.216419   2.581932   3.712833   3.553007   2.592510
    13  H    4.034079   4.719888   5.874542   7.005929   7.066192
    14  H    3.098333   4.285593   5.091572   6.411898   6.688991
    15  H    2.482355   4.408038   5.546243   6.723238   6.623123
    16  H    3.515858   2.772651   4.234631   5.076105   4.831808
    17  H    4.539556   3.156987   3.761591   4.877158   5.444289
    18  H    5.093654   3.715657   4.739557   5.630656   5.892747
    19  H    2.628883   2.157848   2.547622   3.931124   4.356421
    20  H    1.982986   2.778060   3.532251   4.318423   3.829086
    21  H    4.525394   1.093926   2.116016   2.711271   2.911499
    22  H    4.123742   2.203975   1.103801   2.087518   2.776667
    23  H    5.040031   2.200127   1.094074   2.032196   3.200119
    24  H    5.604213   3.158754   2.840071   2.065794   1.101580
    25  H    6.488527   3.230426   3.174846   2.046432   1.094484
    26  H    3.910598   2.224054   3.007332   3.128750   2.132125
    27  H    5.992383   2.875079   3.844728   3.527009   2.828299
    28  H    4.801700   2.828294   4.225729   4.373594   3.538562
    29  H    5.855480   3.532883   4.512660   4.130158   2.907107
[...]
 4212,-0.00025522,-0.00014989,0.00023753,0.00003668,0.00005154,0.000039
 24,0.00072191,-0.00037578,0.00053444,-0.00402428,0.00559642,-0.0184997
 4,0.08275114,0.00001056,-0.00022840,-0.00010521,0.00061490,0.00024517,
 0.00000776,-0.00011457,0.00003883,-0.00004096,-0.00011753,-0.00173041,
 0.00062075,-0.00036224,-0.00111432,-0.00027585,-0.00033634,0.00079657,
 0.00001019,0.00814502,-0.00716252,0.02378103,0.02082280,-0.06726563,0.
 06260969,-0.00016333,0.00055889,0.00131478,0.00055115,-0.00120003,0.00
 058825,0.00128212,-0.00273704,0.00119034,0.00005792,-0.00015461,0.0006
 7329,0.00009021,-0.00001496,-0.00001448,0.00001974,0.00000964,-0.00001
 342,-0.00001250,-0.00000592,0.00001280,-0.00006038,0.00010197,-0.00001
 739,0.00008347,-0.00002794,-0.00000988,-0.00000457,0.00000372,-0.00001
 561,0.00018696,0.00023354,-0.00023125,0.00001430,0.00005518,-0.0000601
 1,-0.00039534,0.00150832,0.00002531,-0.00733592,0.00663410,-0.02008417
 ,-0.02240838,0.07204316,0.00000139,0.00007579,-0.00001790,-0.00015567,
 -0.00018181,-0.00007542,0.00000890,0.00006443,0.00004187,-0.00000789,0
 .00055968,0.00011543,0.00004930,-0.00042720,-0.00013345,-0.00024421,0.
 00032072,0.00009427,0.00015716,-0.00279357,0.00373891,-0.07649870,0.06
 310723,-0.26178789,0.00255831,0.00957801,-0.02261776,0.00371920,-0.002
 57895,-0.00028226,0.00086044,-0.00123216,0.00034574,-0.00020073,0.0000
 6668,0.00007979,-0.00002347,0.00000102,0.00001260,-0.00000831,-0.00000
 485,0.00001180,0.00001136,-0.00000467,0.00000731,0.00002596,-0.0000335
 4,0.00001266,-0.00003656,0.00001631,0.00000619,-0.00001772,-0.00000552
 ,0.00001376,-0.00024598,0.00010189,-0.00005500,0.00004765,0.00000302,0
 .00005472,0.00030467,0.00034792,0.00127192,-0.00583140,0.00354974,-0.0
 1012999,0.07623787,-0.07129338,0.28993585,0.00000522,-0.00005193,-0.00
 001427,0.00007773,0.00006441,0.00000379,0.00002972,-0.00004567,0.00001
 748,0.00004568,-0.00018937,0.00008874,-0.00002271,-0.00009403,-0.00023
 128,-0.00017016,0.00002010,0.00013806,0.00008209,0.00018945,-0.0005920
 9,-0.00063213,0.00081042,0.00200805,-0.00366425,0.00355842,-0.01517406
 ,-0.13147280,-0.07550311,-0.07724712,0.00916446,0.01050656,0.01025243,
 -0.00147496,0.00133087,0.00164136,0.00002235,-0.00000766,-0.00000472,-
 0.00000191,0.00000208,0.00000207,0.00000492,0.00000415,0.00000630,0.00
 000066,-0.00001186,0.00000948,-0.00002510,0.00001242,0.00000506,0.0000
 2274,-0.00000095,-0.00000622,-0.00007297,0.00001191,0.00002452,0.00001
 182,0.00002504,0.00006531,0.00000324,-0.00001159,-0.00004498,0.0011690
 0,0.00011340,-0.00105758,0.00026591,0.00009188,-0.00033618,0.13929726,
 -0.00001072,0.00002598,-0.00003910,-0.00010993,-0.00017756,-0.00000316
 ,0.00015735,0.00014977,-0.00000341,0.00006115,0.00019521,-0.00018189,0
 .00007605,-0.00031917,-0.00078083,-0.00016470,0.00027133,0.00027508,-0
 .00036490,-0.00085433,0.00055550,0.00331406,0.00166871,-0.00109438,0.0
 1535322,0.01188410,0.02332449,-0.07629088,-0.11726365,-0.07874397,-0.0
 1456335,-0.01381053,-0.01381153,0.00420547,-0.00277179,-0.00301660,-0.
 00000475,0.00000876,0.00000830,0.00001582,0.00000005,-0.00000246,0.000
 03920,0.00000603,0.00002725,-0.00004557,0.00001136,-0.00003920,0.00001
 959,0.00000417,-0.00000343,-0.00006351,-0.00000111,0.00003912,0.000152
 49,0.00003678,0.00002030,0.00000302,-0.00005773,0.00019344,0.00005445,
 0.00012846,-0.00000685,-0.00036772,-0.00029640,-0.00114349,-0.00028484
 ,-0.00006657,-0.00000301,0.07454084,0.12483990,-0.00000302,-0.00004858
 ,-0.00005024,0.00007585,-0.00006185,0.00001492,0.00010051,0.00005185,0
 .00002823,0.00020394,-0.00017526,-0.00008233,0.00003708,-0.00058909,-0
 .00094758,-0.00003811,0.00042262,0.00046029,0.00017561,-0.00010422,0.0
 0036240,-0.00558699,-0.00132350,0.00293761,-0.02002976,0.00085096,-0.0
 3250279,-0.07597263,-0.07709575,-0.13587455,-0.00761910,-0.00823475,-0
 .00560103,0.00211379,-0.00096413,-0.00059075,0.00002392,0.00000470,0.0
 0000343,0.00000643,0.00000129,0.00000004,0.00002910,0.00000617,0.00002
 662,-0.00001644,-0.00001756,-0.00001398,-0.00001563,0.00001154,0.00000
 183,-0.00001078,0.00000141,0.00001757,0.00002834,0.00002955,0.00004237
 ,0.00002018,-0.00005668,0.00021272,0.00002459,0.00000257,0.00008910,0.
 00132134,0.00050602,0.00008805,0.00073198,0.00048591,-0.00011963,0.096
 65457,0.08021119,0.15984582,-0.00000071,0.00004427,0.00002144,0.000070
 22,-0.00017584,-0.00005600,0.00000022,0.00015511,0.00002366,0.00003091
 ,-0.00016680,0.00028184,0.00018613,0.00002198,-0.00002557,-0.00010431,
 -0.00004416,0.00002463,-0.00044135,0.00171635,-0.00001965,0.00050580,0
 .00190201,-0.00198147,0.01229568,0.00353702,-0.00530881,-0.24275624,-0
 .06364319,0.10287433,-0.00987941,-0.00471084,0.00556668,0.00086137,-0.
 00179837,-0.00069340,-0.00002915,0.00002505,0.00001087,-0.00000522,-0.
 00000374,0.00000076,0.00001537,-0.00000836,0.00000506,0.00001260,-0.00
 003427,0.00000523,0.00001833,-0.00001225,-0.00000730,-0.00006564,0.000
 00062,0.00002552,-0.00021298,-0.00001516,0.00002578,0.00000672,0.00001
 061,0.00003760,-0.00024457,-0.00019319,0.00041595,0.00022773,0.0000753
 7,-0.00032408,0.00040656,-0.00001122,-0.00025039,-0.01493966,-0.004650
 70,0.00809533,0.25361970,-0.00000808,0.00000698,-0.00004945,-0.0000791
 6,0.00005020,0.00003551,-0.00002469,-0.00005130,0.00002130,0.00003534,
 0.00038835,-0.00064720,-0.00010112,-0.00038012,-0.00028441,-0.00005006
 ,0.00031109,0.00010604,0.00209487,-0.00326199,-0.00182201,0.00331056,-
 0.00306980,0.00142792,-0.01720574,-0.00799055,0.01746644,-0.05834157,-
 0.06709147,0.02905476,0.01911183,0.00774695,-0.01222270,0.00061952,0.0
 0165131,0.00009848,0.00000716,-0.00000400,0.00000526,0.00001482,-0.000
 00349,0.00000347,0.00000459,-0.00000005,0.00000801,-0.00003830,0.00005
 807,-0.00001879,-0.00001383,0.00000262,0.00000215,0.00003555,0.0000009
 1,-0.00000702,0.00038973,0.00003380,-0.00001887,-0.00000790,-0.0000258
 7,0.00005613,0.00040412,0.00047768,-0.00075821,-0.00006494,0.00021019,
 -0.00011977,-0.00088227,0.00021721,0.00072474,-0.01575632,-0.00315424,
 0.00608553,0.06627443,0.07444394,-0.00000526,-0.00005862,-0.00003753,0
 .00004129,0.00011697,0.00006774,-0.00001012,-0.00009029,0.00000911,0.0
 0021049,-0.00000096,-0.00033002,-0.00002351,-0.00016919,-0.00052173,0.
 00003109,0.00010311,0.00021462,0.00052356,0.00052625,-0.00088224,-0.00
 154384,0.00329922,-0.00267811,0.02269228,0.01066921,-0.02063910,0.0916
 1517,0.02894271,-0.09812560,0.00905797,0.00200070,-0.00326144,0.000359
 78,0.00092079,0.00075982,0.00003047,-0.00001227,-0.00000264,0.00000066
 ,0.00000197,0.00000395,-0.00000193,0.00000330,0.00000567,-0.00001197,-
 0.00000484,0.00001165,-0.00002778,0.00001460,0.00000781,0.00005205,0.0
 0000129,-0.00001147,0.00010247,-0.00004458,0.00007157,-0.00003039,-0.0
 0005215,0.00013886,0.00013637,-0.00005278,-0.00019994,0.00072510,0.000
 33955,-0.00042120,0.00110260,0.00028479,-0.00076791,-0.01623645,-0.006
 21191,0.01032861,-0.10886553,-0.03959961,0.11680960,-0.00000648,-0.000
 07102,-0.00002946,-0.00018697,0.00016154,0.00013722,-0.00004167,-0.000
 07012,0.00010888,0.00070642,0.00063896,-0.00064567,-0.00107827,-0.0000
 6337,-0.00067869,-0.00002280,-0.00034798,0.00029974,0.00985975,-0.0055
 2332,0.01042034,-0.00176237,-0.00067130,0.00245226,-0.00061821,0.00358
 444,0.00024759,-0.00996499,0.00291462,-0.01178571,-0.17020972,0.061921
 07,-0.11269799,-0.01626640,0.00552087,-0.01366987,0.00001342,-0.000011
 15,-0.00001845,-0.00003193,0.00000013,0.00002160,-0.00001234,0.0000126
 2,0.00000525,-0.00028790,0.00000850,0.00048478,0.00006506,0.00003223,0
 .00002122,-0.00004081,-0.00002432,-0.00003348,0.00040623,0.00003665,-0
 .00015063,-0.00121284,-0.00107500,0.00043551,-0.00023144,-0.00088448,0
 .00160851,0.00023063,-0.00011281,-0.00005651,0.00027571,-0.00032986,-0
 .00018018,0.00144267,-0.00023972,0.00031217,-0.00055667,0.00050937,0.0
 0059834,0.18991205,0.00002969,0.00008130,0.00008344,-0.00013433,0.0002
 6467,-0.00032322,-0.00000101,0.00003780,-0.00008750,0.00057154,0.00042
 313,-0.00022790,-0.00010013,-0.00111730,0.00186893,-0.00010690,0.00063
 154,-0.00058901,0.00676959,-0.00368307,0.00564156,0.00210347,-0.000845
 95,-0.00013848,0.00239451,-0.00662174,0.00166086,0.01393986,-0.0058630
 9,0.01622934,0.06006157,-0.07490328,0.05348791,-0.02069149,0.00743229,
 -0.01681207,-0.00002931,-0.00001181,-0.00001010,0.00000376,-0.00002025
 ,0.00000266,-0.00003611,-0.00000734,-0.00002776,0.00022601,0.00008240,
 -0.00011647,0.00000241,-0.00002801,-0.00000538,-0.00001648,-0.00000879
 ,-0.00003346,0.00003455,-0.00004668,-0.00016329,-0.00063188,0.00013876
 ,-0.00082371,-0.00015108,-0.00055151,0.00038098,-0.00015396,-0.0001848
 5,0.00007805,0.00015621,-0.00052433,0.00007188,-0.00072118,0.00054922,
 0.00028679,0.00066483,-0.00055523,-0.00068984,-0.06230564,0.08699347,0
 .00008605,-0.00034924,0.00036630,0.00007607,0.00055166,-0.00107918,0.0
 0026882,-0.00030360,0.00033470,-0.00026982,-0.00000374,0.00157016,-0.0
 0019572,0.00058765,-0.00152409,0.00004095,-0.00051201,0.00052747,-0.01
 611425,0.00766721,-0.01478496,0.00075113,0.00020226,-0.00284334,0.0022
 8554,-0.00300443,0.00047763,0.00930263,-0.00519957,0.00892729,-0.11287
 275,0.05597845,-0.14985822,-0.00668890,0.00252606,-0.00503801,0.000033
 96,0.00001157,-0.00001717,-0.00018838,0.00000216,0.00006479,0.00003338
 ,0.00002688,-0.00000279,0.00054198,-0.00085603,0.00017026,-0.00016755,
 0.00008971,0.00013959,0.00007818,-0.00001378,-0.00002071,-0.00026562,-
 0.00013570,0.00013240,-0.00009968,-0.00023887,0.00112919,0.00093646,0.
 00185896,-0.00235388,-0.00012698,0.00027269,0.00007962,-0.00039652,0.0
 0077920,0.00022024,-0.00021082,0.00063050,0.00123139,0.00043255,0.0001
 3399,-0.00053908,0.12302207,-0.05879258,0.16119436,0.00001955,-0.00005
 176,0.00006533,0.00007761,0.00013644,-0.00023458,0.00005290,-0.0001225
 1,0.00022091,0.00030060,0.00025075,0.00036901,0.00007084,0.00018135,-0
 .00054761,-0.00001361,-0.00009481,0.00017804,0.00069791,0.00037809,-0.
 00119182,-0.00040596,-0.00015818,0.00014791,0.00092084,-0.00001264,0.0
 0109467,0.00004480,0.00149094,0.00003490,-0.01688305,0.00574792,-0.012
 49891,-0.19285095,0.06830983,-0.10882325,0.00000635,0.00000234,-0.0000
 0430,-0.00003364,-0.00000547,0.00001593,0.00000840,0.00000458,-0.00000
 268,0.00009546,-0.00010421,0.00008522,-0.00012712,0.00000796,0.0000225
 5,0.00005402,0.00000038,-0.00004232,-0.00006050,-0.00002571,0.00003850
 ,-0.00001441,-0.00006816,0.00023452,-0.00020845,0.00008821,0.00088222,
 0.00003804,0.00008725,0.00000118,0.00002116,-0.00011936,0.00002491,0.0
 0015351,0.00007289,0.00007676,0.00032918,-0.00027500,-0.00013189,-0.00
 167192,-0.00360667,-0.00070092,0.21076914,-0.00001322,-0.00000293,-0.0
 0001741,-0.00003719,-0.00007330,0.00001110,0.00003813,0.00007506,-0.00
 012802,0.00016294,0.00011026,-0.00004042,-0.00012023,0.00016104,-0.000
 38141,0.00007717,-0.00011860,0.00012345,0.00044304,0.00104845,-0.00086
 363,-0.00090369,-0.00011806,0.00053134,0.00071030,0.00042551,0.0002896
 0,-0.00012283,0.00164303,-0.00074729,-0.02119268,0.00759306,-0.0151293
 6,0.07021942,-0.07824823,0.05281403,-0.00000226,0.00000192,0.00000416,
 0.00000511,0.00000590,0.00000078,0.00001000,0.00000544,0.00000970,-0.0
 0002885,-0.00007159,-0.00005696,0.00009201,0.00002384,0.00000398,-0.00
 005920,-0.00000324,0.00005690,-0.00001593,0.00001737,0.00003499,0.0000
 1270,-0.00003951,0.00018664,0.00043980,0.00018415,0.00027701,0.0001465
 3,-0.00000470,-0.00004478,0.00000926,0.00000019,-0.00007409,0.00019686
 ,0.00025800,0.00031850,0.00038490,0.00007714,0.00008217,-0.00384367,-0
 .00378115,-0.00163785,-0.07250664,0.08396279,-0.00000347,0.00000660,-0
 .00000384,-0.00004319,-0.00005802,-0.00002925,0.00003575,0.00007100,-0
 .00008756,0.00001900,-0.00001994,0.00001704,0.00006322,0.00028026,-0.0
 0020124,-0.00001938,-0.00016186,0.00006626,0.00099499,-0.00020273,0.00
 030410,-0.00042055,0.00000552,0.00049460,0.00076532,0.00005149,0.00029
 529,-0.00100615,0.00089949,-0.00005594,-0.00719137,0.00200291,-0.00620
 961,-0.10871319,0.05152926,-0.12986774,-0.00000649,0.00000401,0.000000
 30,0.00000255,-0.00000215,0.00000398,0.00000706,0.00000532,0.00000482,
 -0.00004556,-0.00004075,-0.00002646,0.00006862,0.00000730,-0.00000212,
 -0.00005211,-0.00000129,0.00002629,-0.00004151,0.00000849,0.00002845,-
 0.00002970,-0.00008301,0.00009037,0.00014033,-0.00009380,0.00025751,0.
 00010358,-0.00001112,-0.00006314,0.00005755,-0.00005514,-0.00002870,0.
 00028262,0.00010952,-0.00002254,0.00021018,-0.00014055,-0.00036681,-0.
 00097982,-0.00168832,0.00071165,0.12243585,-0.05555391,0.13883508,0.00
 002001,0.00008984,-0.00002147,-0.00035327,-0.00034324,-0.00007162,-0.0
 0038878,0.00035616,-0.00024544,-0.00005890,0.00001533,-0.00004606,-0.0
 0002926,-0.00009335,-0.00007738,0.00002863,0.00009657,0.00003210,0.001
 17212,0.00037494,-0.00078869,0.00009151,0.00018337,-0.00021900,0.00050
 857,-0.00031117,0.00066736,-0.00348895,-0.00254726,-0.00109406,0.01051
 120,-0.01675155,-0.01083747,-0.11326267,0.09299914,0.06998479,-0.00001
 324,-0.00000310,0.00000321,0.00001925,-0.00000361,-0.00000554,0.000030
 00,0.00000717,0.00002518,-0.00012983,0.00001232,-0.00005008,0.00030466
 ,-0.00002763,0.00003942,-0.00006835,0.00001955,0.00005282,0.00002428,0
 .00001182,-0.00000519,0.00000089,-0.00000484,-0.00000992,0.00033330,0.
 00022602,0.00009144,0.00000681,-0.00003043,-0.00000825,-0.00002629,-0.
 00000609,0.00003672,0.00065959,-0.00098843,-0.00066812,0.00017613,0.00
 001239,-0.00023966,0.00087159,0.00096944,0.00024464,-0.01187490,0.0158
 2907,0.01365002,0.12126337,0.00001598,0.00013218,0.00004732,-0.0004332
 0,-0.00051901,-0.00028386,0.00051990,0.00045234,-0.00027001,0.00004393
 ,-0.00000606,0.00025296,-0.00002255,-0.00013064,-0.00034489,0.00001562
 ,0.00018395,0.00013581,0.00074914,0.00108811,-0.00135883,0.00098941,0.
 00025185,-0.00041686,-0.00022588,-0.00012292,0.00072621,-0.00496163,-0
 .00198372,-0.00221891,0.01256849,-0.01837933,-0.01131694,0.09067081,-0
 .17180816,-0.09363780,-0.00003117,0.00000795,-0.00000254,0.00002009,-0
 .00000012,-0.00001215,0.00008176,0.00002100,0.00004878,-0.00016085,0.0
 0004204,-0.00010473,0.00024431,-0.00004915,0.00000759,0.00000148,0.000
 03081,0.00002395,-0.00004673,0.00003428,0.00001474,0.00000513,-0.00002
 726,0.00007184,0.00010785,-0.00031449,0.00091575,-0.00014547,0.0001292
 3,0.00003037,-0.00005088,-0.00003269,0.00009388,0.00074482,-0.00150742
 ,-0.00044752,-0.00014534,0.00023079,0.00017488,-0.00014843,0.00099107,
 0.00007563,0.00505293,-0.00787477,-0.00575938,-0.09792491,0.18840924,-
 0.00006882,0.00000760,-0.00018909,-0.00008735,-0.00012054,0.00058964,0
 .00005042,-0.00011847,-0.00029172,0.00002424,-0.00008230,-0.00000987,0
 .00003030,-0.00004633,0.00009786,-0.00001645,0.00002131,-0.00002928,-0
 .00028367,0.00099392,0.00045001,0.00029049,-0.00004295,-0.00001085,0.0
 0003981,-0.00037171,0.00052444,-0.00148659,-0.00032844,-0.00034174,0.0
 0437786,-0.00539098,-0.00471761,0.06932448,-0.09599931,-0.12006773,-0.
 00000363,0.00000581,0.00001616,0.00006220,0.00001355,-0.00001105,-0.00
 004310,-0.00001115,-0.00000675,-0.00008525,0.00004117,-0.00019884,-0.0
 0002012,0.00000926,-0.00007857,-0.00002611,-0.00001187,0.00008354,-0.0
 0007238,0.00004873,0.00000426,-0.00000317,0.00000371,-0.00004621,-0.00
 009214,0.00026548,0.00026657,-0.00003709,0.00002476,0.00001409,-0.0000
 1940,-0.00000902,0.00002794,0.00015606,-0.00044989,-0.00004782,-0.0003
 0876,0.00017265,0.00019016,0.00012512,0.00022094,-0.00007532,-0.009394
 38,0.01371696,0.01024863,-0.07512142,0.10602609,0.12684764,0.00000691,
 0.00004672,0.00000241,0.00013895,-0.00005634,0.00005009,-0.00015869,-0
 .00000903,0.00008963,0.00001873,-0.00046719,0.00049901,0.00017048,0.00
 006433,0.00039876,-0.00006215,-0.00006849,-0.00012987,-0.00116451,-0.0
 0360374,-0.00164385,-0.00131942,0.00008194,0.00084396,0.00049943,0.000
 53917,-0.00031633,-0.00004294,0.00087733,0.00012394,-0.00833679,-0.008
 28703,0.01697560,-0.08496210,-0.04143178,0.08077813,-0.00003084,0.0000
 1998,0.00001172,0.00000630,-0.00000343,-0.00000658,-0.00001119,-0.0000
 1425,-0.00000773,-0.00000462,0.00002465,0.00001339,-0.00004649,-0.0000
 1027,-0.00002339,-0.00002052,-0.00000423,0.00001828,-0.00031718,0.0000
 1723,0.00003591,-0.00000843,0.00002210,-0.00008857,-0.00014200,0.00008
 966,-0.00029199,0.00015703,-0.00017773,-0.00003414,0.00011993,-0.00019
 340,-0.00000644,0.00001805,0.00008413,-0.00007092,0.00047329,0.0000247
 1,-0.00015139,0.00042019,0.00075874,0.00016352,0.01048421,0.01006916,-
 0.02028413,-0.00632746,-0.00753463,0.01268882,0.09044182,0.00002373,0.
 00010724,0.00004811,-0.00000075,-0.00028832,-0.00017175,0.00024888,0.0
 0029469,-0.00009081,-0.00008116,-0.00097186,0.00064886,0.00011648,0.00
 020304,0.00044499,-0.00003295,-0.00016923,-0.00014202,-0.00298543,-0.0
 0240017,-0.00189979,-0.00063916,0.00041206,0.00068447,0.00047267,-0.00
 024781,-0.00074158,-0.00095330,0.00101604,0.00192511,-0.00836444,-0.01
 106456,0.02001143,-0.04105389,-0.09403416,0.08937869,-0.00004512,0.000
 02656,0.00000577,0.00001366,-0.00000666,-0.00000927,0.00003620,-0.0000
 0294,0.00000859,-0.00002041,0.00005482,-0.00003105,0.00008684,-0.00002
 527,-0.00001197,-0.00010442,0.00000836,0.00004022,-0.00043071,0.000023
 46,0.00005664,0.00000665,0.00002261,-0.00008109,-0.00012414,-0.0000799
 2,-0.00036831,0.00003439,-0.00010677,-0.00003470,0.00013081,-0.0001811
 1,-0.00005017,0.00017003,0.00024267,-0.00015771,0.00080086,-0.00031912
 ,-0.00049447,0.00038122,0.00112872,-0.00034718,-0.00466075,-0.00525706
 ,0.00889079,0.00783250,0.01075090,-0.01858897,0.04914169,0.10086379,0.
 00001249,0.00001452,0.00003085,-0.00015210,-0.00006501,-0.00014880,0.0
 0027623,0.00010845,-0.00003683,0.00001040,0.00004339,0.00044057,0.0000
 4796,-0.00008224,-0.00018498,0.00003415,0.00012367,0.00007623,-0.00075
 824,-0.00181282,-0.00042016,0.00013220,-0.00020777,0.00038993,-0.00001
 620,0.00018406,0.00037980,0.00001978,0.00032963,0.00035362,-0.00434127
 ,-0.00513794,0.00729851,0.08193116,0.09062882,-0.22265794,0.00000536,-
 0.00000893,-0.00000993,0.00000460,-0.00000009,-0.00000400,0.00002617,0
 .00001197,0.00001189,-0.00001007,0.00001411,-0.00001240,0.00002160,0.0
 0000452,0.00001192,-0.00002634,0.00000771,0.00000649,-0.00007769,0.000
 01266,0.00003177,-0.00001821,-0.00000554,0.00002764,0.00000571,0.00011
 540,0.00063674,-0.00005750,0.00011770,0.00000808,0.00003244,-0.0001582
 4,0.00002490,-0.00020012,0.00014043,0.00016227,-0.00021644,0.00028620,
 0.00016563,0.00062584,0.00051575,0.00085973,0.00764424,0.00621384,-0.0
 1441944,0.00468167,0.00752859,-0.01323849,-0.08963783,-0.09892283,0.24
 021640\\-0.00000031,-0.00000295,0.00000125,-0.00000236,0.00000648,-0.0
 0000559,0.00000178,-0.00000004,0.00000022,0.00001689,-0.00000857,0.000
 00719,0.00000005,0.00000669,-0.00000463,-0.00000131,0.00000095,0.00000
 556,-0.00000514,-0.00000067,-0.00000392,-0.00000486,0.00000432,-0.0000
 0108,0.00000840,-0.00000275,0.00000594,-0.00000872,0.00000730,-0.00000
 517,0.00000421,-0.00000522,0.00000099,-0.00000156,-0.00000093,-0.00000
 500,-0.00000024,-0.00000085,-0.00000017,0.00000164,0.00000020,0.000000
 63,-0.00000087,-0.00000121,-0.00000344,0.00000137,-0.00000189,0.000001
 27,0.00000084,-0.00000263,0.00000115,-0.00000179,0.00000012,0.00000321
 ,-0.00000463,-0.00000194,-0.00000298,-0.00000227,0.00000209,0.00000273
 ,-0.00000015,0.00000071,0.00000087,-0.00000022,0.00000030,-0.00000192,
 -0.00000018,-0.00000219,-0.00000216,0.00000014,-0.00000013,0.00000142,
 -0.00000002,-0.00000050,-0.00000137,-0.00000137,0.00000308,0.00000013,
 0.00000099,0.00000091,0.00000196,-0.00000072,-0.00000016,0.00000198,0.
 00000041,-0.00000054,0.00000097\\\@


 TRUTH, IN SCIENCE, CAN BE DEFINED AS THE WORKING HYPOTHESIS 
 BEST FITTED TO OPEN THE WAY TO THE NEXT BETTER ONE.

                              -- KONRAD LORENZ
 Job cpu time:       0 days  5 hours 28 minutes 54.3 seconds.
 Elapsed time:       0 days  1 hours 22 minutes 14.1 seconds.
 File lengths (MBytes):  RWF=    375 Int=      0 D2E=      0 Chk=     16 Scr=      1
 Normal termination of Gaussian 16 at Mon May 29 05:46:52 2023.
### All Done ###
