### Starting Gaussian ###
 Entering Gaussian System, Link 0=g16
 Initial command:
 /cluster/software/gaussian/gaussian-16-A.03/avx2/g16/l1.exe "/local/scratch/cz9n3/Gau-13693.inp" -scrdir="/local/scratch/cz9n3/"
 Entering Link 1 = /cluster/software/gaussian/gaussian-16-A.03/avx2/g16/l1.exe PID=     13694.
  
 Copyright (c) 1988,1990,1992,1993,1995,1998,2003,2009,2016,
            Gaussian, Inc.  All Rights Reserved.
  
 This is part of the Gaussian(R) 16 program.  It is based on
 the Gaussian(R) 09 system (copyright 2009, Gaussian, Inc.),
 the Gaussian(R) 03 system (copyright 2003, Gaussian, Inc.),
 the Gaussian(R) 98 system (copyright 1998, Gaussian, Inc.),
 the Gaussian(R) 94 system (copyright 1995, Gaussian, Inc.),
 the Gaussian 92(TM) system (copyright 1992, Gaussian, Inc.),
 the Gaussian 90(TM) system (copyright 1990, Gaussian, Inc.),
 the Gaussian 88(TM) system (copyright 1988, Gaussian, Inc.),
 the Gaussian 86(TM) system (copyright 1986, Carnegie Mellon
 University), and the Gaussian 82(TM) system (copyright 1983,
 Carnegie Mellon University). Gaussian is a federally registered
 trademark of Gaussian, Inc.
  
 This software contains proprietary and confidential information,
 including trade secrets, belonging to Gaussian, Inc.
  
 This software is provided under written license and may be
 used, copied, transmitted, or stored only in accord with that
 written license.
  
 The following legend is applicable only to US Government
 contracts under FAR:
  
                    RESTRICTED RIGHTS LEGEND
  
 Use, reproduction and disclosure by the US Government is
 subject to restrictions as set forth in subparagraphs (a)
 and (c) of the Commercial Computer Software - Restricted
 Rights clause in FAR 52.227-19.
  
 Gaussian, Inc.
 340 Quinnipiac St., Bldg. 40, Wallingford CT 06492
  
  
 ---------------------------------------------------------------
 Warning -- This program may not be used in any manner that
 competes with the business of Gaussian, Inc. or will provide
 assistance to any competitor of Gaussian, Inc.  The licensee
 of this program is prohibited from giving any competitor of
 Gaussian, Inc. access to this program.  By using this program,
 the user acknowledges that Gaussian, Inc. is engaged in the
 business of creating and licensing software in the field of
 computational chemistry and represents and warrants to the
 licensee that it is not a competitor of Gaussian, Inc. and that
 it will not use this program in any manner prohibited above.
 ---------------------------------------------------------------
  

 Cite this work as:
 Gaussian 16, Revision A.03,
 M. J. Frisch, G. W. Trucks, H. B. Schlegel, G. E. Scuseria, 
 M. A. Robb, J. R. Cheeseman, G. Scalmani, V. Barone, 
 G. A. Petersson, H. Nakatsuji, X. Li, M. Caricato, A. V. Marenich, 
 J. Bloino, B. G. Janesko, R. Gomperts, B. Mennucci, H. P. Hratchian, 
 J. V. Ortiz, A. F. Izmaylov, J. L. Sonnenberg, D. Williams-Young, 
 F. Ding, F. Lipparini, F. Egidi, J. Goings, B. Peng, A. Petrone, 
 T. Henderson, D. Ranasinghe, V. G. Zakrzewski, J. Gao, N. Rega, 
 G. Zheng, W. Liang, M. Hada, M. Ehara, K. Toyota, R. Fukuda, 
 J. Hasegawa, M. Ishida, T. Nakajima, Y. Honda, O. Kitao, H. Nakai, 
 T. Vreven, K. Throssell, J. A. Montgomery, Jr., J. E. Peralta, 
 F. Ogliaro, M. J. Bearpark, J. J. Heyd, E. N. Brothers, K. N. Kudin, 
 V. N. Staroverov, T. A. Keith, R. Kobayashi, J. Normand, 
 K. Raghavachari, A. P. Rendell, J. C. Burant, S. S. Iyengar, 
 J. Tomasi, M. Cossi, J. M. Millam, M. Klene, C. Adamo, R. Cammi, 
 J. W. Ochterski, R. L. Martin, K. Morokuma, O. Farkas, 
 J. B. Foresman, and D. J. Fox, Gaussian, Inc., Wallingford CT, 2016.
 
 ******************************************
 Gaussian 16:  ES64L-G16RevA.03 25-Dec-2016
                29-May-2023 
 ******************************************
 %chk=CCqOrdCqCCdOrCqNOrOO.chk
 %NProcShared=20
 Will use up to   20 processors via shared memory.
 -----------------------------
 # opt freq b3lyp/6-31g(2df,p)
 -----------------------------
 1/18=20,19=15,26=3,38=1/1,3;
 2/9=110,12=2,17=6,18=5,40=1/2;
 3/5=1,6=6,7=104,11=2,25=1,30=1,71=1,74=-5/1,2,3;
 4//1;
 5/5=2,38=5/2;
 6/7=2,8=2,9=2,10=2,28=1/1;
 7//1,2,3,16;
 1/18=20,19=15,26=3/3(2);
 2/9=110/2;
 99//99;
 2/9=110/2;
 3/5=1,6=6,7=104,11=2,25=1,30=1,71=1,74=-5/1,2,3;
 4/5=5,16=3,69=1/1;
 5/5=2,38=5/2;
 7//1,2,3,16;
 1/18=20,19=15,26=3/3(-5);
 2/9=110/2;
 6/7=2,8=2,9=2,10=2,19=2,28=1/1;
 99/9=1/99;
 -------------------
 Title Card Required
 -------------------
 Symbolic Z-matrix:
 Charge =  0 Multiplicity = 1
 C                     0.93875   0.1037   -0.22809 
 C                     2.40912  -0.05399  -0.03357 
 O                     3.1444    0.36619  -1.12804 
 C                     3.04596  -0.48189   1.08797 
 C                     2.37302  -1.05748   2.34561 
 C                     0.85474  -1.15106   2.51278 
 O                     0.29555  -1.63393   3.48723 
 C                     4.60495  -0.44006   1.15349 
 N                     5.15603   0.93653   1.23177 
 O                     4.99143   1.63635  -0.03692 
 O                     5.07249  -1.17587   2.3113 
 O                     6.54193  -1.14938   2.27121 
 H                     0.67206   0.58242  -1.1725 
 H                     0.54466   0.76673   0.54996 
 H                     0.4676   -0.88232  -0.23904 
 H                     2.55677   0.77406  -1.79159 
 H                     2.71597  -0.48734   3.21696 
 H                     2.71402  -2.09645   2.4584 
 H                     0.21247  -0.7669    1.72432 
 H                     5.01133  -0.9791    0.28664 
 H                     6.16965   0.7859    1.20527 
 H                     4.02748   1.57641  -0.19653 
 H                     6.68024  -1.44614   3.19007 
 

 GradGradGradGradGradGradGradGradGradGradGradGradGradGradGradGradGradGrad
 Berny optimization.
 Initialization pass.
                           ----------------------------
                           !    Initial Parameters    !
                           ! (Angstroms and Degrees)  !
 --------------------------                            --------------------------
 ! Name  Definition              Value          Derivative Info.                !
 --------------------------------------------------------------------------------
 ! R1    R(1,2)                  1.4915         estimate D2E/DX2                !
 ! R2    R(1,13)                 1.0919         estimate D2E/DX2                !
 ! R3    R(1,14)                 1.0956         estimate D2E/DX2                !
 ! R4    R(1,15)                 1.0929         estimate D2E/DX2                !
 ! R5    R(2,3)                  1.3839         estimate D2E/DX2                !
 ! R6    R(2,4)                  1.3589         estimate D2E/DX2                !
 ! R7    R(3,16)                 0.9757         estimate D2E/DX2                !
 ! R8    R(4,5)                  1.5381         estimate D2E/DX2                !
 ! R9    R(4,8)                  1.5609         estimate D2E/DX2                !
 ! R10   R(5,6)                  1.5303         estimate D2E/DX2                !
 ! R11   R(5,17)                 1.0963         estimate D2E/DX2                !
 ! R12   R(5,18)                 1.0993         estimate D2E/DX2                !
 ! R13   R(6,7)                  1.2229         estimate D2E/DX2                !
 ! R14   R(6,19)                 1.0871         estimate D2E/DX2                !
 ! R15   R(8,9)                  1.4849         estimate D2E/DX2                !
 ! R16   R(8,11)                 1.4493         estimate D2E/DX2                !
 ! R17   R(8,20)                 1.0987         estimate D2E/DX2                !
 ! R18   R(9,10)                 1.4582         estimate D2E/DX2                !
 ! R19   R(9,21)                 1.0251         estimate D2E/DX2                !
 ! R20   R(10,22)                0.9789         estimate D2E/DX2                !
 ! R21   R(11,12)                1.4702         estimate D2E/DX2                !
 ! R22   R(12,23)                0.9754         estimate D2E/DX2                !
 ! A1    A(2,1,13)             113.5741         estimate D2E/DX2                !
 ! A2    A(2,1,14)             109.0244         estimate D2E/DX2                !
 ! A3    A(2,1,15)             109.3245         estimate D2E/DX2                !
 ! A4    A(13,1,14)            105.1331         estimate D2E/DX2                !
 ! A5    A(13,1,15)            106.3562         estimate D2E/DX2                !
 ! A6    A(14,1,15)            113.4573         estimate D2E/DX2                !
 ! A7    A(1,2,3)              112.8638         estimate D2E/DX2                !
 ! A8    A(1,2,4)              127.0803         estimate D2E/DX2                !
 ! A9    A(3,2,4)              119.9576         estimate D2E/DX2                !
 ! A10   A(2,3,16)             110.1691         estimate D2E/DX2                !
 ! A11   A(2,4,5)              125.99           estimate D2E/DX2                !
 ! A12   A(2,4,8)              119.6223         estimate D2E/DX2                !
 ! A13   A(5,4,8)              114.3729         estimate D2E/DX2                !
 ! A14   A(4,5,6)              123.1114         estimate D2E/DX2                !
 ! A15   A(4,5,17)             108.5656         estimate D2E/DX2                !
 ! A16   A(4,5,18)             107.5692         estimate D2E/DX2                !
 ! A17   A(6,5,17)             104.7935         estimate D2E/DX2                !
 ! A18   A(6,5,18)             103.813          estimate D2E/DX2                !
 ! A19   A(17,5,18)            108.2356         estimate D2E/DX2                !
 ! A20   A(5,6,7)              124.3935         estimate D2E/DX2                !
 ! A21   A(5,6,19)             119.034          estimate D2E/DX2                !
 ! A22   A(7,6,19)             116.5724         estimate D2E/DX2                !
 ! A23   A(4,8,9)              113.4363         estimate D2E/DX2                !
 ! A24   A(4,8,11)             110.006          estimate D2E/DX2                !
 ! A25   A(4,8,20)             108.8535         estimate D2E/DX2                !
 ! A26   A(9,8,11)             107.9889         estimate D2E/DX2                !
 ! A27   A(9,8,20)             111.0489         estimate D2E/DX2                !
 ! A28   A(11,8,20)            105.182          estimate D2E/DX2                !
 ! A29   A(8,9,10)             110.9259         estimate D2E/DX2                !
 ! A30   A(8,9,21)             103.261          estimate D2E/DX2                !
 ! A31   A(10,9,21)             99.1861         estimate D2E/DX2                !
 ! A32   A(9,10,22)            102.9219         estimate D2E/DX2                !
 ! A33   A(8,11,12)            106.9471         estimate D2E/DX2                !
 ! A34   A(11,12,23)            96.3469         estimate D2E/DX2                !
 ! D1    D(13,1,2,3)            -3.6647         estimate D2E/DX2                !
 ! D2    D(13,1,2,4)           172.6926         estimate D2E/DX2                !
 ! D3    D(14,1,2,3)          -120.5205         estimate D2E/DX2                !
 ! D4    D(14,1,2,4)            55.8368         estimate D2E/DX2                !
 ! D5    D(15,1,2,3)           114.9301         estimate D2E/DX2                !
 ! D6    D(15,1,2,4)           -68.7126         estimate D2E/DX2                !
 ! D7    D(1,2,3,16)             5.7473         estimate D2E/DX2                !
 ! D8    D(4,2,3,16)          -170.8988         estimate D2E/DX2                !
 ! D9    D(1,2,4,5)              7.8807         estimate D2E/DX2                !
 ! D10   D(1,2,4,8)           -173.6046         estimate D2E/DX2                !
 ! D11   D(3,2,4,5)           -175.9937         estimate D2E/DX2                !
 ! D12   D(3,2,4,8)              2.5209         estimate D2E/DX2                !
 ! D13   D(2,4,5,6)             -3.3562         estimate D2E/DX2                !
 ! D14   D(2,4,5,17)          -126.082          estimate D2E/DX2                !
 ! D15   D(2,4,5,18)           117.0074         estimate D2E/DX2                !
 ! D16   D(8,4,5,6)            178.0614         estimate D2E/DX2                !
 ! D17   D(8,4,5,17)            55.3356         estimate D2E/DX2                !
 ! D18   D(8,4,5,18)           -61.575          estimate D2E/DX2                !
 ! D19   D(2,4,8,9)             70.1309         estimate D2E/DX2                !
 ! D20   D(2,4,8,11)          -168.8016         estimate D2E/DX2                !
 ! D21   D(2,4,8,20)           -54.0409         estimate D2E/DX2                !
 ! D22   D(5,4,8,9)           -111.1885         estimate D2E/DX2                !
 ! D23   D(5,4,8,11)             9.879          estimate D2E/DX2                !
 ! D24   D(5,4,8,20)           124.6397         estimate D2E/DX2                !
 ! D25   D(4,5,6,7)            178.114          estimate D2E/DX2                !
 ! D26   D(4,5,6,19)            -1.9792         estimate D2E/DX2                !
 ! D27   D(17,5,6,7)           -57.4572         estimate D2E/DX2                !
 ! D28   D(17,5,6,19)          122.4497         estimate D2E/DX2                !
 ! D29   D(18,5,6,7)            56.0099         estimate D2E/DX2                !
 ! D30   D(18,5,6,19)         -124.0833         estimate D2E/DX2                !
 ! D31   D(4,8,9,10)           -71.0396         estimate D2E/DX2                !
 ! D32   D(4,8,9,21)          -176.4489         estimate D2E/DX2                !
 ! D33   D(11,8,9,10)          166.7654         estimate D2E/DX2                !
 ! D34   D(11,8,9,21)           61.3561         estimate D2E/DX2                !
 ! D35   D(20,8,9,10)           51.9313         estimate D2E/DX2                !
 ! D36   D(20,8,9,21)          -53.478          estimate D2E/DX2                !
 ! D37   D(4,8,11,12)          177.2818         estimate D2E/DX2                !
 ! D38   D(9,8,11,12)          -58.4375         estimate D2E/DX2                !
 ! D39   D(20,8,11,12)          60.2081         estimate D2E/DX2                !
 ! D40   D(8,9,10,22)           55.8779         estimate D2E/DX2                !
 ! D41   D(21,9,10,22)         163.974          estimate D2E/DX2                !
 ! D42   D(8,11,12,23)         165.515          estimate D2E/DX2                !
 --------------------------------------------------------------------------------
 Trust Radius=3.00D-01 FncErr=1.00D-07 GrdErr=1.00D-06 EigMax=2.50D+02 EigMin=1.00D-04
 Number of steps in this run=    108 maximum allowed number of steps=    138.
 GradGradGradGradGradGradGradGradGradGradGradGradGradGradGradGradGradGrad

                          Input orientation:                          
 ---------------------------------------------------------------------
 Center     Atomic      Atomic             Coordinates (Angstroms)
 Number     Number       Type             X           Y           Z
 ---------------------------------------------------------------------
      1          6           0        0.938750    0.103700   -0.228090
      2          6           0        2.409120   -0.053990   -0.033570
      3          8           0        3.144400    0.366190   -1.128040
      4          6           0        3.045960   -0.481890    1.087970
      5          6           0        2.373020   -1.057480    2.345610
      6          6           0        0.854740   -1.151060    2.512780
      7          8           0        0.295550   -1.633930    3.487230
      8          6           0        4.604950   -0.440060    1.153490
      9          7           0        5.156030    0.936530    1.231770
     10          8           0        4.991430    1.636350   -0.036920
     11          8           0        5.072490   -1.175870    2.311300
     12          8           0        6.541930   -1.149380    2.271210
     13          1           0        0.672060    0.582420   -1.172500
     14          1           0        0.544660    0.766730    0.549960
     15          1           0        0.467600   -0.882320   -0.239040
     16          1           0        2.556770    0.774060   -1.791590
     17          1           0        2.715970   -0.487340    3.216960
     18          1           0        2.714020   -2.096450    2.458400
     19          1           0        0.212470   -0.766900    1.724320
     20          1           0        5.011330   -0.979100    0.286640
     21          1           0        6.169650    0.785900    1.205270
     22          1           0        4.027480    1.576410   -0.196530
     23          1           0        6.680240   -1.446140    3.190070
 ---------------------------------------------------------------------
                    Distance matrix (angstroms):
                    1          2          3          4          5
     1  C    0.000000
     2  C    1.491540   0.000000
     3  O    2.396602   1.383854   0.000000
     4  C    2.552501   1.358866   2.374791   0.000000
     5  C    3.166923   2.582401   3.832507   1.538119   0.000000
     6  C    3.015601   3.178609   4.560719   2.698021   1.530319
     7  O    4.151707   4.399934   5.780756   3.827323   2.439564
     8  C    3.955434   2.525833   2.826415   1.560927   2.604586
     9  N    4.539851   3.182409   3.152879   2.546564   3.600258
    10  O    4.337024   3.086355   2.493064   3.088231   4.448510
    11  O    5.017331   3.721635   4.233738   2.466773   2.702283
    12  O    6.261975   4.857161   5.039351   3.750654   4.170586
    13  H    1.091882   2.172454   2.482176   3.446430   4.237881
    14  H    1.095572   2.119033   3.120058   2.846930   3.145632
    15  H    1.092858   2.120813   3.084535   2.927326   3.215855
    16  H    2.347744   1.948872   0.975687   3.179400   4.528215
    17  H    3.921251   3.293614   4.448718   2.154419   1.096323
    18  H    3.899932   3.236437   4.371770   2.143611   1.099300
    19  H    2.257727   2.902359   4.244533   2.918019   2.266807
    20  H    4.245387   2.780263   2.701213   2.179914   3.347563
    21  H    5.466464   4.047434   3.843518   3.373202   4.371822
    22  H    3.422006   2.303009   1.764135   2.617235   4.017100
    23  H    6.859339   5.529232   5.867945   4.307736   4.406395
                    6          7          8          9         10
     6  C    0.000000
     7  O    1.222869   0.000000
     8  C    4.051822   5.044065   0.000000
     9  N    4.949759   5.942948   1.484863   0.000000
    10  O    5.602038   6.720540   2.424442   1.458223   0.000000
    11  O    4.222632   4.940828   1.449322   2.373731   3.664599
    12  O    5.692318   6.382065   2.346130   2.711489   3.935963
    13  H    4.076716   5.173688   4.682234   5.100186   4.588820
    14  H    2.761654   3.801681   4.278615   4.664593   4.568854
    15  H    2.791883   3.805208   4.387756   5.239549   5.181659
    16  H    5.013042   6.227156   3.787166   3.990395   3.122496
    17  H    2.097754   2.691867   2.797926   3.452865   4.502834
    18  H    2.086538   2.668598   2.832320   4.082524   5.034582
    19  H    1.087087   1.966341   4.441458   5.251958   5.631699
    20  H    4.718316   5.736825   1.098698   2.140992   2.635463
    21  H    5.806002   6.750405   1.988453   1.025094   1.911676
    22  H    4.984549   6.148469   2.494429   1.929537   0.978912
    23  H    5.872158   6.394360   3.076798   3.440243   4.771508
                   11         12         13         14         15
    11  O    0.000000
    12  O    1.470225   0.000000
    13  H    5.881516   7.022367   0.000000
    14  H    5.232328   6.526977   1.736971   0.000000
    15  H    5.272136   6.578006   1.748890   1.829706   0.000000
    16  H    5.192762   6.007284   1.993020   3.087312   3.085229
    17  H    2.616769   3.996337   4.958761   3.660624   4.141873
    18  H    2.536038   3.947769   4.952714   4.067686   3.714391
    19  H    4.912392   6.364546   3.228537   1.959973   1.983229
    20  H    2.035118   2.512021   4.837013   4.802957   4.575062
    21  H    2.505116   2.240564   5.993220   5.663066   6.114112
    22  H    3.867338   4.454451   3.633095   3.652789   4.326651
    23  H    1.852064   0.975449   7.697097   7.036499   7.118538
                   16         17         18         19         20
    16  H    0.000000
    17  H    5.167402   0.000000
    18  H    5.130981   1.778947   0.000000
    19  H    4.497991   2.928078   2.926487   0.000000
    20  H    3.662987   3.754635   3.353005   5.014081   0.000000
    21  H    4.694061   4.194752   4.671151   6.178074   2.302349
    22  H    2.313216   4.198933   4.718446   4.871865   2.780656
    23  H    6.837341   4.078659   4.085235   6.666471   3.381315
                   21         22         23
    21  H    0.000000
    22  H    2.679336   0.000000
    23  H    3.030204   5.257566   0.000000
 Stoichiometry    C6H11NO5
 Framework group  C1[X(C6H11NO5)]
 Deg. of freedom    63
 Full point group                 C1      NOp   1
 Largest Abelian subgroup         C1      NOp   1
 Largest concise Abelian subgroup C1      NOp   1
                         Standard orientation:                         
 ---------------------------------------------------------------------
 Center     Atomic      Atomic             Coordinates (Angstroms)
 Number     Number       Type             X           Y           Z
 ---------------------------------------------------------------------
      1          6           0       -2.031303    1.961977   -0.167259
      2          6           0       -0.666023    1.387252   -0.341595
      3          8           0        0.288311    2.346692   -0.631035
      4          6           0       -0.296119    0.090002   -0.177801
      5          6           0       -1.244682   -1.097299    0.059591
      6          6           0       -2.758828   -0.939410    0.215510
      7          8           0       -3.537802   -1.869006    0.371904
      8          6           0        1.213603   -0.298008   -0.259526
      9          7           0        2.012279    0.191078    0.892745
     10          8           0        2.175697    1.639006    0.836044
     11          8           0        1.352506   -1.739356   -0.320812
     12          8           0        2.787579   -2.025973   -0.462160
     13          1           0       -2.057822    3.051663   -0.231190
     14          1           0       -2.392334    1.725682    0.839766
     15          1           0       -2.683933    1.591117   -0.961535
     16          1           0       -0.103859    3.238432   -0.576556
     17          1           0       -0.923520   -1.624988    0.965308
     18          1           0       -1.138710   -1.782421   -0.793544
     19          1           0       -3.190716    0.057871    0.189779
     20          1           0        1.624180    0.071272   -1.209366
     21          1           0        2.968173   -0.091010    0.652933
     22          1           0        1.252527    1.962067    0.795332
     23          1           0        2.729838   -2.975229   -0.245183
 ---------------------------------------------------------------------
 Rotational constants (GHZ):           1.0405827           0.6579733           0.4348247
 Standard basis: 6-31G(2df,p) (6D, 7F)
 There are   427 symmetry adapted cartesian basis functions of A   symmetry.
 There are   391 symmetry adapted basis functions of A   symmetry.
   391 basis functions,   605 primitive gaussians,   427 cartesian basis functions
    47 alpha electrons       47 beta electrons
       nuclear repulsion energy       752.0727167130 Hartrees.
 NAtoms=   23 NActive=   23 NUniq=   23 SFac= 1.00D+00 NAtFMM=   60 NAOKFM=F Big=F
 Integral buffers will be    131072 words long.
 Raffenetti 2 integral format.
 Two-electron integral symmetry is turned on.
 One-electron integrals computed using PRISM.
 PrsmSu:  requested number of processors reduced to:  13 ShMem   1 Linda.
 NBasis=   391 RedAO= T EigKep=  3.58D-04  NBF=   391
 NBsUse=   391 1.00D-06 EigRej= -1.00D+00 NBFU=   391
 ExpMin= 1.61D-01 ExpMax= 5.48D+03 ExpMxC= 8.25D+02 IAcc=3 IRadAn=         5 AccDes= 0.00D+00
 Harris functional with IExCor=  402 and IRadAn=       5 diagonalized for initial guess.
 HarFok:  IExCor=  402 AccDes= 0.00D+00 IRadAn=         5 IDoV= 1 UseB2=F ITyADJ=14
 ICtDFT=  3500011 ScaDFX=  1.000000  1.000000  1.000000  1.000000
 FoFCou: FMM=F IPFlag=           0 FMFlag=      100000 FMFlg1=           0
         NFxFlg=           0 DoJE=T BraDBF=F KetDBF=T FulRan=T
         wScrn=  0.000000 ICntrl=       500 IOpCl=  0 I1Cent=   200000004 NGrid=           0
         NMat0=    1 NMatS0=      1 NMatT0=    0 NMatD0=    1 NMtDS0=    0 NMtDT0=    0
 Petite list used in FoFCou.
 Requested convergence on RMS density matrix=1.00D-08 within 128 cycles.
 Requested convergence on MAX density matrix=1.00D-06.
 Requested convergence on             energy=1.00D-06.
 No special actions if energy rises.
 Integral accuracy reduced to 1.0D-05 until final iterations.
 Initial convergence to 1.0D-05 achieved.  Increase integral accuracy.
 SCF Done:  E(RB3LYP) =  -665.935895959     A.U. after   14 cycles
            NFock= 14  Conv=0.53D-08     -V/T= 2.0068

 **********************************************************************

            Population analysis using the SCF density.

 **********************************************************************

 Orbital symmetries:
       Occupied  (A) (A) (A) (A) (A) (A) (A) (A) (A) (A) (A) (A)
                 (A) (A) (A) (A) (A) (A) (A) (A) (A) (A) (A) (A)
                 (A) (A) (A) (A) (A) (A) (A) (A) (A) (A) (A) (A)
                 (A) (A) (A) (A) (A) (A) (A) (A) (A) (A) (A)
       Virtual   (A) (A) (A) (A) (A) (A) (A) (A) (A) (A) (A) (A)
                 (A) (A) (A) (A) (A) (A) (A) (A) (A) (A) (A) (A)
                 (A) (A) (A) (A) (A) (A) (A) (A) (A) (A) (A) (A)
                 (A) (A) (A) (A) (A) (A) (A) (A) (A) (A) (A) (A)
                 (A) (A) (A) (A) (A) (A) (A) (A) (A) (A) (A) (A)
                 (A) (A) (A) (A) (A) (A) (A) (A) (A) (A) (A) (A)
                 (A) (A) (A) (A) (A) (A) (A) (A) (A) (A) (A) (A)
                 (A) (A) (A) (A) (A) (A) (A) (A) (A) (A) (A) (A)
                 (A) (A) (A) (A) (A) (A) (A) (A) (A) (A) (A) (A)
                 (A) (A) (A) (A) (A) (A) (A) (A) (A) (A) (A) (A)
                 (A) (A) (A) (A) (A) (A) (A) (A) (A) (A) (A) (A)
                 (A) (A) (A) (A) (A) (A) (A) (A) (A) (A) (A) (A)
                 (A) (A) (A) (A) (A) (A) (A) (A) (A) (A) (A) (A)
                 (A) (A) (A) (A) (A) (A) (A) (A) (A) (A) (A) (A)
                 (A) (A) (A) (A) (A) (A) (A) (A) (A) (A) (A) (A)
                 (A) (A) (A) (A) (A) (A) (A) (A) (A) (A) (A) (A)
                 (A) (A) (A) (A) (A) (A) (A) (A) (A) (A) (A) (A)
                 (A) (A) (A) (A) (A) (A) (A) (A) (A) (A) (A) (A)
                 (A) (A) (A) (A) (A) (A) (A) (A) (A) (A) (A) (A)
                 (A) (A) (A) (A) (A) (A) (A) (A) (A) (A) (A) (A)
                 (A) (A) (A) (A) (A) (A) (A) (A) (A) (A) (A) (A)
                 (A) (A) (A) (A) (A) (A) (A) (A) (A) (A) (A) (A)
                 (A) (A) (A) (A) (A) (A) (A) (A) (A) (A) (A) (A)
                 (A) (A) (A) (A) (A) (A) (A) (A) (A) (A) (A) (A)
                 (A) (A) (A) (A) (A) (A) (A) (A) (A) (A) (A) (A)
                 (A) (A) (A) (A) (A) (A) (A) (A) (A) (A) (A) (A)
                 (A) (A) (A) (A) (A) (A) (A) (A) (A) (A) (A) (A)
                 (A) (A) (A) (A) (A) (A) (A) (A) (A) (A) (A) (A)
                 (A) (A) (A) (A) (A) (A) (A) (A)
 The electronic state is 1-A.
 Alpha  occ. eigenvalues --  -19.20496 -19.20394 -19.19328 -19.14030 -19.13442
 Alpha  occ. eigenvalues --  -14.35210 -10.27560 -10.27126 -10.26781 -10.21793
 Alpha  occ. eigenvalues --  -10.21147 -10.21039  -1.11735  -1.08100  -1.03826
 Alpha  occ. eigenvalues --   -1.02338  -0.92494  -0.82455  -0.79746  -0.76246
 Alpha  occ. eigenvalues --   -0.71784  -0.63711  -0.59832  -0.57207  -0.53370
 Alpha  occ. eigenvalues --   -0.51933  -0.51048  -0.49184  -0.47717  -0.47065
 Alpha  occ. eigenvalues --   -0.45509  -0.45155  -0.43687  -0.42804  -0.41300
 Alpha  occ. eigenvalues --   -0.39514  -0.39147  -0.38165  -0.36684  -0.36554
 Alpha  occ. eigenvalues --   -0.35981  -0.34791  -0.30415  -0.25739  -0.25216
 Alpha  occ. eigenvalues --   -0.23650  -0.20185
 Alpha virt. eigenvalues --   -0.03330  -0.00001   0.00764   0.03807   0.07112
 Alpha virt. eigenvalues --    0.09177   0.09806   0.10901   0.11885   0.13546
 Alpha virt. eigenvalues --    0.14868   0.14986   0.16614   0.17717   0.18369
 Alpha virt. eigenvalues --    0.19690   0.21107   0.22505   0.23703   0.26776
 Alpha virt. eigenvalues --    0.28991   0.30672   0.34349   0.41213   0.42409
 Alpha virt. eigenvalues --    0.45599   0.45801   0.46663   0.48726   0.49086
 Alpha virt. eigenvalues --    0.50439   0.52418   0.53702   0.55082   0.57524
 Alpha virt. eigenvalues --    0.58241   0.58814   0.59322   0.60670   0.61209
 Alpha virt. eigenvalues --    0.62334   0.63317   0.64955   0.65653   0.66765
 Alpha virt. eigenvalues --    0.68002   0.70109   0.71732   0.71844   0.73027
 Alpha virt. eigenvalues --    0.73301   0.75560   0.76619   0.77562   0.77831
 Alpha virt. eigenvalues --    0.78443   0.79095   0.79883   0.80334   0.81866
 Alpha virt. eigenvalues --    0.82619   0.83476   0.86016   0.86218   0.86830
 Alpha virt. eigenvalues --    0.87765   0.88635   0.89629   0.90752   0.91167
 Alpha virt. eigenvalues --    0.92951   0.93452   0.95400   0.96849   0.97139
 Alpha virt. eigenvalues --    0.98046   0.98763   1.00560   1.00888   1.03460
 Alpha virt. eigenvalues --    1.04939   1.05072   1.07740   1.08276   1.09466
 Alpha virt. eigenvalues --    1.13645   1.15932   1.16901   1.20544   1.21535
 Alpha virt. eigenvalues --    1.22576   1.23411   1.26198   1.26573   1.31011
 Alpha virt. eigenvalues --    1.31724   1.33701   1.35376   1.35847   1.37495
 Alpha virt. eigenvalues --    1.37854   1.39401   1.40244   1.43109   1.44119
 Alpha virt. eigenvalues --    1.46870   1.49495   1.51391   1.52511   1.53985
 Alpha virt. eigenvalues --    1.54631   1.55168   1.56932   1.58418   1.60014
 Alpha virt. eigenvalues --    1.63278   1.63924   1.65365   1.67413   1.68622
 Alpha virt. eigenvalues --    1.70387   1.74310   1.75928   1.78704   1.80604
 Alpha virt. eigenvalues --    1.81492   1.83463   1.84784   1.87306   1.89993
 Alpha virt. eigenvalues --    1.91875   1.92836   1.94620   1.97616   1.99463
 Alpha virt. eigenvalues --    2.02191   2.05231   2.06954   2.09121   2.15248
 Alpha virt. eigenvalues --    2.16376   2.18083   2.21935   2.22366   2.25350
 Alpha virt. eigenvalues --    2.26663   2.29667   2.34087   2.39525   2.42935
 Alpha virt. eigenvalues --    2.43358   2.48591   2.51219   2.54086   2.56036
 Alpha virt. eigenvalues --    2.58849   2.59204   2.61903   2.62556   2.66793
 Alpha virt. eigenvalues --    2.68709   2.69636   2.72507   2.74946   2.75556
 Alpha virt. eigenvalues --    2.77542   2.79473   2.83874   2.86367   2.87884
 Alpha virt. eigenvalues --    2.89129   2.89818   2.90659   2.91558   2.92261
 Alpha virt. eigenvalues --    2.94393   2.95983   2.99348   3.00009   3.00794
 Alpha virt. eigenvalues --    3.02656   3.06857   3.07829   3.10856   3.12009
 Alpha virt. eigenvalues --    3.15727   3.19326   3.22111   3.25755   3.28008
 Alpha virt. eigenvalues --    3.29487   3.31618   3.32691   3.37460   3.39601
 Alpha virt. eigenvalues --    3.43432   3.44909   3.45433   3.47973   3.51628
 Alpha virt. eigenvalues --    3.54817   3.56773   3.59145   3.60934   3.64988
 Alpha virt. eigenvalues --    3.66425   3.68143   3.69677   3.71763   3.74514
 Alpha virt. eigenvalues --    3.78145   3.79855   3.82196   3.88088   3.92832
 Alpha virt. eigenvalues --    3.94251   3.95329   3.96395   4.00478   4.03846
 Alpha virt. eigenvalues --    4.05678   4.09728   4.10633   4.11134   4.12484
 Alpha virt. eigenvalues --    4.13563   4.15599   4.17150   4.20758   4.22506
 Alpha virt. eigenvalues --    4.23193   4.24551   4.24640   4.26428   4.29596
 Alpha virt. eigenvalues --    4.30274   4.32533   4.32734   4.34572   4.35274
 Alpha virt. eigenvalues --    4.36148   4.38261   4.39523   4.40687   4.42830
 Alpha virt. eigenvalues --    4.45568   4.46441   4.48916   4.51196   4.52004
 Alpha virt. eigenvalues --    4.54484   4.55684   4.56826   4.57421   4.58809
 Alpha virt. eigenvalues --    4.60280   4.61265   4.61856   4.63263   4.64081
 Alpha virt. eigenvalues --    4.65942   4.66853   4.67744   4.70530   4.71146
 Alpha virt. eigenvalues --    4.72778   4.73694   4.75835   4.77173   4.78478
 Alpha virt. eigenvalues --    4.79132   4.82192   4.82773   4.85741   4.86454
 Alpha virt. eigenvalues --    4.90543   4.91191   4.94560   4.97122   5.01195
 Alpha virt. eigenvalues --    5.03191   5.04796   5.05918   5.09365   5.10001
 Alpha virt. eigenvalues --    5.12491   5.16904   5.20372   5.24017   5.24651
 Alpha virt. eigenvalues --    5.29144   5.32625   5.37068   5.39557   5.40229
 Alpha virt. eigenvalues --    5.40978   5.42320   5.43597   5.45524   5.48702
 Alpha virt. eigenvalues --    5.48989   5.50074   5.53574   5.55241   5.58276
 Alpha virt. eigenvalues --    5.59229   5.65373   5.69078   5.73077   5.74664
 Alpha virt. eigenvalues --    5.83421   5.84926   5.85456   5.87624   5.92657
 Alpha virt. eigenvalues --    5.97061   6.00423   6.08023   6.10366   6.13488
 Alpha virt. eigenvalues --    6.19540   6.25435   6.32303   6.35228   6.37927
 Alpha virt. eigenvalues --    6.55187   6.77682   6.85375   6.94824   7.13636
 Alpha virt. eigenvalues --    7.21386  10.05300  10.70051  10.80568  11.37857
 Alpha virt. eigenvalues --   11.64411  12.03370  12.47546  12.92370  13.00319
 Alpha virt. eigenvalues --   13.04837  13.36347  13.51140  13.70357
          Condensed to atoms (all electrons):
               1          2          3          4          5          6
     1  C    5.171681   0.369455  -0.048635  -0.064435  -0.016518  -0.004656
     2  C    0.369455   4.627888   0.344699   0.558202  -0.020228  -0.013708
     3  O   -0.048635   0.344699   7.861189  -0.038339   0.001976  -0.000038
     4  C   -0.064435   0.558202  -0.038339   5.013426   0.236165   0.017586
     5  C   -0.016518  -0.020228   0.001976   0.236165   5.443985   0.254803
     6  C   -0.004656  -0.013708  -0.000038   0.017586   0.254803   4.532491
     7  O   -0.000145   0.000324  -0.000000   0.002369  -0.049267   0.731094
     8  C    0.006365  -0.030733  -0.001500   0.327791  -0.049857   0.001046
     9  N   -0.000098  -0.005321   0.002688  -0.023426   0.000844   0.000018
    10  O   -0.000045   0.010390  -0.032798  -0.002366   0.000017  -0.000000
    11  O   -0.000012   0.001213   0.000025  -0.009439  -0.000528   0.000463
    12  O    0.000000   0.000038   0.000000   0.001858  -0.000394  -0.000002
    13  H    0.354254  -0.022037  -0.007392   0.004216  -0.000079   0.000432
    14  H    0.372103  -0.016454   0.001241  -0.005113   0.000739  -0.004613
    15  H    0.369115  -0.016523   0.001753  -0.004410   0.000901  -0.004320
    16  H   -0.007392  -0.054431   0.310461   0.009481  -0.000075  -0.000014
    17  H   -0.000042  -0.000018   0.000003  -0.028155   0.343784  -0.015817
    18  H    0.000061  -0.001116  -0.000011  -0.023214   0.339980  -0.017952
    19  H    0.001105  -0.008581   0.000044   0.015385  -0.122404   0.371723
    20  H   -0.000055  -0.007744   0.003119  -0.056179   0.005251   0.000019
    21  H    0.000007   0.000474  -0.000220   0.004081  -0.000101   0.000002
    22  H    0.000681  -0.006252   0.033901   0.005916   0.000151  -0.000000
    23  H   -0.000000   0.000001  -0.000000  -0.000264  -0.000009  -0.000000
               7          8          9         10         11         12
     1  C   -0.000145   0.006365  -0.000098  -0.000045  -0.000012   0.000000
     2  C    0.000324  -0.030733  -0.005321   0.010390   0.001213   0.000038
     3  O   -0.000000  -0.001500   0.002688  -0.032798   0.000025   0.000000
     4  C    0.002369   0.327791  -0.023426  -0.002366  -0.009439   0.001858
     5  C   -0.049267  -0.049857   0.000844   0.000017  -0.000528  -0.000394
     6  C    0.731094   0.001046   0.000018  -0.000000   0.000463  -0.000002
     7  O    7.648044  -0.000038   0.000000   0.000000  -0.000000   0.000000
     8  C   -0.000038   4.790608   0.286409  -0.043362   0.310927  -0.047868
     9  N    0.000000   0.286409   6.598421   0.197112  -0.034360  -0.005027
    10  O    0.000000  -0.043362   0.197112   8.020693   0.001192   0.000196
    11  O   -0.000000   0.310927  -0.034360   0.001192   7.897464   0.107501
    12  O    0.000000  -0.047868  -0.005027   0.000196   0.107501   7.960580
    13  H   -0.000008  -0.000092   0.000002   0.000003   0.000000  -0.000000
    14  H    0.000125  -0.000043   0.000015   0.000028   0.000000   0.000000
    15  H    0.000111  -0.000197  -0.000004  -0.000001  -0.000000  -0.000000
    16  H   -0.000000  -0.000382  -0.000097   0.001476   0.000000  -0.000000
    17  H   -0.001431  -0.001194   0.001346   0.000005   0.003186  -0.000017
    18  H   -0.001308  -0.004035   0.000153  -0.000004   0.005362  -0.000079
    19  H   -0.053437  -0.000064   0.000003  -0.000000  -0.000004   0.000000
    20  H    0.000000   0.371705  -0.070506   0.012130  -0.039760   0.001785
    21  H   -0.000000  -0.050804   0.327867  -0.022206  -0.003361   0.019411
    22  H   -0.000000  -0.010117  -0.045663   0.287500  -0.000233  -0.000013
    23  H    0.000000   0.000732   0.000733  -0.000009  -0.028453   0.291724
              13         14         15         16         17         18
     1  C    0.354254   0.372103   0.369115  -0.007392  -0.000042   0.000061
     2  C   -0.022037  -0.016454  -0.016523  -0.054431  -0.000018  -0.001116
     3  O   -0.007392   0.001241   0.001753   0.310461   0.000003  -0.000011
     4  C    0.004216  -0.005113  -0.004410   0.009481  -0.028155  -0.023214
     5  C   -0.000079   0.000739   0.000901  -0.000075   0.343784   0.339980
     6  C    0.000432  -0.004613  -0.004320  -0.000014  -0.015817  -0.017952
     7  O   -0.000008   0.000125   0.000111  -0.000000  -0.001431  -0.001308
     8  C   -0.000092  -0.000043  -0.000197  -0.000382  -0.001194  -0.004035
     9  N    0.000002   0.000015  -0.000004  -0.000097   0.001346   0.000153
    10  O    0.000003   0.000028  -0.000001   0.001476   0.000005  -0.000004
    11  O    0.000000   0.000000  -0.000000   0.000000   0.003186   0.005362
    12  O   -0.000000   0.000000  -0.000000  -0.000000  -0.000017  -0.000079
    13  H    0.598560  -0.028461  -0.027107   0.009815   0.000007   0.000005
    14  H   -0.028461   0.542063  -0.028864   0.000025   0.000207  -0.000095
    15  H   -0.027107  -0.028864   0.542999  -0.000022  -0.000082   0.000245
    16  H    0.009815   0.000025  -0.000022   0.425585   0.000006   0.000002
    17  H    0.000007   0.000207  -0.000082   0.000006   0.550442  -0.024171
    18  H    0.000005  -0.000095   0.000245   0.000002  -0.024171   0.557366
    19  H    0.000997   0.002620   0.003556   0.000020   0.004929   0.005135
    20  H    0.000010  -0.000012   0.000020  -0.000053   0.000269   0.000383
    21  H   -0.000000  -0.000000   0.000000   0.000001  -0.000092   0.000010
    22  H   -0.000003  -0.000187   0.000019   0.000189   0.000010  -0.000003
    23  H    0.000000  -0.000000   0.000000  -0.000000  -0.000011   0.000019
              19         20         21         22         23
     1  C    0.001105  -0.000055   0.000007   0.000681  -0.000000
     2  C   -0.008581  -0.007744   0.000474  -0.006252   0.000001
     3  O    0.000044   0.003119  -0.000220   0.033901  -0.000000
     4  C    0.015385  -0.056179   0.004081   0.005916  -0.000264
     5  C   -0.122404   0.005251  -0.000101   0.000151  -0.000009
     6  C    0.371723   0.000019   0.000002  -0.000000  -0.000000
     7  O   -0.053437   0.000000  -0.000000  -0.000000   0.000000
     8  C   -0.000064   0.371705  -0.050804  -0.010117   0.000732
     9  N    0.000003  -0.070506   0.327867  -0.045663   0.000733
    10  O   -0.000000   0.012130  -0.022206   0.287500  -0.000009
    11  O   -0.000004  -0.039760  -0.003361  -0.000233  -0.028453
    12  O    0.000000   0.001785   0.019411  -0.000013   0.291724
    13  H    0.000997   0.000010  -0.000000  -0.000003   0.000000
    14  H    0.002620  -0.000012  -0.000000  -0.000187  -0.000000
    15  H    0.003556   0.000020   0.000000   0.000019   0.000000
    16  H    0.000020  -0.000053   0.000001   0.000189  -0.000000
    17  H    0.004929   0.000269  -0.000092   0.000010  -0.000011
    18  H    0.005135   0.000383   0.000010  -0.000003   0.000019
    19  H    0.694428   0.000003  -0.000000  -0.000000   0.000000
    20  H    0.000003   0.692252  -0.005707  -0.001174   0.000052
    21  H   -0.000000  -0.005707   0.472948   0.003962  -0.000730
    22  H   -0.000000  -0.001174   0.003962   0.433251   0.000001
    23  H    0.000000   0.000052  -0.000730   0.000001   0.410358
 Mulliken charges:
               1
     1  C   -0.502794
     2  C    0.290465
     3  O   -0.432168
     4  C    0.058864
     5  C   -0.369136
     6  C    0.151443
     7  O   -0.276435
     8  C    0.144703
     9  N   -0.231108
    10  O   -0.429949
    11  O   -0.211181
    12  O   -0.329692
    13  H    0.116879
    14  H    0.164676
    15  H    0.162811
    16  H    0.305405
    17  H    0.166837
    18  H    0.163265
    19  H    0.084543
    20  H    0.094191
    21  H    0.254457
    22  H    0.298064
    23  H    0.325858
 Sum of Mulliken charges =  -0.00000
 Mulliken charges with hydrogens summed into heavy atoms:
               1
     1  C   -0.058428
     2  C    0.290465
     3  O   -0.126763
     4  C    0.058864
     5  C   -0.039034
     6  C    0.235986
     7  O   -0.276435
     8  C    0.238895
     9  N    0.023350
    10  O   -0.131885
    11  O   -0.211181
    12  O   -0.003834
 Electronic spatial extent (au):  <R**2>=           2491.8814
 Charge=             -0.0000 electrons
 Dipole moment (field-independent basis, Debye):
    X=             -1.0452    Y=              2.4787    Z=             -1.3564  Tot=              3.0127
 Quadrupole moment (field-independent basis, Debye-Ang):
   XX=            -80.2681   YY=            -58.2227   ZZ=            -72.6021
   XY=            -19.5612   XZ=             -0.0747   YZ=             -0.9294
 Traceless Quadrupole moment (field-independent basis, Debye-Ang):
   XX=             -9.9038   YY=             12.1416   ZZ=             -2.2378
   XY=            -19.5612   XZ=             -0.0747   YZ=             -0.9294
 Octapole moment (field-independent basis, Debye-Ang**2):
  XXX=             66.2701  YYY=             16.1834  ZZZ=             -3.1438  XYY=             27.8573
  XXY=             10.5954  XXZ=            -10.3627  XZZ=             -4.4061  YZZ=             -2.6786
  YYZ=             -5.7668  XYZ=             -7.6033
 Hexadecapole moment (field-independent basis, Debye-Ang**3):
 XXXX=          -1881.4675 YYYY=           -815.2707 ZZZZ=           -179.2494 XXXY=           -199.1778
 XXXZ=             26.6894 YYYX=           -157.8015 YYYZ=             -8.3306 ZZZX=            -12.5741
 ZZZY=             -0.0735 XXYY=           -487.0182 XXZZ=           -324.4812 YYZZ=           -207.6935
 XXYZ=              0.7230 YYXZ=              6.7780 ZZXY=             -0.3744
 N-N= 7.520727167130D+02 E-N=-3.065584088319D+03  KE= 6.614529894797D+02
 PrsmSu:  requested number of processors reduced to:  13 ShMem   1 Linda.
 Calling FoFJK, ICntrl=      2127 FMM=F ISym2X=0 I1Cent= 0 IOpClX= 0 NMat=1 NMatS=1 NMatT=0.
 ***** Axes restored to original set *****
 -------------------------------------------------------------------
 Center     Atomic                   Forces (Hartrees/Bohr)
 Number     Number              X              Y              Z
 -------------------------------------------------------------------
      1        6          -0.006842261    0.000574317    0.001415782
      2        6           0.013730986   -0.000258624    0.007897646
      3        8          -0.010307763   -0.003141903   -0.011600835
      4        6           0.001034640    0.002137321   -0.000740262
      5        6          -0.003740094    0.002046338   -0.006193323
      6        6          -0.016231553   -0.008688610    0.019420565
      7        8           0.022534196    0.007275383   -0.014861022
      8        6           0.005822833   -0.008942737   -0.008375030
      9        7           0.002324986    0.000339371    0.002843394
     10        8          -0.005637626   -0.002969224    0.009739582
     11        8          -0.012246846    0.012775718   -0.006916921
     12        8          -0.009041542   -0.005129834    0.004327461
     13        1           0.004666706    0.000161312   -0.004126823
     14        1          -0.005901298   -0.006519542   -0.001602519
     15        1          -0.007152901    0.003923362    0.002764538
     16        1           0.006326657   -0.008371638    0.009877270
     17        1           0.003946531   -0.004257938    0.001835389
     18        1           0.003878707    0.002909127    0.005270564
     19        1          -0.002113629    0.002225881   -0.004449396
     20        1          -0.000634106    0.002357325   -0.005181473
     21        1          -0.005194890    0.002467531    0.005902416
     22        1           0.019198023    0.005228444    0.000558491
     23        1           0.001580242    0.003858619   -0.007805493
 -------------------------------------------------------------------
 Cartesian Forces:  Max     0.022534196 RMS     0.007638183

 GradGradGradGradGradGradGradGradGradGradGradGradGradGradGradGradGradGrad
 Berny optimization.
 FormGI is forming the generalized inverse of G from B-inverse, IUseBI=4.
 Internal  Forces:  Max     0.041953799 RMS     0.011622953
 Search for a local minimum.
 Step number   1 out of a maximum of  108
 All quantities printed in internal units (Hartrees-Bohrs-Radians)
 Mixed Optimization -- RFO/linear search
 Second derivative matrix not updated -- first step.
 ITU=  0
     Eigenvalues ---    0.00230   0.00262   0.00365   0.00365   0.00366
     Eigenvalues ---    0.00525   0.00569   0.00878   0.00920   0.01039
     Eigenvalues ---    0.01678   0.01905   0.02633   0.03613   0.04666
     Eigenvalues ---    0.05311   0.06020   0.06087   0.07283   0.07442
     Eigenvalues ---    0.08568   0.11385   0.12354   0.14079   0.16000
     Eigenvalues ---    0.16000   0.16000   0.16000   0.16000   0.16000
     Eigenvalues ---    0.16000   0.18730   0.19896   0.22000   0.22238
     Eigenvalues ---    0.24363   0.24966   0.24980   0.24991   0.24996
     Eigenvalues ---    0.25000   0.26743   0.28686   0.29394   0.33281
     Eigenvalues ---    0.33760   0.33826   0.34019   0.34092   0.34177
     Eigenvalues ---    0.34484   0.34596   0.35151   0.35713   0.37188
     Eigenvalues ---    0.38334   0.43535   0.48404   0.51597   0.52232
     Eigenvalues ---    0.52279   0.53177   0.94123
 RFO step:  Lambda=-6.16351899D-02 EMin= 2.30000000D-03
 Linear search not attempted -- first point.
 Maximum step size (   0.300) exceeded in Quadratic search.
    -- Step size scaled by   0.823
 Iteration  1 RMS(Cart)=  0.24528476 RMS(Int)=  0.01743670
 Iteration  2 RMS(Cart)=  0.04051938 RMS(Int)=  0.00155432
 Iteration  3 RMS(Cart)=  0.00090621 RMS(Int)=  0.00151935
 Iteration  4 RMS(Cart)=  0.00000230 RMS(Int)=  0.00151935
 Iteration  5 RMS(Cart)=  0.00000001 RMS(Int)=  0.00151935
 Variable       Old X    -DE/DX   Delta X   Delta X   Delta X     New X
                                 (Linear)    (Quad)   (Total)
    R1        2.81860   0.01502   0.00000   0.03134   0.03134   2.84994
    R2        2.06336   0.00250   0.00000   0.00505   0.00505   2.06841
    R3        2.07033  -0.00296   0.00000  -0.00604  -0.00604   2.06429
    R4        2.06520  -0.00048   0.00000  -0.00098  -0.00098   2.06422
    R5        2.61511  -0.00425   0.00000  -0.00641  -0.00641   2.60870
    R6        2.56788  -0.00554   0.00000  -0.00769  -0.00769   2.56020
    R7        1.84378  -0.01403   0.00000  -0.01977  -0.01977   1.82401
    R8        2.90662  -0.00335   0.00000  -0.00791  -0.00791   2.89871
    R9        2.94972  -0.00376   0.00000  -0.00941  -0.00941   2.94031
   R10        2.89188  -0.00419   0.00000  -0.00971  -0.00971   2.88218
   R11        2.07175   0.00048   0.00000   0.00098   0.00098   2.07273
   R12        2.07738  -0.00101   0.00000  -0.00207  -0.00207   2.07530
   R13        2.31089  -0.02502   0.00000  -0.02054  -0.02054   2.29035
   R14        2.05430   0.00526   0.00000   0.01049   0.01049   2.06478
   R15        2.80598   0.00967   0.00000   0.01981   0.01981   2.82579
   R16        2.73882  -0.02050   0.00000  -0.03793  -0.03793   2.70090
   R17        2.07624   0.00270   0.00000   0.00555   0.00555   2.08179
   R18        2.75564  -0.00941   0.00000  -0.01786  -0.01786   2.73778
   R19        1.93715  -0.00565   0.00000  -0.00936  -0.00936   1.92779
   R20        1.84987  -0.01932   0.00000  -0.02753  -0.02753   1.82235
   R21        2.77832  -0.00739   0.00000  -0.01452  -0.01452   2.76380
   R22        1.84333  -0.00830   0.00000  -0.01169  -0.01169   1.83164
    A1        1.98224  -0.01100   0.00000  -0.04071  -0.04032   1.94192
    A2        1.90283   0.00904   0.00000   0.03424   0.03410   1.93694
    A3        1.90807   0.01012   0.00000   0.03677   0.03664   1.94471
    A4        1.83492   0.00136   0.00000   0.00659   0.00697   1.84188
    A5        1.85627  -0.00060   0.00000  -0.00341  -0.00304   1.85322
    A6        1.98020  -0.01032   0.00000  -0.03864  -0.03922   1.94099
    A7        1.96984  -0.00798   0.00000  -0.02032  -0.02087   1.94898
    A8        2.21797   0.00705   0.00000   0.01944   0.01889   2.23686
    A9        2.09366   0.00126   0.00000   0.00424   0.00369   2.09734
   A10        1.92281  -0.00423   0.00000  -0.01572  -0.01572   1.90709
   A11        2.19894   0.01044   0.00000   0.02734   0.02712   2.22606
   A12        2.08780   0.03144   0.00000   0.08284   0.08254   2.17034
   A13        1.99618  -0.04195   0.00000  -0.11102  -0.11117   1.88501
   A14        2.14870   0.01994   0.00000   0.06352   0.06313   2.21183
   A15        1.89483  -0.00592   0.00000  -0.01762  -0.01804   1.87679
   A16        1.87744  -0.00494   0.00000  -0.01246  -0.01311   1.86433
   A17        1.82899  -0.00439   0.00000  -0.00754  -0.00767   1.82132
   A18        1.81188  -0.00382   0.00000  -0.00393  -0.00429   1.80759
   A19        1.88907  -0.00275   0.00000  -0.03220  -0.03258   1.85649
   A20        2.17108  -0.01837   0.00000  -0.05369  -0.05369   2.11739
   A21        2.07754   0.00792   0.00000   0.02214   0.02214   2.09967
   A22        2.03457   0.01045   0.00000   0.03156   0.03156   2.06613
   A23        1.97984   0.03440   0.00000   0.10160   0.09455   2.07438
   A24        1.91997  -0.02704   0.00000  -0.11649  -0.11359   1.80637
   A25        1.89985  -0.00188   0.00000   0.02644   0.02026   1.92011
   A26        1.88476  -0.01775   0.00000  -0.08322  -0.07967   1.80510
   A27        1.93817  -0.00008   0.00000   0.04319   0.03792   1.97609
   A28        1.83577   0.00990   0.00000   0.01894   0.02024   1.85601
   A29        1.93602   0.03428   0.00000   0.09183   0.09190   2.02792
   A30        1.80224  -0.00296   0.00000  -0.00595  -0.00549   1.79675
   A31        1.73112  -0.00954   0.00000  -0.03141  -0.03140   1.69972
   A32        1.79633   0.00792   0.00000   0.02943   0.02943   1.82576
   A33        1.86658  -0.01198   0.00000  -0.03166  -0.03166   1.83492
   A34        1.68157   0.00515   0.00000   0.01914   0.01914   1.70071
    D1       -0.06396  -0.00233   0.00000  -0.02688  -0.02681  -0.09077
    D2        3.01405   0.00362   0.00000   0.03517   0.03509   3.04914
    D3       -2.10348  -0.00335   0.00000  -0.03311  -0.03266  -2.13614
    D4        0.97454   0.00260   0.00000   0.02894   0.02924   1.00378
    D5        2.00591  -0.00314   0.00000  -0.03184  -0.03213   1.97378
    D6       -1.19926   0.00281   0.00000   0.03021   0.02977  -1.16949
    D7        0.10031   0.00082   0.00000   0.00797   0.00756   0.10787
    D8       -2.98275  -0.00493   0.00000  -0.04986  -0.04945  -3.03220
    D9        0.13754   0.00397   0.00000   0.03487   0.03576   0.17330
   D10       -3.02997  -0.00025   0.00000  -0.00872  -0.01016  -3.04013
   D11       -3.07167   0.01002   0.00000   0.10013   0.10158  -2.97009
   D12        0.04400   0.00580   0.00000   0.05655   0.05566   0.09966
   D13       -0.05858  -0.00171   0.00000  -0.02027  -0.01954  -0.07811
   D14       -2.20055  -0.00580   0.00000  -0.04387  -0.04288  -2.24342
   D15        2.04216   0.00320   0.00000   0.01003   0.01065   2.05282
   D16        3.10776   0.00141   0.00000   0.01891   0.01808   3.12583
   D17        0.96579  -0.00268   0.00000  -0.00469  -0.00526   0.96053
   D18       -1.07469   0.00632   0.00000   0.04921   0.04827  -1.02642
   D19        1.22402   0.02527   0.00000   0.23478   0.23686   1.46088
   D20       -2.94614   0.00640   0.00000   0.11281   0.11144  -2.83470
   D21       -0.94319   0.00247   0.00000   0.08685   0.08577  -0.85742
   D22       -1.94061   0.02213   0.00000   0.19768   0.20001  -1.74060
   D23        0.17242   0.00326   0.00000   0.07572   0.07459   0.24701
   D24        2.17537  -0.00067   0.00000   0.04975   0.04892   2.22429
   D25        3.10868   0.00021   0.00000   0.00103   0.00107   3.10974
   D26       -0.03454   0.00029   0.00000   0.00202   0.00205  -0.03249
   D27       -1.00282   0.00284   0.00000   0.01743   0.01755  -0.98526
   D28        2.13715   0.00292   0.00000   0.01842   0.01854   2.15569
   D29        0.97756  -0.00338   0.00000  -0.02252  -0.02268   0.95488
   D30       -2.16566  -0.00330   0.00000  -0.02153  -0.02169  -2.18735
   D31       -1.23987  -0.02188   0.00000  -0.17108  -0.17355  -1.41343
   D32       -3.07961  -0.02176   0.00000  -0.16509  -0.16773   3.03584
   D33        2.91061   0.00267   0.00000  -0.02993  -0.02915   2.88146
   D34        1.07087   0.00279   0.00000  -0.02394  -0.02332   1.04755
   D35        0.90637   0.00104   0.00000  -0.02797  -0.02604   0.88033
   D36       -0.93337   0.00115   0.00000  -0.02198  -0.02021  -0.95358
   D37        3.09415  -0.01106   0.00000  -0.04015  -0.04447   3.04968
   D38       -1.01993   0.00259   0.00000  -0.04369  -0.03930  -1.05923
   D39        1.05083  -0.00100   0.00000  -0.02433  -0.02440   1.02643
   D40        0.97525   0.00072   0.00000   0.02110   0.02161   0.99687
   D41        2.86189   0.00321   0.00000   0.02730   0.02679   2.88868
   D42        2.88878  -0.00229   0.00000  -0.02882  -0.02882   2.85996
         Item               Value     Threshold  Converged?
 Maximum Force            0.041954     0.000450     NO 
 RMS     Force            0.011623     0.000300     NO 
 Maximum Displacement     0.927144     0.001800     NO 
 RMS     Displacement     0.271249     0.001200     NO 
 Predicted change in Energy=-3.955425D-02
 GradGradGradGradGradGradGradGradGradGradGradGradGradGradGradGradGradGrad

                          Input orientation:                          
 ---------------------------------------------------------------------
 Center     Atomic      Atomic             Coordinates (Angstroms)
 Number     Number       Type             X           Y           Z
 ---------------------------------------------------------------------
      1          6           0        0.813604    0.034286   -0.312679
      2          6           0        2.309116   -0.071510   -0.149298
      3          8           0        2.972500    0.228976   -1.322034
      4          6           0        3.008173   -0.407703    0.961455
      5          6           0        2.457149   -0.968345    2.278649
      6          6           0        0.989568   -1.173885    2.639403
      7          8           0        0.663776   -1.657153    3.702070
      8          6           0        4.559835   -0.365086    1.068674
      9          7           0        5.225216    0.933699    1.394983
     10          8           0        5.406700    1.854278    0.291110
     11          8           0        4.837644   -1.176666    2.211881
     12          8           0        6.296218   -1.266770    2.270829
     13          1           0        0.548610    0.417374   -1.303170
     14          1           0        0.391900    0.747473    0.399228
     15          1           0        0.332612   -0.942562   -0.225403
     16          1           0        2.335733    0.539443   -1.977621
     17          1           0        2.853102   -0.348974    3.092690
     18          1           0        2.896373   -1.966605    2.407528
     19          1           0        0.203614   -0.884683    1.937626
     20          1           0        5.011677   -0.879903    0.205885
     21          1           0        6.203754    0.667607    1.506091
     22          1           0        4.518103    1.996730   -0.055391
     23          1           0        6.365641   -1.583641    3.184196
 ---------------------------------------------------------------------
                    Distance matrix (angstroms):
                    1          2          3          4          5
     1  C    0.000000
     2  C    1.508125   0.000000
     3  O    2.391136   1.380464   0.000000
     4  C    2.575830   1.354798   2.370855   0.000000
     5  C    3.228233   2.592519   3.829371   1.533932   0.000000
     6  C    3.194594   3.276171   4.646830   2.734467   1.525183
     7  O    4.359086   4.478219   5.842030   3.816844   2.390977
     8  C    4.012715   2.575923   2.930534   1.555946   2.499850
     9  N    4.815327   3.449477   3.599104   2.627277   3.472871
    10  O    4.977295   3.673914   3.342031   3.364350   4.540635
    11  O    4.902316   3.631803   4.235935   2.345599   2.390526
    12  O    6.198896   4.814835   5.117911   3.641935   3.850658
    13  H    1.094555   2.160974   2.431274   3.443650   4.288608
    14  H    1.092375   2.155768   3.145009   2.914690   3.277424
    15  H    1.092339   2.161271   3.089355   2.975455   3.283991
    16  H    2.311729   1.927884   0.965223   3.160289   4.517078
    17  H    3.987854   3.298999   4.453995   2.137676   1.096841
    18  H    3.967495   3.236296   4.328511   2.129273   1.098203
    19  H    2.506086   3.074027   4.419542   3.007652   2.280727
    20  H    4.327640   2.843147   2.778919   2.192689   3.290864
    21  H    5.723874   4.295906   4.316444   3.415356   4.160557
    22  H    4.200083   3.027550   2.668002   3.015818   4.299645
    23  H    6.758028   5.463892   5.924955   4.194759   4.058931
                    6          7          8          9         10
     6  C    0.000000
     7  O    1.212002   0.000000
     8  C    3.983485   4.876832   0.000000
     9  N    4.891953   5.730786   1.495343   0.000000
    10  O    5.847675   6.816167   2.499472   1.448771   0.000000
    11  O    3.871753   4.457881   1.429252   2.295904   3.633154
    12  O    5.320244   5.824538   2.296352   2.599271   3.801508
    13  H    4.274393   5.419350   4.725232   5.423769   5.311070
    14  H    3.011181   4.094497   4.365505   4.938336   5.136626
    15  H    2.948257   4.005666   4.458423   5.484851   5.816827
    16  H    5.105347   6.315011   3.878752   4.458588   4.038164
    17  H    2.087751   2.622179   2.647610   3.186595   4.384522
    18  H    2.077997   2.599247   2.669176   3.854935   5.037868
    19  H    1.092636   1.980334   4.472329   5.368190   6.106147
    20  H    4.710180   5.633087   1.101636   2.179152   2.763883
    21  H    5.644752   6.396733   1.990040   1.020140   1.876076
    22  H    5.455756   6.505783   2.615997   1.932260   0.964344
    23  H    5.419120   5.725807   3.036650   3.292241   4.594431
                   11         12         13         14         15
    11  O    0.000000
    12  O    1.462542   0.000000
    13  H    5.769953   6.974582   0.000000
    14  H    5.172298   6.513143   1.741173   0.000000
    15  H    5.127424   6.473089   1.748617   1.802747   0.000000
    16  H    5.172670   6.082529   1.914051   3.077527   3.046162
    17  H    2.323640   3.656891   5.022106   3.809783   4.208914
    18  H    2.104950   3.473816   4.996461   4.203792   3.814952
    19  H    4.651312   6.113660   3.509577   2.250789   2.167645
    20  H    2.035283   2.462459   4.886629   4.901844   4.699318
    21  H    2.401196   2.082112   6.319432   5.916855   6.329379
    22  H    3.913192   4.384452   4.450640   4.335076   5.117293
    23  H    1.856286   0.969261   7.614352   6.991118   6.959439
                   16         17         18         19         20
    16  H    0.000000
    17  H    5.173490   0.000000
    18  H    5.081744   1.757284   0.000000
    19  H    4.680088   2.939548   2.939781   0.000000
    20  H    3.734021   3.643484   3.240782   5.110423   0.000000
    21  H    5.207136   3.844165   4.323243   6.212689   2.346566
    22  H    3.252906   4.264384   4.940041   5.557830   2.930340
    23  H    6.884184   3.724340   3.575709   6.325588   3.346461
                   21         22         23
    21  H    0.000000
    22  H    2.654470   0.000000
    23  H    2.812536   5.169852   0.000000
 Stoichiometry    C6H11NO5
 Framework group  C1[X(C6H11NO5)]
 Deg. of freedom    63
 Full point group                 C1      NOp   1
 Largest Abelian subgroup         C1      NOp   1
 Largest concise Abelian subgroup C1      NOp   1
                         Standard orientation:                         
 ---------------------------------------------------------------------
 Center     Atomic      Atomic             Coordinates (Angstroms)
 Number     Number       Type             X           Y           Z
 ---------------------------------------------------------------------
      1          6           0       -2.141444    2.073652   -0.092645
      2          6           0       -0.752106    1.533317   -0.321165
      3          8           0        0.115913    2.520673   -0.742294
      4          6           0       -0.311342    0.262303   -0.160772
      5          6           0       -1.153858   -0.994209    0.092789
      6          6           0       -2.662308   -1.052308    0.310471
      7          8           0       -3.235415   -2.108093    0.471145
      8          6           0        1.175454   -0.175298   -0.298292
      9          7           0        2.085453   -0.018883    0.877925
     10          8           0        2.631373    1.305858    1.092334
     11          8           0        1.091950   -1.592085   -0.467126
     12          8           0        2.463652   -2.026958   -0.728566
     13          1           0       -2.169969    3.160766   -0.216825
     14          1           0       -2.469699    1.887622    0.932500
     15          1           0       -2.851958    1.665962   -0.815254
     16          1           0       -0.332489    3.374741   -0.708226
     17          1           0       -0.732942   -1.503074    0.968545
     18          1           0       -0.990973   -1.663870   -0.762238
     19          1           0       -3.252990   -0.133217    0.325278
     20          1           0        1.601021    0.223667   -1.232808
     21          1           0        2.946269   -0.465919    0.561948
     22          1           0        1.858708    1.877261    1.172626
     23          1           0        2.330683   -2.971654   -0.557294
 ---------------------------------------------------------------------
 Rotational constants (GHZ):           0.9682167           0.6697088           0.4411387
 Standard basis: 6-31G(2df,p) (6D, 7F)
 There are   427 symmetry adapted cartesian basis functions of A   symmetry.
 There are   391 symmetry adapted basis functions of A   symmetry.
   391 basis functions,   605 primitive gaussians,   427 cartesian basis functions
    47 alpha electrons       47 beta electrons
       nuclear repulsion energy       747.4639899072 Hartrees.
 NAtoms=   23 NActive=   23 NUniq=   23 SFac= 1.00D+00 NAtFMM=   60 NAOKFM=F Big=F
 Integral buffers will be    131072 words long.
 Raffenetti 2 integral format.
 Two-electron integral symmetry is turned on.
 One-electron integrals computed using PRISM.
 PrsmSu:  requested number of processors reduced to:  13 ShMem   1 Linda.
 NBasis=   391 RedAO= T EigKep=  3.35D-04  NBF=   391
 NBsUse=   391 1.00D-06 EigRej= -1.00D+00 NBFU=   391
 Initial guess from the checkpoint file:  "CCqOrdCqCCdOrCqNOrOO.chk"
 B after Tr=    -0.000000    0.000000   -0.000000
         Rot=    0.999312   -0.027420   -0.024491    0.004956 Ang=  -4.25 deg.
 ExpMin= 1.61D-01 ExpMax= 5.48D+03 ExpMxC= 8.25D+02 IAcc=2 IRadAn=         4 AccDes= 0.00D+00
 Harris functional with IExCor=  402 and IRadAn=       4 diagonalized for initial guess.
 HarFok:  IExCor=  402 AccDes= 0.00D+00 IRadAn=         4 IDoV= 1 UseB2=F ITyADJ=14
 ICtDFT=  3500011 ScaDFX=  1.000000  1.000000  1.000000  1.000000
 FoFCou: FMM=F IPFlag=           0 FMFlag=      100000 FMFlg1=           0
         NFxFlg=           0 DoJE=T BraDBF=F KetDBF=T FulRan=T
         wScrn=  0.000000 ICntrl=       500 IOpCl=  0 I1Cent=   200000004 NGrid=           0
         NMat0=    1 NMatS0=      1 NMatT0=    0 NMatD0=    1 NMtDS0=    0 NMtDT0=    0
 Petite list used in FoFCou.
 Requested convergence on RMS density matrix=1.00D-08 within 128 cycles.
 Requested convergence on MAX density matrix=1.00D-06.
 Requested convergence on             energy=1.00D-06.
 No special actions if energy rises.
 Integral accuracy reduced to 1.0D-05 until final iterations.
 Initial convergence to 1.0D-05 achieved.  Increase integral accuracy.
 SCF Done:  E(RB3LYP) =  -665.939717410     A.U. after   14 cycles
            NFock= 14  Conv=0.62D-08     -V/T= 2.0066
 PrsmSu:  requested number of processors reduced to:  13 ShMem   1 Linda.
 Calling FoFJK, ICntrl=      2127 FMM=F ISym2X=0 I1Cent= 0 IOpClX= 0 NMat=1 NMatS=1 NMatT=0.
 ***** Axes restored to original set *****
 -------------------------------------------------------------------
 Center     Atomic                   Forces (Hartrees/Bohr)
 Number     Number              X              Y              Z
 -------------------------------------------------------------------
      1        6          -0.001200912   -0.001788981    0.003710321
      2        6           0.010742849   -0.000455847   -0.000725976
      3        8           0.008977121    0.003782395    0.004781441
      4        6          -0.001085072    0.005696438    0.004104416
      5        6          -0.012782191    0.005325572   -0.002747921
      6        6          -0.000654536   -0.002449488    0.008053044
      7        8           0.005973182    0.002935704   -0.006773066
      8        6           0.000260136   -0.007882005   -0.011199515
      9        7          -0.006003261    0.003738789    0.003100976
     10        8          -0.008630280   -0.010121042   -0.009752888
     11        8           0.014719817    0.003476721   -0.004959109
     12        8          -0.001810332   -0.008343819    0.003044031
     13        1           0.001885083   -0.000381129   -0.001277149
     14        1          -0.003064949   -0.003943936    0.002488222
     15        1          -0.003485073    0.001247600    0.002775370
     16        1           0.004007949   -0.001782877    0.004175690
     17        1           0.001117517   -0.003497174    0.001683084
     18        1          -0.001018850    0.003095661    0.003193684
     19        1          -0.004252403    0.003053006   -0.006852321
     20        1           0.000206480    0.006197163   -0.003931231
     21        1          -0.004825907   -0.001145564    0.007592619
     22        1          -0.001409534    0.001468390    0.001594606
     23        1           0.002333167    0.001774424   -0.002078330
 -------------------------------------------------------------------
 Cartesian Forces:  Max     0.014719817 RMS     0.005219992

 GradGradGradGradGradGradGradGradGradGradGradGradGradGradGradGradGradGrad
 Berny optimization.
 Using GEDIIS/GDIIS optimizer.
 FormGI is forming the generalized inverse of G from B-inverse, IUseBI=4.
 Internal  Forces:  Max     0.047559243 RMS     0.010298074
 Search for a local minimum.
 Step number   2 out of a maximum of  108
 All quantities printed in internal units (Hartrees-Bohrs-Radians)
 Mixed Optimization -- RFO/linear search
 Update second derivatives using D2CorX and points    1    2
 DE= -3.82D-03 DEPred=-3.96D-02 R= 9.66D-02
 Trust test= 9.66D-02 RLast= 5.52D-01 DXMaxT set to 1.50D-01
 ITU= -1  0
 Use linear search instead of GDIIS.
 Linear search step of   0.152 exceeds DXMaxT=   0.150 but not scaled.
 Quartic linear search produced a step of -0.51521.
 Iteration  1 RMS(Cart)=  0.13449471 RMS(Int)=  0.00466371
 Iteration  2 RMS(Cart)=  0.00905238 RMS(Int)=  0.00037401
 Iteration  3 RMS(Cart)=  0.00003840 RMS(Int)=  0.00037362
 Iteration  4 RMS(Cart)=  0.00000001 RMS(Int)=  0.00037362
 Variable       Old X    -DE/DX   Delta X   Delta X   Delta X     New X
                                 (Linear)    (Quad)   (Total)
    R1        2.84994   0.00464  -0.01615   0.00000  -0.01615   2.83380
    R2        2.06841   0.00057  -0.00260   0.00000  -0.00260   2.06581
    R3        2.06429   0.00023   0.00311   0.00000   0.00311   2.06740
    R4        2.06422   0.00064   0.00051   0.00000   0.00051   2.06473
    R5        2.60870  -0.00093   0.00330   0.00000   0.00330   2.61200
    R6        2.56020  -0.02310   0.00396   0.00000   0.00396   2.56416
    R7        1.82401  -0.00605   0.01019   0.00000   0.01019   1.83420
    R8        2.89871  -0.00188   0.00408   0.00000   0.00408   2.90279
    R9        2.94031  -0.00659   0.00485   0.00000   0.00485   2.94516
   R10        2.88218  -0.00282   0.00500   0.00000   0.00500   2.88718
   R11        2.07273  -0.00032  -0.00050   0.00000  -0.00050   2.07223
   R12        2.07530  -0.00285   0.00107   0.00000   0.00107   2.07637
   R13        2.29035  -0.00871   0.01058   0.00000   0.01058   2.30093
   R14        2.06478   0.00827  -0.00540   0.00000  -0.00540   2.05938
   R15        2.82579  -0.01400  -0.01020   0.00000  -0.01020   2.81559
   R16        2.70090   0.00153   0.01954   0.00000   0.01954   2.72044
   R17        2.08179   0.00027  -0.00286   0.00000  -0.00286   2.07893
   R18        2.73778  -0.00054   0.00920   0.00000   0.00920   2.74698
   R19        1.92779  -0.00350   0.00482   0.00000   0.00482   1.93261
   R20        1.82235   0.00094   0.01418   0.00000   0.01418   1.83653
   R21        2.76380   0.00096   0.00748   0.00000   0.00748   2.77128
   R22        1.83164  -0.00237   0.00602   0.00000   0.00602   1.83766
    A1        1.94192  -0.00329   0.02077   0.00000   0.02068   1.96260
    A2        1.93694   0.00297  -0.01757   0.00000  -0.01754   1.91940
    A3        1.94471   0.00360  -0.01888   0.00000  -0.01885   1.92586
    A4        1.84188   0.00176  -0.00359   0.00000  -0.00368   1.83820
    A5        1.85322   0.00034   0.00157   0.00000   0.00148   1.85470
    A6        1.94099  -0.00574   0.02020   0.00000   0.02035   1.96133
    A7        1.94898   0.02053   0.01075   0.00000   0.01089   1.95987
    A8        2.23686  -0.00162  -0.00973   0.00000  -0.00960   2.22726
    A9        2.09734  -0.01892  -0.00190   0.00000  -0.00177   2.09558
   A10        1.90709  -0.00002   0.00810   0.00000   0.00810   1.91519
   A11        2.22606  -0.00570  -0.01397   0.00000  -0.01391   2.21214
   A12        2.17034  -0.04175  -0.04252   0.00000  -0.04245   2.12789
   A13        1.88501   0.04756   0.05727   0.00000   0.05732   1.94233
   A14        2.21183  -0.01137  -0.03252   0.00000  -0.03243   2.17940
   A15        1.87679   0.00484   0.00929   0.00000   0.00940   1.88619
   A16        1.86433   0.00497   0.00675   0.00000   0.00692   1.87124
   A17        1.82132   0.00259   0.00395   0.00000   0.00398   1.82530
   A18        1.80759   0.00266   0.00221   0.00000   0.00230   1.80989
   A19        1.85649  -0.00336   0.01679   0.00000   0.01688   1.87337
   A20        2.11739  -0.00406   0.02766   0.00000   0.02766   2.14505
   A21        2.09967  -0.00049  -0.01140   0.00000  -0.01140   2.08827
   A22        2.06613   0.00456  -0.01626   0.00000  -0.01626   2.04987
   A23        2.07438  -0.03059  -0.04871   0.00000  -0.04709   2.02729
   A24        1.80637   0.02267   0.05852   0.00000   0.05786   1.86423
   A25        1.92011   0.00518  -0.01044   0.00000  -0.00892   1.91120
   A26        1.80510   0.00552   0.04105   0.00000   0.04022   1.84531
   A27        1.97609   0.00771  -0.01954   0.00000  -0.01826   1.95784
   A28        1.85601  -0.00659  -0.01043   0.00000  -0.01071   1.84529
   A29        2.02792  -0.03747  -0.04735   0.00000  -0.04736   1.98056
   A30        1.79675   0.00310   0.00283   0.00000   0.00272   1.79947
   A31        1.69972   0.01209   0.01618   0.00000   0.01618   1.71590
   A32        1.82576  -0.00131  -0.01516   0.00000  -0.01516   1.81059
   A33        1.83492   0.00806   0.01631   0.00000   0.01631   1.85123
   A34        1.70071   0.00451  -0.00986   0.00000  -0.00986   1.69085
    D1       -0.09077   0.00066   0.01381   0.00000   0.01380  -0.07698
    D2        3.04914  -0.00035  -0.01808   0.00000  -0.01806   3.03108
    D3       -2.13614  -0.00135   0.01683   0.00000   0.01672  -2.11942
    D4        1.00378  -0.00235  -0.01506   0.00000  -0.01514   0.98864
    D5        1.97378   0.00128   0.01655   0.00000   0.01663   1.99041
    D6       -1.16949   0.00028  -0.01534   0.00000  -0.01523  -1.18472
    D7        0.10787  -0.00030  -0.00390   0.00000  -0.00379   0.10408
    D8       -3.03220   0.00060   0.02548   0.00000   0.02537  -3.00682
    D9        0.17330  -0.00594  -0.01842   0.00000  -0.01864   0.15466
   D10       -3.04013  -0.00199   0.00524   0.00000   0.00560  -3.03454
   D11       -2.97009  -0.00699  -0.05233   0.00000  -0.05269  -3.02279
   D12        0.09966  -0.00303  -0.02867   0.00000  -0.02845   0.07120
   D13       -0.07811  -0.00069   0.01007   0.00000   0.00989  -0.06823
   D14       -2.24342   0.00003   0.02209   0.00000   0.02184  -2.22158
   D15        2.05282  -0.00077  -0.00549   0.00000  -0.00564   2.04717
   D16        3.12583  -0.00138  -0.00931   0.00000  -0.00911   3.11673
   D17        0.96053  -0.00066   0.00271   0.00000   0.00285   0.96338
   D18       -1.02642  -0.00145  -0.02487   0.00000  -0.02463  -1.05105
   D19        1.46088  -0.00697  -0.12203   0.00000  -0.12261   1.33827
   D20       -2.83470   0.00050  -0.05742   0.00000  -0.05706  -2.89176
   D21       -0.85742   0.00646  -0.04419   0.00000  -0.04391  -0.90133
   D22       -1.74060  -0.00487  -0.10305   0.00000  -0.10366  -1.84426
   D23        0.24701   0.00260  -0.03843   0.00000  -0.03811   0.20890
   D24        2.22429   0.00857  -0.02520   0.00000  -0.02496   2.19933
   D25        3.10974   0.00008  -0.00055   0.00000  -0.00056   3.10918
   D26       -0.03249   0.00016  -0.00106   0.00000  -0.00107  -0.03356
   D27       -0.98526   0.00061  -0.00904   0.00000  -0.00907  -0.99434
   D28        2.15569   0.00070  -0.00955   0.00000  -0.00958   2.14611
   D29        0.95488  -0.00116   0.01168   0.00000   0.01173   0.96660
   D30       -2.18735  -0.00107   0.01118   0.00000   0.01122  -2.17614
   D31       -1.41343   0.01138   0.08942   0.00000   0.09008  -1.32335
   D32        3.03584   0.00929   0.08641   0.00000   0.08712   3.12296
   D33        2.88146  -0.00537   0.01502   0.00000   0.01480   2.89626
   D34        1.04755  -0.00746   0.01201   0.00000   0.01184   1.05939
   D35        0.88033  -0.00434   0.01342   0.00000   0.01291   0.89324
   D36       -0.95358  -0.00643   0.01041   0.00000   0.00994  -0.94364
   D37        3.04968   0.00680   0.02291   0.00000   0.02401   3.07369
   D38       -1.05923  -0.01477   0.02025   0.00000   0.01914  -1.04009
   D39        1.02643  -0.00634   0.01257   0.00000   0.01258   1.03901
   D40        0.99687   0.00247  -0.01114   0.00000  -0.01126   0.98560
   D41        2.88868   0.00159  -0.01380   0.00000  -0.01368   2.87500
   D42        2.85996  -0.00201   0.01485   0.00000   0.01485   2.87481
         Item               Value     Threshold  Converged?
 Maximum Force            0.047559     0.000450     NO 
 RMS     Force            0.010298     0.000300     NO 
 Maximum Displacement     0.478036     0.001800     NO 
 RMS     Displacement     0.138899     0.001200     NO 
 Predicted change in Energy=-2.240449D-03
 GradGradGradGradGradGradGradGradGradGradGradGradGradGradGradGradGradGrad

                          Input orientation:                          
 ---------------------------------------------------------------------
 Center     Atomic      Atomic             Coordinates (Angstroms)
 Number     Number       Type             X           Y           Z
 ---------------------------------------------------------------------
      1          6           0        0.876724    0.070336   -0.268867
      2          6           0        2.359589   -0.062853   -0.089667
      3          8           0        3.059614    0.300368   -1.224807
      4          6           0        3.027613   -0.446638    1.027299
      5          6           0        2.413798   -1.015987    2.315183
      6          6           0        0.916021   -1.165296    2.577160
      7          8           0        0.468720   -1.652367    3.599528
      8          6           0        4.583289   -0.405803    1.111940
      9          7           0        5.195111    0.937948    1.311793
     10          8           0        5.201089    1.756050    0.110233
     11          8           0        4.957996   -1.180732    2.265848
     12          8           0        6.424158   -1.210561    2.276093
     13          1           0        0.610431    0.503463   -1.236611
     14          1           0        0.470452    0.759107    0.477739
     15          1           0        0.399858   -0.912007   -0.231598
     16          1           0        2.447383    0.661119   -1.885962
     17          1           0        2.783970   -0.422475    3.159689
     18          1           0        2.802273   -2.036545    2.437010
     19          1           0        0.201208   -0.825639    1.827967
     20          1           0        5.012161   -0.932806    0.246720
     21          1           0        6.196024    0.732706    1.355933
     22          1           0        4.265138    1.792386   -0.148930
     23          1           0        6.528002   -1.517394    3.193004
 ---------------------------------------------------------------------
                    Distance matrix (angstroms):
                    1          2          3          4          5
     1  C    0.000000
     2  C    1.499581   0.000000
     3  O    2.394106   1.382210   0.000000
     4  C    2.563909   1.356894   2.372978   0.000000
     5  C    3.196875   2.587413   3.831631   1.536089   0.000000
     6  C    3.102935   3.226645   4.604141   2.716129   1.527829
     7  O    4.254251   4.439831   5.813786   3.823359   2.416164
     8  C    3.983963   2.550748   2.877612   1.558512   2.554762
     9  N    4.679712   3.317510   3.376565   2.587675   3.544059
    10  O    4.656768   3.379718   2.913290   3.227514   4.507215
    11  O    4.964548   3.681009   4.240541   2.408169   2.550004
    12  O    6.236309   4.840948   5.085211   3.698592   4.015267
    13  H    1.093178   2.166967   2.457617   3.445395   4.263343
    14  H    1.094022   2.136916   3.132549   2.880089   3.209947
    15  H    1.092606   2.140503   3.087170   2.950675   3.248516
    16  H    2.330448   1.938689   0.970614   3.170312   4.523652
    17  H    3.954169   3.296627   4.452223   2.146400   1.096575
    18  H    3.932996   3.236592   4.351585   2.136789   1.098768
    19  H    2.378194   2.986265   4.331029   2.961972   2.273580
    20  H    4.286486   2.811781   2.738349   2.187257   3.322189
    21  H    5.601220   4.176231   4.084631   3.396717   4.275900
    22  H    3.802787   2.660177   2.199299   2.815708   4.169684
[...]
 05,0.00112610,-0.00186650,-0.00077573,-0.00032014,-0.00050683,-0.00019
 244,0.00029600,0.00003967,-0.00007221,-0.00017850,-0.00003306,-0.00002
 501,0.00013183,0.00012937,-0.00017705,-0.00062950,-0.00032651,-0.00012
 304,0.00002716,-0.00006717,0.00004748,0.00003058,0.00001944,0.00007103
 ,0.00004340,-0.00003690,0.00012309,-0.00001775,0.00005692,0.01044790,-
 0.02059754,0.01232553,-0.09365602,0.22098600,-0.04649872,0.09072315,-0
 .09496292,-0.00428136,0.00447318,-0.00651654,0.00132261,-0.00109729,0.
 00090999,-0.00059780,0.00030449,0.00098910,-0.00054840,0.00020749,-0.0
 0005200,-0.00031829,0.00063450,0.00019060,0.00031007,-0.00054239,0.000
 03337,0.00017887,-0.00027557,-0.00035208,-0.00029613,-0.00000998,-0.00
 014476,0.00006334,-0.00013816,0.00009411,0.00006683,-0.00004120,-0.000
 00085,-0.00004118,0.00000151,0.00000390,0.00877812,-0.01588257,0.00904
 071,0.05437754,-0.09994019,0.10158684,-0.11496808,-0.02271432,0.112475
 47,-0.00931774,-0.00455668,0.03037243,-0.00752904,-0.00241474,0.000949
 64,0.00051388,-0.00003262,-0.00039051,-0.00063670,-0.00047139,-0.00041
 007,-0.00006648,-0.00095125,-0.00139549,-0.00054482,0.00049699,0.00082
 636,0.00040160,-0.00015253,0.00036004,-0.00000384,0.00004135,-0.000084
 13,0.00000355,0.00004951,-0.00005600,0.00003411,0.00008024,-0.00007515
 ,0.00003290,-0.00000815,-0.00002259,0.00178078,0.00153398,-0.00433204,
 0.00714873,0.00188325,-0.01276770,0.12421887,-0.02257587,-0.05301823,0
 .03782730,-0.00164217,-0.00378520,0.00599274,-0.00253373,0.00188461,0.
 00054725,0.00015603,-0.00025923,-0.00010001,0.00066957,0.00062838,0.00
 020890,-0.00309482,0.00065731,-0.00057062,0.00178399,-0.00106741,0.000
 95505,0.00005689,-0.00012672,0.00005011,-0.00003611,0.00002433,-0.0000
 9669,0.00004760,-0.00005214,0.00000677,0.00004103,-0.00001099,-0.00002
 043,0.00003277,-0.00002405,-0.00000662,0.01347247,0.00529450,-0.022671
 65,-0.01305884,-0.00427085,0.02206497,0.02543690,0.05529339,0.11881789
 ,0.04020796,-0.25374822,-0.00115836,-0.00106318,0.00734379,-0.00352965
 ,-0.00062092,0.00159882,-0.00021594,-0.00033444,-0.00016265,-0.0007719
 7,0.00039290,-0.00120476,-0.00341435,-0.00008842,-0.00128352,0.0014397
 7,-0.00007250,-0.00042362,0.00029128,0.00009711,0.00005611,0.00000749,
 0.00001037,-0.00003979,0.00001126,-0.00002197,-0.00002910,0.00000042,-
 0.00002150,-0.00002694,-0.00001387,-0.00000420,-0.00002564,0.00726940,
 0.00400069,-0.01374817,0.00604651,0.00119202,-0.01123064,-0.12349914,-
 0.04360124,0.27389781,0.00133049,-0.00217963,0.00337045,0.01239256,-0.
 00369223,0.02380805,-0.25432404,0.03980098,-0.26143096,-0.00207434,-0.
 00121879,0.00407828,0.00055932,-0.00021411,0.00089284,0.00080546,-0.00
 034682,-0.00009287,-0.00060523,0.00005925,-0.00026597,-0.00142986,-0.0
 0062229,0.00066267,0.00020659,0.00004443,-0.00049231,-0.00000066,-0.00
 005798,0.00011684,-0.00008556,0.00033471,-0.00036690,0.00019538,-0.000
 02792,0.00006298,0.00030528,-0.00065611,0.00017812,-0.00071277,0.00161
 631,0.00036199,-0.00110298,0.00023465,-0.00023419,0.24402270,0.0000429
 4,0.00144251,-0.00077996,0.00983888,-0.00731864,0.01135401,0.02531602,
 -0.01024138,0.04845144,-0.00206895,0.00081997,0.00136380,-0.00065979,0
 .00239285,0.00078062,0.00044938,-0.00041266,0.00053479,-0.00047057,0.0
 0001431,-0.00026728,-0.00017250,-0.00074166,-0.00044225,0.00010896,0.0
 0029575,-0.00024436,0.00009451,-0.00019692,0.00015697,0.00009371,-0.00
 012682,-0.00004543,-0.00004442,-0.00005787,0.00009016,-0.00073056,-0.0
 0130062,0.00003903,0.00060221,-0.00014771,0.00026714,0.00034622,-0.000
 56633,-0.00018406,-0.03331253,0.01594733,-0.00150516,-0.00045529,0.004
 13510,-0.02625563,0.00505689,-0.03880944,-0.20790836,0.05435547,-0.293
 58085,0.00577814,0.00254849,-0.00117396,-0.00110717,0.00000039,-0.0004
 1054,-0.00003509,-0.00019005,-0.00009720,-0.00013182,0.00011288,0.0002
 0946,-0.00058649,-0.00007450,0.00020785,0.00032049,-0.00000090,0.00016
 551,0.00013191,0.00009837,0.00008754,-0.00006627,-0.00001610,-0.000047
 85,0.00042644,-0.00007905,0.00012631,0.00068591,-0.00004705,0.00015477
 ,0.00183482,-0.00010924,0.00032700,-0.00126150,-0.00089190,0.00000232,
 0.22948816,-0.06048057,0.32923461,-0.00028114,-0.00010057,0.00020531,-
 0.00147060,-0.00119827,0.00115457,0.00012631,0.00026643,0.00117667,0.0
 1085351,-0.00486253,0.01142025,-0.18096586,0.04870469,-0.13022118,-0.0
 1708109,0.00269027,-0.01222758,-0.00072386,0.00393715,0.00314601,0.000
 55197,-0.00132028,0.00034423,-0.00122587,-0.00032289,0.00112715,0.0000
 1244,0.00025677,-0.00024726,-0.00144267,-0.00008682,0.00085915,0.00036
 262,0.00001525,-0.00032268,0.00003401,0.00002558,-0.00000430,0.0000928
 2,0.00002541,-0.00008662,0.00014272,0.00001919,-0.00004494,-0.00017969
 ,0.00010798,0.00018742,0.20116684,-0.00055401,0.00027075,-0.00015293,-
 0.00126468,-0.00109445,0.00002713,-0.00012163,0.00025630,0.00113009,0.
 00572244,-0.00264054,0.00830866,0.04616489,-0.06695329,0.04165852,0.01
 874087,-0.00326701,0.01997536,0.00271291,-0.00243835,-0.00440500,0.000
 22223,0.00095030,0.00131693,-0.00038212,0.00010719,0.00053799,0.000125
 11,0.00036773,-0.00064322,0.00035798,-0.00009318,-0.00047106,-0.000220
 94,-0.00024985,-0.00012629,0.00005358,0.00004179,0.00009110,0.00016010
 ,0.00005821,-0.00021740,0.00034098,-0.00025958,-0.00023127,-0.00014764
 ,0.00010859,0.00006920,-0.05316752,0.06591081,0.00005200,0.00050671,0.
 00014166,0.00291084,0.00238707,-0.00190506,-0.00061614,-0.00022000,-0.
 00154837,-0.01852825,0.00850579,-0.02237641,-0.12391786,0.04000239,-0.
 15078201,0.01093836,-0.00296224,0.01109464,0.00209856,-0.00114430,-0.0
 0327676,-0.00244150,0.00036116,-0.00055310,0.00020819,-0.00013186,0.00
 052090,-0.00001957,-0.00043766,0.00023418,0.00001018,-0.00024945,0.000
 11446,-0.00003327,-0.00039363,0.00061039,0.00000796,-0.00001596,0.0000
 0072,-0.00000471,-0.00005242,-0.00013972,0.00017830,-0.00009636,-0.000
 16605,0.00027389,-0.00021277,-0.00030246,0.13221644,-0.04794059,0.1718
 3156,-0.00011267,-0.00009867,-0.00027318,-0.00048450,0.00085042,-0.001
 92548,-0.00005127,0.00003552,0.00056054,-0.00857204,-0.00920451,-0.000
 11635,-0.13770999,-0.12345537,-0.03048021,0.01006987,0.01664374,0.0044
 5378,0.00212338,-0.00212987,-0.00065116,0.00012508,-0.00170635,0.00160
 427,0.00003278,0.00000891,0.00017260,-0.00008217,-0.00034673,0.0001782
 8,0.00016515,0.00004241,0.00010291,-0.00013731,0.00016718,0.00001586,0
 .00014550,-0.00004170,-0.00019300,0.00012228,0.00000774,0.00012052,-0.
 00008061,0.00069842,-0.00136102,0.00000334,0.00002305,-0.00000134,-0.0
 1111470,-0.01793711,-0.00257361,0.14772961,-0.00041715,0.00041986,0.00
 062214,-0.00109327,0.00104195,-0.00159888,-0.00012403,-0.00004749,0.00
 107405,-0.00408249,-0.00419324,0.00121437,-0.12055931,-0.21374791,-0.0
 3580625,-0.01835599,-0.02373994,-0.00786321,0.00037303,0.00543284,0.00
 242725,0.00056491,-0.00079275,0.00082139,0.00017364,0.00023690,0.00003
 315,-0.00002292,0.00011438,-0.00012148,0.00008517,0.00006844,-0.000185
 73,0.00003412,0.00002411,0.00000426,0.00014252,-0.00010223,0.00001263,
 0.00031691,0.00005248,-0.00039290,0.00096272,-0.00037110,0.00024857,-0
 .00012519,-0.00004406,-0.00000780,0.00519184,0.00805592,0.00107858,0.1
 3402157,0.23033254,-0.00012028,0.00023608,-0.00027694,0.00095663,0.000
 45200,0.00272418,0.00080758,-0.00044956,-0.00159386,0.01717856,0.02134
 683,0.00125823,-0.02920397,-0.03490252,-0.05234026,-0.00939142,-0.0128
 8861,-0.00413557,-0.00006835,0.00304194,0.00031906,0.00026103,0.002184
 37,-0.00397730,-0.00055699,-0.00055537,-0.00000663,-0.00004562,-0.0000
 4634,0.00029843,-0.00020920,-0.00016044,0.00036444,-0.00000116,-0.0000
 1300,0.00006417,-0.00006306,-0.00008277,-0.00033969,-0.00022516,-0.000
 16816,0.00038097,-0.00101844,0.00073354,-0.00084933,0.00013286,-0.0001
 8342,0.00010649,-0.00984522,-0.01692738,-0.00306631,0.02835990,0.04078
 541,0.06075479,-0.00001801,-0.00031400,0.00003897,0.00003124,-0.000361
 18,0.00039067,0.00022152,0.00023055,-0.00034698,0.00069479,-0.00065527
 ,-0.00131502,0.00830155,0.01256454,0.00590686,-0.09308602,-0.07310513,
 -0.03860194,-0.04381867,-0.03023613,-0.01783296,-0.00019970,0.00003037
 ,-0.00013449,-0.00033718,-0.00038616,0.00074827,-0.00084520,0.00036526
 ,0.00021649,0.00000602,0.00001979,-0.00000934,0.00006606,-0.00003063,0
 .00001340,0.00001941,0.00000757,-0.00014534,-0.00001747,0.00001086,0.0
 0000906,-0.00015391,0.00032672,0.00041520,-0.00001562,-0.00000276,0.00
 007498,0.00084503,-0.00118052,-0.00064874,-0.00147083,0.00295181,0.001
 88731,0.12907093,0.00004551,-0.00008782,0.00010302,0.00001887,0.000283
 65,0.00041371,0.00049007,0.00035235,-0.00115740,0.00051733,-0.00042273
 ,-0.00020037,-0.01337857,-0.01263042,-0.01334820,-0.06362946,-0.186526
 82,-0.06930912,-0.01460616,0.01511519,-0.00268206,-0.00077683,-0.00147
 479,-0.00156185,-0.00116114,-0.00000723,0.00112578,-0.00087220,0.00079
 631,0.00013970,-0.00006671,0.00042710,0.00010707,0.00026995,0.00018716
 ,0.00011543,0.00000213,-0.00005038,-0.00015354,-0.00004883,0.00002826,
 -0.00007995,0.00012732,0.00005203,0.00013289,0.00003024,0.00003498,0.0
 0011101,-0.00054516,0.00096479,0.00111554,0.00243214,-0.00287656,-0.00
 251916,0.08989258,0.18516661,0.00000972,0.00034836,0.00016890,-0.00042
 806,0.00044725,-0.00071344,-0.00008651,-0.00019045,0.00037659,-0.00202
 645,0.00174132,0.00379000,-0.00593245,-0.01665769,0.00787838,-0.035837
 51,-0.06642184,-0.09806800,-0.00942341,-0.00346730,0.01834047,0.000120
 34,-0.00044837,-0.00046342,-0.00026506,-0.00011009,0.00019144,-0.00005
 427,0.00031227,-0.00021787,0.00000017,0.00020836,0.00001781,0.00000126
 ,0.00014864,-0.00003613,0.00001674,-0.00000740,0.00018110,0.00005086,0
 .00001458,-0.00010164,0.00007129,-0.00034597,-0.00002648,-0.00002244,-
 0.00012298,-0.00008173,0.00138540,-0.00172697,-0.00054324,0.00198027,-
 0.00220044,0.00017473,0.04977322,0.08772447,0.06911865,0.00032480,0.00
 018293,-0.00021857,-0.00125711,-0.00093525,0.00461207,0.00057287,0.000
 22033,-0.00316662,-0.01139299,-0.01191601,0.02451023,-0.00454911,-0.00
 126115,-0.00113247,0.00026478,-0.00152057,-0.00028749,-0.00043396,0.00
 054587,-0.00000201,-0.09025132,-0.03936867,0.08391758,0.00622226,-0.00
 000338,-0.00901251,-0.00032483,0.00101843,0.00043236,0.00204769,0.0164
 5847,-0.01753634,0.00375738,-0.00063810,-0.00027511,-0.00005061,-0.000
 06840,-0.00003066,-0.00010681,0.00008490,-0.00009000,0.00016658,0.0000
 4732,0.00001522,0.00063538,0.00046830,-0.00004625,0.00040520,0.0002454
 8,-0.00026251,-0.00062914,-0.00016895,0.00107648,0.00002833,0.00026761
 ,0.00015302,0.09357034,0.00007910,0.00000219,-0.00008431,-0.00034008,-
 0.00050870,0.00107101,0.00062332,0.00037227,-0.00014502,-0.00313570,0.
 00042506,0.00522322,-0.00058428,0.00074478,-0.00008374,-0.00009660,-0.
 00060586,-0.00021798,-0.00000655,0.00020606,0.00009189,-0.03467005,-0.
 07702561,0.07582099,0.00601136,-0.00019881,-0.02756945,-0.00131078,0.0
 0375396,0.00045652,-0.00193358,-0.02766930,0.03265755,-0.00109645,0.00
 202486,-0.00218474,-0.00000238,-0.00001733,-0.00002267,-0.00000625,0.0
 0001777,0.00000242,0.00004007,0.00001243,-0.00000058,0.00045024,0.0000
 0613,-0.00003945,0.00033253,-0.00015811,-0.00025991,0.00000726,0.00004
 905,0.00002595,-0.00004496,0.00019305,0.00006047,0.03589986,0.09693956
 ,0.00011681,0.00009337,-0.00003131,0.00050225,-0.00000994,-0.00040435,
 -0.00361249,-0.00072103,-0.00292054,0.00064082,-0.00061068,0.00365904,
 -0.00159820,-0.00003138,0.00073520,-0.00015574,-0.00064768,-0.00008972
 ,-0.00000513,0.00022314,0.00002515,0.08379572,0.07770051,-0.23635672,0
 .00649260,-0.00166771,-0.03354133,-0.00076853,0.00120540,0.00385170,-0
 .00210584,0.00933482,-0.00144129,0.00002275,-0.00014869,0.00027830,-0.
 00000077,0.00001098,0.00001488,0.00000864,0.00000706,-0.00000913,0.000
 06190,0.00000776,0.00002206,-0.00054663,0.00006376,-0.00012119,-0.0000
 3276,-0.00014848,-0.00009562,-0.00011250,-0.00008704,0.00018521,-0.000
 06834,0.00021723,0.00005553,-0.08281436,-0.08474683,0.26495000,-0.0000
 1402,0.00021712,-0.00009486,-0.00024560,-0.00067633,0.00104986,0.00027
 268,0.00008508,-0.00043818,-0.00073082,-0.00068290,-0.00283044,0.00034
 883,0.00024434,-0.00019341,0.00005132,0.00001310,-0.00013226,0.0000390
 7,0.00000249,0.00004189,-0.01011916,-0.00365439,0.00383481,-0.40821324
 ,-0.00445806,-0.07340894,0.00059502,0.00147176,0.00567851,-0.00135742,
 0.00000675,-0.00011880,-0.00093440,0.00327572,0.00126116,-0.00000120,-
 0.00001102,-0.00000128,-0.00007940,-0.00001420,-0.00002207,-0.00000720
 ,-0.00000840,-0.00001033,0.00005922,0.00002552,0.00004945,-0.00001552,
 0.00001000,-0.00001705,0.00004917,0.00001026,-0.00000133,-0.00000072,0
 .00001578,-0.00002605,0.00098319,0.00083824,0.00045673,0.41931910,-0.0
 0010815,0.00078532,-0.00012785,-0.00101688,-0.00101540,0.00154575,0.00
 055587,0.00001831,-0.00086953,-0.00087627,-0.00413676,-0.00502854,0.00
 028602,0.00028212,-0.00017211,0.00010921,0.00002266,0.00004427,-0.0000
 8660,-0.00002392,-0.00001674,-0.02717375,0.00180461,-0.00435861,-0.023
 54826,-0.04600426,-0.00933402,0.04505577,-0.02149027,0.00812803,-0.001
 61807,-0.00071483,0.00063417,0.00159686,0.00097458,0.00142575,0.000047
 30,-0.00002681,-0.00000503,-0.00028316,-0.00003192,-0.00008153,-0.0000
 1484,-0.00001285,-0.00000869,0.00004779,0.00001289,0.00009723,-0.00008
 691,0.00012355,0.00016044,-0.00001004,-0.00000408,0.00000122,0.0000240
 4,-0.00007121,-0.00004818,0.00039935,0.00065456,0.00008835,0.00244121,
 0.07523790,-0.00007515,0.00039228,-0.00010070,-0.00068001,-0.00048833,
 0.00070523,0.00019963,0.00001811,-0.00011847,0.00034628,-0.00193166,-0
 .00350977,0.00001490,-0.00016089,0.00026414,-0.00022091,-0.00031128,-0
 .00033362,0.00036891,0.00011812,0.00015290,-0.03521363,-0.00892789,-0.
 01257855,-0.01441539,-0.00729871,-0.03007605,-0.01737062,0.00998252,-0
 .00478623,-0.00033599,0.00229535,0.00082622,0.00025359,0.00096633,-0.0
 0072316,0.00004405,-0.00000852,0.00001078,-0.00012471,-0.00004572,-0.0
 0000035,0.00000006,-0.00001212,-0.00001468,0.00004616,-0.00007186,-0.0
 0001496,-0.00011993,-0.00020745,0.00017201,0.00005424,0.00000670,0.000
 07627,-0.00020704,0.00037547,0.00016474,-0.00000744,0.00013993,0.00041
 880,0.06708046,0.00330068,0.04929225,-0.00004498,0.00002313,-0.0000604
 6,-0.00023318,0.00009714,-0.00030554,-0.00020490,-0.00002675,0.0002077
 0,0.00005341,0.00039708,0.00034246,0.00011553,-0.00018142,0.00040861,-
 0.00127936,-0.00217384,-0.00142842,0.00093922,0.00073469,0.00042704,0.
 00215708,0.00035745,0.00054009,-0.00340511,-0.00323932,-0.00069870,-0.
 30452786,0.13325082,0.21827579,0.00013017,-0.00179546,-0.00037697,-0.0
 0021571,0.00006361,-0.00003012,-0.00002054,0.00002482,0.00003373,-0.00
 003874,-0.00002681,-0.00005724,-0.00001669,-0.00007541,-0.00004492,-0.
 00002245,-0.00008409,-0.00007171,0.00007591,0.00014700,-0.00009663,-0.
 00015248,0.00012535,0.00005171,0.00068500,0.00094457,0.00055899,-0.000
 18484,-0.00031667,-0.00038871,-0.00016326,0.00321526,0.00031068,0.3064
 2170,-0.00007804,0.00005728,0.00001652,-0.00022707,0.00030236,-0.00130
 196,-0.00026804,-0.00029826,0.00085181,0.00034371,0.00054824,0.0005199
 6,0.00008915,-0.00018487,0.00022006,-0.00194364,-0.00157076,-0.0010349
 0,0.00129903,0.00044110,0.00033856,0.00415112,-0.00491922,0.00131388,0
 .03188635,-0.02334895,-0.01775024,0.09606254,-0.07132748,-0.05220570,0
 .00008829,-0.00260153,-0.00078282,-0.00063887,0.00002870,0.00000354,0.
 00006477,0.00002493,0.00006697,0.00005453,-0.00003206,0.00002750,-0.00
 002291,-0.00003267,-0.00003595,-0.00001204,0.00004956,-0.00011353,0.00
 001254,-0.00016702,0.00001315,0.00006503,0.00009107,0.00012704,-0.0001
 2038,0.00063055,0.00079153,0.00000886,0.00045118,0.00050593,0.00069331
 ,-0.00497841,0.00076381,-0.13154315,0.10684893,-0.00005019,-0.00005183
 ,0.00005221,-0.00009960,0.00009584,-0.00045512,-0.00003035,0.00012588,
 -0.00002848,0.00008492,0.00023880,0.00076985,-0.00021275,-0.00040056,0
 .00001954,0.00133338,0.00140592,0.00107459,-0.00119396,-0.00047311,-0.
 00047654,0.00063318,-0.00112314,-0.00217242,-0.02094699,0.01614009,0.0
 0711602,0.24065320,-0.08879045,-0.18124036,-0.00033509,0.00021891,0.00
 056886,-0.00008651,0.00047645,0.00011131,0.00003196,0.00003055,0.00000
 691,-0.00002100,-0.00001661,-0.00005259,0.00001470,0.00001687,0.000052
 05,-0.00001995,-0.00008145,-0.00007541,-0.00001936,0.00004723,-0.00001
 306,0.00008971,-0.00008145,-0.00009129,-0.00015173,-0.00061437,-0.0002
 0350,0.00000976,0.00038808,0.00059899,-0.00210525,0.00487941,-0.000564
 76,-0.21761662,0.06768167,0.17495641,0.00008458,-0.00029232,-0.0001557
 9,-0.00046893,-0.00011515,0.00070932,0.00020789,0.00018862,-0.00011690
 ,-0.00132961,0.00223927,-0.00074231,0.00000342,-0.00012212,-0.00021889
 ,-0.00021667,0.00011059,0.00017204,0.00025770,-0.00004864,-0.00005726,
 -0.00866059,-0.00367744,-0.00171918,0.00053275,-0.00023560,-0.00012546
 ,0.00015603,-0.00050450,0.00020682,-0.02687897,0.02237253,-0.03490813,
 -0.05977282,0.02899018,-0.06912100,-0.00010883,-0.00000181,-0.00002678
 ,0.00001892,0.00000755,0.00001656,-0.00001561,0.00000181,-0.00001575,0
 .00003749,0.00002850,-0.00000093,-0.00016840,-0.00002738,0.00026512,0.
 00003157,-0.00000455,0.00003814,-0.00000655,0.00003097,-0.00001908,0.0
 0020194,-0.00073765,0.00011177,0.00016436,0.00104426,0.00005186,-0.000
 06793,0.00003487,0.00003855,0.09599827,0.00003333,-0.00003898,-0.00006
 794,-0.00015851,-0.00005086,0.00071941,0.00015449,0.00004952,-0.000388
 69,-0.00047329,0.00030029,-0.00077732,0.00014996,-0.00000292,-0.000036
 59,0.00022377,0.00010554,0.00003800,-0.00018160,-0.00004997,-0.0000151
 9,0.00124082,-0.00269774,0.00134104,0.00111575,0.00017347,0.00017131,-
 0.00042594,0.00048287,-0.00035894,-0.01462110,0.00381294,-0.00926229,0
 .06200368,-0.11536148,0.20923685,-0.00005964,-0.00001635,-0.00003356,-
 0.00002900,0.00000565,-0.00000723,-0.00000010,0.00001037,0.00000638,-0
 .00000530,0.00002980,0.00005550,0.00010531,0.00010544,-0.00001368,-0.0
 0007305,-0.00000018,-0.00003766,0.00001301,-0.00008405,-0.00004955,0.0
 0003278,0.00033079,-0.00063885,0.00015463,-0.00140575,0.00110513,0.000
 08202,-0.00001264,-0.00011273,-0.04928202,0.11431423,-0.00005280,0.000
 14344,0.00011069,0.00026399,0.00010120,-0.00060152,-0.00011556,-0.0001
 3430,0.00026784,0.00061535,-0.00096908,0.00056215,-0.00003289,-0.00002
 821,0.00017450,-0.00009600,0.00014850,0.00013503,0.00006715,-0.0000471
 5,-0.00005215,0.00085906,0.00130463,-0.00020229,0.00054229,-0.00000631
 ,-0.00010532,-0.00011132,-0.00023611,-0.00032773,0.00635178,-0.0032853
 2,0.00602228,-0.11405312,0.20472143,-0.37369947,0.00007332,0.00001435,
 0.00002463,0.00001606,-0.00001328,0.00000665,0.00000259,0.00000235,0.0
 0000664,-0.00000110,0.00001468,-0.00004137,-0.00005075,0.00003583,0.00
 004762,-0.00000505,0.00001667,-0.00002978,-0.00001253,-0.00005528,-0.0
 0000289,0.00015561,-0.00058337,0.00021634,-0.00005263,-0.00025445,0.00
 073795,0.00001925,-0.00001683,0.00004681,0.10561729,-0.20087339,0.3667
 0338\\-0.00001664,0.00001172,-0.00000042,0.00001215,-0.00000250,-0.000
 00590,0.00000222,-0.00000697,0.00000362,0.00000842,0.00001829,-0.00002
 368,-0.00003674,0.00000001,0.00003071,0.00003022,-0.00001441,-0.000008
 06,-0.00001386,0.00000195,-0.00000047,-0.00001343,0.00001741,0.0000053
 8,0.00000287,-0.00002127,-0.00000690,0.00000518,0.00000131,-0.00000341
 ,-0.00000586,-0.00001162,0.00000158,0.00001052,0.00000536,0.00000251,0
 .00000336,-0.00000472,0.00000090,-0.00000040,-0.00000572,0.00000511,0.
 00000248,-0.00000364,0.00000070,0.00000008,0.00000411,0.00000479,0.000
 01196,0.00000390,-0.00000341,0.00000313,0.00000328,-0.00000248,-0.0000
 0184,0.00000017,-0.00000220,0.00000180,-0.00000541,0.00000436,-0.00000
 664,0.00000829,-0.00000173,-0.00000159,-0.00000008,0.00000097,0.000002
 61,0.00000054,-0.00000196\\\@


 SUPPORT THE RIGHT TO ARM BEARS!
 (ADD A CLAWS TO THE BILL OF RIGHTS)
 Job cpu time:       0 days  3 hours 32 minutes 14.8 seconds.
 Elapsed time:       0 days  0 hours 53 minutes  4.5 seconds.
 File lengths (MBytes):  RWF=    277 Int=      0 D2E=      0 Chk=     13 Scr=      1
 Normal termination of Gaussian 16 at Tue May 30 02:49:38 2023.
### All Done ###
