### Starting Gaussian ###
 Entering Gaussian System, Link 0=g16
 Initial command:
 /cluster/software/gaussian/gaussian-16-A.03/avx2/g16/l1.exe "/local/scratch/cz9n3/Gau-17687.inp" -scrdir="/local/scratch/cz9n3/"
 Entering Link 1 = /cluster/software/gaussian/gaussian-16-A.03/avx2/g16/l1.exe PID=     17688.
  
 Copyright (c) 1988,1990,1992,1993,1995,1998,2003,2009,2016,
            Gaussian, Inc.  All Rights Reserved.
  
 This is part of the Gaussian(R) 16 program.  It is based on
 the Gaussian(R) 09 system (copyright 2009, Gaussian, Inc.),
 the Gaussian(R) 03 system (copyright 2003, Gaussian, Inc.),
 the Gaussian(R) 98 system (copyright 1998, Gaussian, Inc.),
 the Gaussian(R) 94 system (copyright 1995, Gaussian, Inc.),
 the Gaussian 92(TM) system (copyright 1992, Gaussian, Inc.),
 the Gaussian 90(TM) system (copyright 1990, Gaussian, Inc.),
 the Gaussian 88(TM) system (copyright 1988, Gaussian, Inc.),
 the Gaussian 86(TM) system (copyright 1986, Carnegie Mellon
 University), and the Gaussian 82(TM) system (copyright 1983,
 Carnegie Mellon University). Gaussian is a federally registered
 trademark of Gaussian, Inc.
  
 This software contains proprietary and confidential information,
 including trade secrets, belonging to Gaussian, Inc.
  
 This software is provided under written license and may be
 used, copied, transmitted, or stored only in accord with that
 written license.
  
 The following legend is applicable only to US Government
 contracts under FAR:
  
                    RESTRICTED RIGHTS LEGEND
  
 Use, reproduction and disclosure by the US Government is
 subject to restrictions as set forth in subparagraphs (a)
 and (c) of the Commercial Computer Software - Restricted
 Rights clause in FAR 52.227-19.
  
 Gaussian, Inc.
 340 Quinnipiac St., Bldg. 40, Wallingford CT 06492
  
  
 ---------------------------------------------------------------
 Warning -- This program may not be used in any manner that
 competes with the business of Gaussian, Inc. or will provide
 assistance to any competitor of Gaussian, Inc.  The licensee
 of this program is prohibited from giving any competitor of
 Gaussian, Inc. access to this program.  By using this program,
 the user acknowledges that Gaussian, Inc. is engaged in the
 business of creating and licensing software in the field of
 computational chemistry and represents and warrants to the
 licensee that it is not a competitor of Gaussian, Inc. and that
 it will not use this program in any manner prohibited above.
 ---------------------------------------------------------------
  

 Cite this work as:
 Gaussian 16, Revision A.03,
 M. J. Frisch, G. W. Trucks, H. B. Schlegel, G. E. Scuseria, 
 M. A. Robb, J. R. Cheeseman, G. Scalmani, V. Barone, 
 G. A. Petersson, H. Nakatsuji, X. Li, M. Caricato, A. V. Marenich, 
 J. Bloino, B. G. Janesko, R. Gomperts, B. Mennucci, H. P. Hratchian, 
 J. V. Ortiz, A. F. Izmaylov, J. L. Sonnenberg, D. Williams-Young, 
 F. Ding, F. Lipparini, F. Egidi, J. Goings, B. Peng, A. Petrone, 
 T. Henderson, D. Ranasinghe, V. G. Zakrzewski, J. Gao, N. Rega, 
 G. Zheng, W. Liang, M. Hada, M. Ehara, K. Toyota, R. Fukuda, 
 J. Hasegawa, M. Ishida, T. Nakajima, Y. Honda, O. Kitao, H. Nakai, 
 T. Vreven, K. Throssell, J. A. Montgomery, Jr., J. E. Peralta, 
 F. Ogliaro, M. J. Bearpark, J. J. Heyd, E. N. Brothers, K. N. Kudin, 
 V. N. Staroverov, T. A. Keith, R. Kobayashi, J. Normand, 
 K. Raghavachari, A. P. Rendell, J. C. Burant, S. S. Iyengar, 
 J. Tomasi, M. Cossi, J. M. Millam, M. Klene, C. Adamo, R. Cammi, 
 J. W. Ochterski, R. L. Martin, K. Morokuma, O. Farkas, 
 J. B. Foresman, and D. J. Fox, Gaussian, Inc., Wallingford CT, 2016.
 
 ******************************************
 Gaussian 16:  ES64L-G16RevA.03 25-Dec-2016
                28-May-2023 
 ******************************************
 %chk=CCqOrSCSS[O].chk
 %NProcShared=20
 Will use up to   20 processors via shared memory.
 -----------------------------
 # opt freq b3lyp/6-31g(2df,p)
 -----------------------------
 1/18=20,19=15,26=3,38=1/1,3;
 2/9=110,12=2,17=6,18=5,40=1/2;
 3/5=1,6=6,7=104,11=2,25=1,30=1,71=1,74=-5/1,2,3;
 4//1;
 5/5=2,38=5/2;
 6/7=2,8=2,9=2,10=2,28=1/1;
 7//1,2,3,16;
 1/18=20,19=15,26=3/3(2);
 2/9=110/2;
 99//99;
 2/9=110/2;
 3/5=1,6=6,7=104,11=2,25=1,30=1,71=1,74=-5/1,2,3;
 4/5=5,16=3,69=1/1;
 5/5=2,38=5/2;
 7//1,2,3,16;
 1/18=20,19=15,26=3/3(-5);
 2/9=110/2;
 6/7=2,8=2,9=2,10=2,19=2,28=1/1;
 99/9=1/99;
 -------------------
 Title Card Required
 -------------------
 Symbolic Z-matrix:
 Charge =  0 Multiplicity = 2
 C                     1.00161   0.03298   0.06152 
 C                     2.52879   0.08304   0.00664 
 O                     3.02241  -1.17241  -0.43018 
 S                     3.00348   1.39192  -1.15205 
 C                     4.83126   1.32993  -1.06002 
 S                     5.45794   2.64716  -2.16643 
 S                     7.4892    2.46598  -2.01755 
 O                     7.88235   3.6646   -3.03574 
 H                     0.66266  -0.76904   0.72681 
 H                     0.56866  -0.1891   -0.92218 
 H                     0.57582   0.97547   0.42417 
 H                     2.92387   0.2874    1.00592 
 H                     2.60502  -1.34101  -1.28972 
 H                     5.1923    0.35688  -1.40522 
 H                     5.16549   1.52013  -0.03568 
 

 GradGradGradGradGradGradGradGradGradGradGradGradGradGradGradGradGradGrad
 Berny optimization.
 Initialization pass.
                           ----------------------------
                           !    Initial Parameters    !
                           ! (Angstroms and Degrees)  !
 --------------------------                            --------------------------
 ! Name  Definition              Value          Derivative Info.                !
 --------------------------------------------------------------------------------
 ! R1    R(1,2)                  1.529          estimate D2E/DX2                !
 ! R2    R(1,9)                  1.0958         estimate D2E/DX2                !
 ! R3    R(1,10)                 1.0975         estimate D2E/DX2                !
 ! R4    R(1,11)                 1.0959         estimate D2E/DX2                !
 ! R5    R(2,3)                  1.418          estimate D2E/DX2                !
 ! R6    R(2,4)                  1.8114         estimate D2E/DX2                !
 ! R7    R(2,12)                 1.0938         estimate D2E/DX2                !
 ! R8    R(3,13)                 0.9703         estimate D2E/DX2                !
 ! R9    R(4,5)                  1.8311         estimate D2E/DX2                !
 ! R10   R(5,6)                  1.8308         estimate D2E/DX2                !
 ! R11   R(5,14)                 1.0938         estimate D2E/DX2                !
 ! R12   R(5,15)                 1.0941         estimate D2E/DX2                !
 ! R13   R(6,7)                  2.0448         estimate D2E/DX2                !
 ! R14   R(7,8)                  1.6211         estimate D2E/DX2                !
 ! A1    A(2,1,9)              110.7759         estimate D2E/DX2                !
 ! A2    A(2,1,10)             111.6223         estimate D2E/DX2                !
 ! A3    A(2,1,11)             111.8252         estimate D2E/DX2                !
 ! A4    A(9,1,10)             105.9063         estimate D2E/DX2                !
 ! A5    A(9,1,11)             107.96           estimate D2E/DX2                !
 ! A6    A(10,1,11)            108.5029         estimate D2E/DX2                !
 ! A7    A(1,2,3)              109.2552         estimate D2E/DX2                !
 ! A8    A(1,2,4)              107.961          estimate D2E/DX2                !
 ! A9    A(1,2,12)             109.5176         estimate D2E/DX2                !
 ! A10   A(3,2,4)              110.5782         estimate D2E/DX2                !
 ! A11   A(3,2,12)             108.7306         estimate D2E/DX2                !
 ! A12   A(4,2,12)             110.7772         estimate D2E/DX2                !
 ! A13   A(2,3,13)             106.0811         estimate D2E/DX2                !
 ! A14   A(2,4,5)              101.8277         estimate D2E/DX2                !
 ! A15   A(4,5,6)              106.6745         estimate D2E/DX2                !
 ! A16   A(4,5,14)             110.1046         estimate D2E/DX2                !
 ! A17   A(4,5,15)             110.2475         estimate D2E/DX2                !
 ! A18   A(6,5,14)             109.6545         estimate D2E/DX2                !
 ! A19   A(6,5,15)             109.6416         estimate D2E/DX2                !
 ! A20   A(14,5,15)            110.4436         estimate D2E/DX2                !
 ! A21   A(5,6,7)              103.4314         estimate D2E/DX2                !
 ! A22   A(6,7,8)               97.4507         estimate D2E/DX2                !
 ! D1    D(9,1,2,3)             57.805          estimate D2E/DX2                !
 ! D2    D(9,1,2,4)            178.1114         estimate D2E/DX2                !
 ! D3    D(9,1,2,12)           -61.1882         estimate D2E/DX2                !
 ! D4    D(10,1,2,3)           -59.95           estimate D2E/DX2                !
 ! D5    D(10,1,2,4)            60.3564         estimate D2E/DX2                !
 ! D6    D(10,1,2,12)         -178.9432         estimate D2E/DX2                !
 ! D7    D(11,1,2,3)           178.2824         estimate D2E/DX2                !
 ! D8    D(11,1,2,4)           -61.4112         estimate D2E/DX2                !
 ! D9    D(11,1,2,12)           59.2892         estimate D2E/DX2                !
 ! D10   D(1,2,3,13)            56.9357         estimate D2E/DX2                !
 ! D11   D(4,2,3,13)           -61.7532         estimate D2E/DX2                !
 ! D12   D(12,2,3,13)          176.4164         estimate D2E/DX2                !
 ! D13   D(1,2,4,5)            178.799          estimate D2E/DX2                !
 ! D14   D(3,2,4,5)            -61.7285         estimate D2E/DX2                !
 ! D15   D(12,2,4,5)            58.8894         estimate D2E/DX2                !
 ! D16   D(2,4,5,6)           -178.6186         estimate D2E/DX2                !
 ! D17   D(2,4,5,14)            62.465          estimate D2E/DX2                !
 ! D18   D(2,4,5,15)           -59.6396         estimate D2E/DX2                !
 ! D19   D(4,5,6,7)           -178.9276         estimate D2E/DX2                !
 ! D20   D(14,5,6,7)           -59.7183         estimate D2E/DX2                !
 ! D21   D(15,5,6,7)            61.6996         estimate D2E/DX2                !
 ! D22   D(5,6,7,8)            179.681          estimate D2E/DX2                !
 --------------------------------------------------------------------------------
 Trust Radius=3.00D-01 FncErr=1.00D-07 GrdErr=1.00D-06 EigMax=2.50D+02 EigMin=1.00D-04
 Number of steps in this run=     68 maximum allowed number of steps=    100.
 GradGradGradGradGradGradGradGradGradGradGradGradGradGradGradGradGradGrad

                          Input orientation:                          
 ---------------------------------------------------------------------
 Center     Atomic      Atomic             Coordinates (Angstroms)
 Number     Number       Type             X           Y           Z
 ---------------------------------------------------------------------
      1          6           0        1.001610    0.032980    0.061520
      2          6           0        2.528790    0.083040    0.006640
      3          8           0        3.022410   -1.172410   -0.430180
      4         16           0        3.003480    1.391920   -1.152050
      5          6           0        4.831260    1.329930   -1.060020
      6         16           0        5.457940    2.647160   -2.166430
      7         16           0        7.489200    2.465980   -2.017550
      8          8           0        7.882350    3.664600   -3.035740
      9          1           0        0.662660   -0.769040    0.726810
     10          1           0        0.568660   -0.189100   -0.922180
     11          1           0        0.575820    0.975470    0.424170
     12          1           0        2.923870    0.287400    1.005920
     13          1           0        2.605020   -1.341010   -1.289720
     14          1           0        5.192300    0.356880   -1.405220
     15          1           0        5.165490    1.520130   -0.035680
 ---------------------------------------------------------------------
                    Distance matrix (angstroms):
                    1          2          3          4          5
     1  C    0.000000
     2  C    1.528985   0.000000
     3  O    2.403823   1.417966   0.000000
     4  S    2.706835   1.811370   2.664065   0.000000
     5  C    4.195968   2.827343   3.151245   1.831145   0.000000
     6  S    5.626418   4.458348   4.851339   2.937511   1.830837
     7  S    7.234006   5.863567   5.975771   4.693014   3.045015
     8  O    8.374143   7.123500   7.335164   5.702345   4.320105
     9  H    1.095780   2.174196   2.658901   3.698554   4.997566
    10  H    1.097466   2.186064   2.688838   2.912184   4.527274
    11  H    1.095947   2.187431   3.365874   2.924283   4.520756
    12  H    2.156781   1.093806   2.050156   2.425518   2.998852
    13  H    2.506915   1.927246   0.970283   2.765254   3.484656
    14  H    4.451755   3.026982   2.828048   2.434407   1.093773
    15  H    4.422551   3.003199   3.463841   2.436597   1.094147
                    6          7          8          9         10
     6  S    0.000000
     7  S    2.044751   0.000000
     8  O    2.769232   1.621101   0.000000
     9  H    6.560181   8.037320   9.270268   0.000000
    10  H    5.787710   7.492874   8.532772   1.750524   0.000000
    11  H    5.774154   7.481874   8.519846   1.772695   1.780150
    12  H    4.696145   5.893201   7.233742   2.511382   3.080850
    13  H    4.981292   6.235232   7.480303   2.857675   2.368279
    14  H    2.428042   3.177892   4.564644   5.131363   4.680755
    15  H    2.428131   3.197197   4.580441   5.108539   4.983793
                   11         12         13         14         15
    11  H    0.000000
    12  H    2.514997   0.000000
    13  H    3.524365   2.832551   0.000000
    14  H    5.004119   3.311223   3.096803   0.000000
    15  H    4.644695   2.762139   4.039152   1.797084   0.000000
 Stoichiometry    C3H7O2S3(2)
 Framework group  C1[X(C3H7O2S3)]
 Deg. of freedom    39
 Full point group                 C1      NOp   1
 Largest Abelian subgroup         C1      NOp   1
 Largest concise Abelian subgroup C1      NOp   1
                         Standard orientation:                         
 ---------------------------------------------------------------------
 Center     Atomic      Atomic             Coordinates (Angstroms)
 Number     Number       Type             X           Y           Z
 ---------------------------------------------------------------------
      1          6           0        4.112610   -0.486204    0.175264
      2          6           0        2.821724    0.310088    0.368477
      3          8           0        2.857743    1.465581   -0.452599
      4         16           0        1.432835   -0.756676   -0.094193
      5          6           0       -0.002217    0.333041    0.231744
      6         16           0       -1.501757   -0.642373   -0.158018
      7         16           0       -3.028458    0.669340    0.201982
      8          8           0       -4.251955   -0.319718   -0.188900
      9          1           0        4.987966    0.129272    0.411218
     10          1           0        4.240029   -0.803080   -0.867705
     11          1           0        4.142397   -1.375508    0.815068
     12          1           0        2.738789    0.623880    1.413019
     13          1           0        2.989159    1.146830   -1.359559
     14          1           0        0.041092    1.214931   -0.413805
     15          1           0       -0.020351    0.630570    1.284505
 ---------------------------------------------------------------------
 Rotational constants (GHZ):           4.6167493           0.4074213           0.3835701
 Standard basis: 6-31G(2df,p) (6D, 7F)
 There are   295 symmetry adapted cartesian basis functions of A   symmetry.
 There are   271 symmetry adapted basis functions of A   symmetry.
   271 basis functions,   473 primitive gaussians,   295 cartesian basis functions
    45 alpha electrons       44 beta electrons
       nuclear repulsion energy       605.8114436045 Hartrees.
 NAtoms=   15 NActive=   15 NUniq=   15 SFac= 1.00D+00 NAtFMM=   60 NAOKFM=F Big=F
 Integral buffers will be    131072 words long.
 Raffenetti 2 integral format.
 Two-electron integral symmetry is turned on.
 One-electron integrals computed using PRISM.
 PrsmSu:  requested number of processors reduced to:  13 ShMem   1 Linda.
 NBasis=   271 RedAO= T EigKep=  1.17D-03  NBF=   271
 NBsUse=   271 1.00D-06 EigRej= -1.00D+00 NBFU=   271
 ExpMin= 1.17D-01 ExpMax= 2.19D+04 ExpMxC= 3.30D+03 IAcc=3 IRadAn=         5 AccDes= 0.00D+00
 Harris functional with IExCor=  402 and IRadAn=       5 diagonalized for initial guess.
 HarFok:  IExCor=  402 AccDes= 0.00D+00 IRadAn=         5 IDoV= 1 UseB2=F ITyADJ=14
 ICtDFT=  3500011 ScaDFX=  1.000000  1.000000  1.000000  1.000000
 FoFCou: FMM=F IPFlag=           0 FMFlag=      100000 FMFlg1=           0
         NFxFlg=           0 DoJE=T BraDBF=F KetDBF=T FulRan=T
         wScrn=  0.000000 ICntrl=       500 IOpCl=  0 I1Cent=   200000004 NGrid=           0
         NMat0=    1 NMatS0=      1 NMatT0=    0 NMatD0=    1 NMtDS0=    0 NMtDT0=    0
 Petite list used in FoFCou.
 Initial guess <Sx>= 0.0000 <Sy>= 0.0000 <Sz>= 0.5000 <S**2>= 0.7500 S= 0.5000
 Requested convergence on RMS density matrix=1.00D-08 within 128 cycles.
 Requested convergence on MAX density matrix=1.00D-06.
 Requested convergence on             energy=1.00D-06.
 No special actions if energy rises.
 Integral accuracy reduced to 1.0D-05 until final iterations.
 EnCoef did     1 forward-backward iterations
 EnCoef did     4 forward-backward iterations
 Initial convergence to 1.0D-05 achieved.  Increase integral accuracy.
 SCF Done:  E(UB3LYP) =  -1463.52116895     A.U. after   20 cycles
            NFock= 20  Conv=0.65D-08     -V/T= 2.0037
 <Sx>= 0.0000 <Sy>= 0.0000 <Sz>= 0.5000 <S**2>= 0.7550 S= 0.5025
 <L.S>=  0.00000000000    
 Annihilation of the first spin contaminant:
 S**2 before annihilation     0.7550,   after     0.7500

 **********************************************************************

            Population analysis using the SCF density.

 **********************************************************************

 Orbital symmetries:
 Alpha Orbitals:
       Occupied  (A) (A) (A) (A) (A) (A) (A) (A) (A) (A) (A) (A)
                 (A) (A) (A) (A) (A) (A) (A) (A) (A) (A) (A) (A)
                 (A) (A) (A) (A) (A) (A) (A) (A) (A) (A) (A) (A)
                 (A) (A) (A) (A) (A) (A) (A) (A) (A)
       Virtual   (A) (A) (A) (A) (A) (A) (A) (A) (A) (A) (A) (A)
                 (A) (A) (A) (A) (A) (A) (A) (A) (A) (A) (A) (A)
                 (A) (A) (A) (A) (A) (A) (A) (A) (A) (A) (A) (A)
                 (A) (A) (A) (A) (A) (A) (A) (A) (A) (A) (A) (A)
                 (A) (A) (A) (A) (A) (A) (A) (A) (A) (A) (A) (A)
                 (A) (A) (A) (A) (A) (A) (A) (A) (A) (A) (A) (A)
                 (A) (A) (A) (A) (A) (A) (A) (A) (A) (A) (A) (A)
                 (A) (A) (A) (A) (A) (A) (A) (A) (A) (A) (A) (A)
                 (A) (A) (A) (A) (A) (A) (A) (A) (A) (A) (A) (A)
                 (A) (A) (A) (A) (A) (A) (A) (A) (A) (A) (A) (A)
                 (A) (A) (A) (A) (A) (A) (A) (A) (A) (A) (A) (A)
                 (A) (A) (A) (A) (A) (A) (A) (A) (A) (A) (A) (A)
                 (A) (A) (A) (A) (A) (A) (A) (A) (A) (A) (A) (A)
                 (A) (A) (A) (A) (A) (A) (A) (A) (A) (A) (A) (A)
                 (A) (A) (A) (A) (A) (A) (A) (A) (A) (A) (A) (A)
                 (A) (A) (A) (A) (A) (A) (A) (A) (A) (A) (A) (A)
                 (A) (A) (A) (A) (A) (A) (A) (A) (A) (A) (A) (A)
                 (A) (A) (A) (A) (A) (A) (A) (A) (A) (A) (A) (A)
                 (A) (A) (A) (A) (A) (A) (A) (A) (A) (A)
 Beta  Orbitals:
       Occupied  (A) (A) (A) (A) (A) (A) (A) (A) (A) (A) (A) (A)
                 (A) (A) (A) (A) (A) (A) (A) (A) (A) (A) (A) (A)
                 (A) (A) (A) (A) (A) (A) (A) (A) (A) (A) (A) (A)
                 (A) (A) (A) (A) (A) (A) (A) (A)
       Virtual   (A) (A) (A) (A) (A) (A) (A) (A) (A) (A) (A) (A)
                 (A) (A) (A) (A) (A) (A) (A) (A) (A) (A) (A) (A)
                 (A) (A) (A) (A) (A) (A) (A) (A) (A) (A) (A) (A)
                 (A) (A) (A) (A) (A) (A) (A) (A) (A) (A) (A) (A)
                 (A) (A) (A) (A) (A) (A) (A) (A) (A) (A) (A) (A)
                 (A) (A) (A) (A) (A) (A) (A) (A) (A) (A) (A) (A)
                 (A) (A) (A) (A) (A) (A) (A) (A) (A) (A) (A) (A)
                 (A) (A) (A) (A) (A) (A) (A) (A) (A) (A) (A) (A)
                 (A) (A) (A) (A) (A) (A) (A) (A) (A) (A) (A) (A)
                 (A) (A) (A) (A) (A) (A) (A) (A) (A) (A) (A) (A)
                 (A) (A) (A) (A) (A) (A) (A) (A) (A) (A) (A) (A)
                 (A) (A) (A) (A) (A) (A) (A) (A) (A) (A) (A) (A)
                 (A) (A) (A) (A) (A) (A) (A) (A) (A) (A) (A) (A)
                 (A) (A) (A) (A) (A) (A) (A) (A) (A) (A) (A) (A)
                 (A) (A) (A) (A) (A) (A) (A) (A) (A) (A) (A) (A)
                 (A) (A) (A) (A) (A) (A) (A) (A) (A) (A) (A) (A)
                 (A) (A) (A) (A) (A) (A) (A) (A) (A) (A) (A) (A)
                 (A) (A) (A) (A) (A) (A) (A) (A) (A) (A) (A) (A)
                 (A) (A) (A) (A) (A) (A) (A) (A) (A) (A) (A)
 The electronic state is 2-A.
 Alpha  occ. eigenvalues --  -88.98159 -88.91364 -88.88997 -19.16745 -19.16206
 Alpha  occ. eigenvalues --  -10.28421 -10.26469 -10.20288  -8.03447  -7.97826
 Alpha  occ. eigenvalues --   -7.95428  -5.99836  -5.99594  -5.99463  -5.94273
 Alpha  occ. eigenvalues --   -5.93919  -5.93409  -5.91927  -5.91537  -5.90934
 Alpha  occ. eigenvalues --   -1.04643  -0.99956  -0.84185  -0.79558  -0.74740
 Alpha  occ. eigenvalues --   -0.67958  -0.62641  -0.60860  -0.50869  -0.49044
 Alpha  occ. eigenvalues --   -0.47072  -0.46737  -0.43806  -0.42036  -0.40822
 Alpha  occ. eigenvalues --   -0.40478  -0.39626  -0.37762  -0.35455  -0.33197
 Alpha  occ. eigenvalues --   -0.30007  -0.29472  -0.28500  -0.24931  -0.22365
 Alpha virt. eigenvalues --   -0.05252  -0.01897   0.01966   0.03587   0.06312
 Alpha virt. eigenvalues --    0.08438   0.08942   0.11939   0.12022   0.13033
 Alpha virt. eigenvalues --    0.15162   0.16436   0.18106   0.18780   0.20411
 Alpha virt. eigenvalues --    0.23410   0.25186   0.25566   0.28203   0.30829
 Alpha virt. eigenvalues --    0.30961   0.31906   0.33126   0.33697   0.34409
 Alpha virt. eigenvalues --    0.36388   0.37669   0.38936   0.41301   0.43054
 Alpha virt. eigenvalues --    0.43456   0.44463   0.45537   0.48848   0.49603
 Alpha virt. eigenvalues --    0.50041   0.52920   0.55416   0.57431   0.59411
 Alpha virt. eigenvalues --    0.60410   0.61579   0.65420   0.66501   0.67800
 Alpha virt. eigenvalues --    0.68798   0.70768   0.71522   0.71810   0.72702
 Alpha virt. eigenvalues --    0.75674   0.76432   0.78831   0.82171   0.84814
 Alpha virt. eigenvalues --    0.85396   0.86121   0.86975   0.90141   0.92222
 Alpha virt. eigenvalues --    0.92823   0.92905   0.94770   0.95743   0.96590
 Alpha virt. eigenvalues --    0.97120   0.97843   0.99557   1.01089   1.04039
 Alpha virt. eigenvalues --    1.08673   1.11214   1.13739   1.16529   1.20269
 Alpha virt. eigenvalues --    1.21631   1.23149   1.24967   1.28083   1.31408
 Alpha virt. eigenvalues --    1.31642   1.35534   1.37785   1.43621   1.44914
 Alpha virt. eigenvalues --    1.45976   1.47598   1.48414   1.50604   1.54409
 Alpha virt. eigenvalues --    1.57292   1.58342   1.61367   1.61706   1.64226
 Alpha virt. eigenvalues --    1.66604   1.66896   1.69419   1.71611   1.73486
 Alpha virt. eigenvalues --    1.74427   1.78271   1.78575   1.82119   1.84165
 Alpha virt. eigenvalues --    1.85264   1.85440   1.86494   1.87913   1.90587
 Alpha virt. eigenvalues --    1.92064   1.93083   1.94317   1.97608   1.98103
 Alpha virt. eigenvalues --    2.05468   2.08121   2.12722   2.15317   2.17292
 Alpha virt. eigenvalues --    2.19802   2.22599   2.25981   2.28738   2.29801
 Alpha virt. eigenvalues --    2.32017   2.33482   2.34364   2.38679   2.39905
 Alpha virt. eigenvalues --    2.41524   2.45384   2.46033   2.47063   2.48906
 Alpha virt. eigenvalues --    2.52308   2.55743   2.57230   2.58478   2.64805
 Alpha virt. eigenvalues --    2.69428   2.73783   2.75151   2.78444   2.81838
 Alpha virt. eigenvalues --    2.82320   2.83466   2.86823   2.88574   2.89211
 Alpha virt. eigenvalues --    2.92283   2.95192   2.99092   3.10604   3.20468
 Alpha virt. eigenvalues --    3.23627   3.30611   3.32004   3.34920   3.36681
 Alpha virt. eigenvalues --    3.37933   3.44695   3.49700   3.52349   3.56540
 Alpha virt. eigenvalues --    3.57336   3.58598   3.63138   3.65417   3.74217
 Alpha virt. eigenvalues --    3.83155   3.88204   3.90705   4.01792   4.08972
 Alpha virt. eigenvalues --    4.13658   4.14509   4.17332   4.17803   4.18248
 Alpha virt. eigenvalues --    4.25409   4.29793   4.33590   4.37482   4.39364
 Alpha virt. eigenvalues --    4.42189   4.43962   4.45630   4.53968   4.54468
 Alpha virt. eigenvalues --    4.55181   4.63037   4.63432   4.66879   4.68675
 Alpha virt. eigenvalues --    4.71797   4.72853   4.74919   4.76506   4.82114
 Alpha virt. eigenvalues --    4.82931   4.89225   4.92412   5.03481   5.03741
 Alpha virt. eigenvalues --    5.08464   5.09472   5.20110   5.30917   5.39662
 Alpha virt. eigenvalues --    5.40263   5.43195   5.45200   5.47845   5.48875
 Alpha virt. eigenvalues --    5.62468   5.89693   5.97540   6.04735   6.33563
 Alpha virt. eigenvalues --    7.01088  11.27788  11.52786  11.94790  12.67211
 Alpha virt. eigenvalues --   13.19988
  Beta  occ. eigenvalues --  -88.97874 -88.91297 -88.88996 -19.16205 -19.15507
  Beta  occ. eigenvalues --  -10.28422 -10.26480 -10.20288  -8.03170  -7.97762
  Beta  occ. eigenvalues --   -7.95428  -5.99678  -5.99327  -5.98645  -5.94246
  Beta  occ. eigenvalues --   -5.93893  -5.93169  -5.91928  -5.91537  -5.90931
  Beta  occ. eigenvalues --   -1.04642  -0.97527  -0.83916  -0.79266  -0.74212
  Beta  occ. eigenvalues --   -0.67248  -0.62215  -0.60045  -0.50837  -0.49023
  Beta  occ. eigenvalues --   -0.46936  -0.46532  -0.43638  -0.41117  -0.40319
  Beta  occ. eigenvalues --   -0.39637  -0.37611  -0.36091  -0.34991  -0.33162
  Beta  occ. eigenvalues --   -0.29564  -0.27544  -0.25768  -0.24892
  Beta virt. eigenvalues --   -0.11931  -0.04759  -0.01176   0.02021   0.03947
  Beta virt. eigenvalues --    0.06373   0.08466   0.09136   0.11978   0.12060
  Beta virt. eigenvalues --    0.13130   0.15177   0.16485   0.18308   0.18809
  Beta virt. eigenvalues --    0.20580   0.23648   0.25713   0.26464   0.28476
  Beta virt. eigenvalues --    0.31085   0.32017   0.32127   0.33493   0.33983
  Beta virt. eigenvalues --    0.35150   0.36890   0.37877   0.39100   0.41534
  Beta virt. eigenvalues --    0.43337   0.44469   0.45297   0.46119   0.48927
  Beta virt. eigenvalues --    0.49669   0.50714   0.52962   0.55701   0.57827
  Beta virt. eigenvalues --    0.59521   0.61626   0.61739   0.65742   0.66569
  Beta virt. eigenvalues --    0.67963   0.69001   0.70942   0.71568   0.71821
  Beta virt. eigenvalues --    0.72761   0.75760   0.76446   0.78951   0.82199
  Beta virt. eigenvalues --    0.84842   0.85896   0.86207   0.87046   0.90243
  Beta virt. eigenvalues --    0.92315   0.93092   0.95327   0.96191   0.96477
  Beta virt. eigenvalues --    0.97351   0.97519   0.98308   0.99676   1.01462
  Beta virt. eigenvalues --    1.04231   1.09527   1.11304   1.14141   1.16746
  Beta virt. eigenvalues --    1.20321   1.23326   1.23857   1.25279   1.28177
  Beta virt. eigenvalues --    1.31444   1.31722   1.35700   1.37866   1.43672
  Beta virt. eigenvalues --    1.45442   1.46114   1.47629   1.49532   1.50672
  Beta virt. eigenvalues --    1.54540   1.57375   1.59521   1.61558   1.61780
  Beta virt. eigenvalues --    1.64566   1.66852   1.67689   1.69901   1.71835
  Beta virt. eigenvalues --    1.73599   1.74487   1.78950   1.79272   1.82621
  Beta virt. eigenvalues --    1.84422   1.85780   1.86796   1.86988   1.88481
  Beta virt. eigenvalues --    1.90705   1.92903   1.93209   1.94407   1.97753
  Beta virt. eigenvalues --    1.98326   2.05574   2.08741   2.12787   2.15453
  Beta virt. eigenvalues --    2.17546   2.19945   2.22621   2.26039   2.29097
  Beta virt. eigenvalues --    2.30574   2.33099   2.33918   2.34666   2.38697
  Beta virt. eigenvalues --    2.40202   2.41698   2.45432   2.46312   2.47135
  Beta virt. eigenvalues --    2.49035   2.52406   2.55859   2.57782   2.58723
  Beta virt. eigenvalues --    2.64847   2.69470   2.73789   2.75169   2.78446
  Beta virt. eigenvalues --    2.81857   2.82402   2.83500   2.86851   2.88595
  Beta virt. eigenvalues --    2.89222   2.92285   2.95196   2.99093   3.10605
  Beta virt. eigenvalues --    3.20467   3.23627   3.30614   3.32018   3.34918
  Beta virt. eigenvalues --    3.36687   3.37941   3.44695   3.49704   3.52361
  Beta virt. eigenvalues --    3.56588   3.57336   3.58607   3.63261   3.65433
  Beta virt. eigenvalues --    3.75055   3.83170   3.88205   3.90710   4.02067
  Beta virt. eigenvalues --    4.09125   4.13740   4.17371   4.18565   4.21328
  Beta virt. eigenvalues --    4.22308   4.26383   4.29819   4.33619   4.37486
  Beta virt. eigenvalues --    4.39365   4.42212   4.45309   4.45773   4.53991
  Beta virt. eigenvalues --    4.54483   4.55209   4.63043   4.63428   4.66875
  Beta virt. eigenvalues --    4.68672   4.71796   4.72844   4.74921   4.76500
  Beta virt. eigenvalues --    4.82113   4.82929   4.89243   4.92411   5.06672
  Beta virt. eigenvalues --    5.06917   5.10615   5.11735   5.20110   5.30917
  Beta virt. eigenvalues --    5.40263   5.42436   5.43197   5.46046   5.47852
  Beta virt. eigenvalues --    5.49808   5.62468   5.89693   5.97540   6.04735
  Beta virt. eigenvalues --    6.35953   7.01089  11.27787  11.52778  11.94788
  Beta virt. eigenvalues --   12.68850  13.19988
          Condensed to atoms (all electrons):
               1          2          3          4          5          6
     1  C    5.039664   0.396396  -0.038748  -0.045468   0.001491  -0.000031
     2  C    0.396396   4.599000   0.354176   0.308360  -0.006626   0.000428
     3  O   -0.038748   0.354176   7.859970  -0.046065  -0.003844   0.000143
     4  S   -0.045468   0.308360  -0.046065  15.787255   0.278710  -0.032947
     5  C    0.001491  -0.006626  -0.003844   0.278710   4.989641   0.239625
     6  S   -0.000031   0.000428   0.000143  -0.032947   0.239625  15.789815
     7  S    0.000000   0.000001   0.000002   0.001532   0.011181   0.111480
     8  O   -0.000000   0.000000  -0.000000  -0.000006   0.000693  -0.017218
     9  H    0.370340  -0.017997   0.001297   0.003753  -0.000063   0.000000
    10  H    0.373259  -0.026978  -0.002136  -0.002317   0.000041   0.000001
    11  H    0.358155  -0.018044   0.003037   0.001646   0.000020  -0.000002
    12  H   -0.041920   0.366804  -0.024275  -0.054938  -0.001992  -0.000036
    13  H   -0.004602  -0.062097   0.306525   0.005670  -0.000125  -0.000034
    14  H    0.000174  -0.001915   0.008972  -0.041902   0.371281  -0.044968
    15  H    0.000011  -0.001467  -0.000351  -0.043686   0.373892  -0.044511
               7          8          9         10         11         12
     1  C    0.000000  -0.000000   0.370340   0.373259   0.358155  -0.041920
     2  C    0.000001   0.000000  -0.017997  -0.026978  -0.018044   0.366804
     3  O    0.000002  -0.000000   0.001297  -0.002136   0.003037  -0.024275
     4  S    0.001532  -0.000006   0.003753  -0.002317   0.001646  -0.054938
     5  C    0.011181   0.000693  -0.000063   0.000041   0.000020  -0.001992
     6  S    0.111480  -0.017218   0.000000   0.000001  -0.000002  -0.000036
     7  S   15.249446   0.365294  -0.000000   0.000000  -0.000000   0.000003
     8  O    0.365294   7.976574   0.000000  -0.000000   0.000000   0.000000
     9  H   -0.000000   0.000000   0.567589  -0.033028  -0.027301  -0.003610
    10  H    0.000000  -0.000000  -0.033028   0.573699  -0.025788   0.005133
    11  H   -0.000000   0.000000  -0.027301  -0.025788   0.568169  -0.000094
    12  H    0.000003   0.000000  -0.003610   0.005133  -0.000094   0.616273
    13  H    0.000000   0.000000  -0.000301   0.006075  -0.000128   0.007317
    14  H    0.002392   0.000005  -0.000001  -0.000002  -0.000009  -0.000355
    15  H    0.001818   0.000006   0.000000   0.000007  -0.000001   0.004635
              13         14         15
     1  C   -0.004602   0.000174   0.000011
     2  C   -0.062097  -0.001915  -0.001467
     3  O    0.306525   0.008972  -0.000351
     4  S    0.005670  -0.041902  -0.043686
     5  C   -0.000125   0.371281   0.373892
     6  S   -0.000034  -0.044968  -0.044511
     7  S    0.000000   0.002392   0.001818
     8  O    0.000000   0.000005   0.000006
     9  H   -0.000301  -0.000001   0.000000
    10  H    0.006075  -0.000002   0.000007
    11  H   -0.000128  -0.000009  -0.000001
    12  H    0.007317  -0.000355   0.004635
    13  H    0.449486  -0.000407   0.000093
    14  H   -0.000407   0.577511  -0.041087
    15  H    0.000093  -0.041087   0.590995
          Atomic-Atomic Spin Densities.
               1          2          3          4          5          6
     1  C   -0.000079  -0.000024   0.000083  -0.000031  -0.000000   0.000001
     2  C   -0.000024  -0.000828  -0.000218   0.000389   0.000078   0.000009
     3  O    0.000083  -0.000218   0.000572  -0.000173   0.000012   0.000006
     4  S   -0.000031   0.000389  -0.000173   0.000601  -0.000193  -0.000639
     5  C   -0.000000   0.000078   0.000012  -0.000193  -0.008269   0.007166
     6  S    0.000001   0.000009   0.000006  -0.000639   0.007166   0.149218
     7  S   -0.000000  -0.000002  -0.000000   0.000013  -0.001673  -0.053144
     8  O    0.000000  -0.000000   0.000000  -0.000001  -0.000020   0.009278
     9  H    0.000046   0.000004  -0.000005   0.000003   0.000000   0.000000
    10  H   -0.000041   0.000020  -0.000007   0.000012  -0.000000  -0.000000
    11  H    0.000003  -0.000003   0.000000   0.000004   0.000000  -0.000000
    12  H   -0.000035   0.000075  -0.000050  -0.000023  -0.000003   0.000004
    13  H   -0.000021   0.000055  -0.000069   0.000032  -0.000004  -0.000004
    14  H   -0.000004   0.000011  -0.000105   0.000289  -0.000345  -0.002842
    15  H    0.000003   0.000011   0.000032   0.000257  -0.000613  -0.002855
               7          8          9         10         11         12
     1  C   -0.000000   0.000000   0.000046  -0.000041   0.000003  -0.000035
     2  C   -0.000002  -0.000000   0.000004   0.000020  -0.000003   0.000075
     3  O   -0.000000   0.000000  -0.000005  -0.000007   0.000000  -0.000050
     4  S    0.000013  -0.000001   0.000003   0.000012   0.000004  -0.000023
     5  C   -0.001673  -0.000020   0.000000  -0.000000   0.000000  -0.000003
     6  S   -0.053144   0.009278   0.000000  -0.000000  -0.000000   0.000004
     7  S    0.588580  -0.102784  -0.000000   0.000000   0.000000  -0.000000
     8  O   -0.102784   0.551013  -0.000000  -0.000000  -0.000000   0.000000
     9  H   -0.000000  -0.000000  -0.000133   0.000005   0.000000   0.000001
    10  H    0.000000  -0.000000   0.000005   0.000014  -0.000000   0.000002
    11  H    0.000000  -0.000000   0.000000  -0.000000   0.000004  -0.000001
    12  H   -0.000000   0.000000   0.000001   0.000002  -0.000001   0.000107
    13  H    0.000000  -0.000000   0.000000   0.000004  -0.000000   0.000004
    14  H    0.001428  -0.000008  -0.000000   0.000000  -0.000000   0.000019
    15  H    0.001417  -0.000008  -0.000000  -0.000000   0.000000  -0.000054
              13         14         15
     1  C   -0.000021  -0.000004   0.000003
     2  C    0.000055   0.000011   0.000011
     3  O   -0.000069  -0.000105   0.000032
     4  S    0.000032   0.000289   0.000257
     5  C   -0.000004  -0.000345  -0.000613
     6  S   -0.000004  -0.002842  -0.002855
     7  S    0.000000   0.001428   0.001417
     8  O   -0.000000  -0.000008  -0.000008
     9  H    0.000000  -0.000000  -0.000000
    10  H    0.000004   0.000000  -0.000000
    11  H   -0.000000  -0.000000   0.000000
    12  H    0.000004   0.000019  -0.000054
    13  H    0.000025   0.000021  -0.000003
    14  H    0.000021   0.006698  -0.002123
    15  H   -0.000003  -0.002123   0.007133
 Mulliken charges and spin densities:
               1          2
     1  C   -0.408721  -0.000101
     2  C    0.109957  -0.000423
     3  O   -0.418704   0.000078
     4  S   -0.119597   0.000542
     5  C   -0.253926  -0.003864
     6  S   -0.001747   0.106199
     7  S    0.256850   0.433835
     8  O   -0.325347   0.457471
     9  H    0.139322  -0.000079
    10  H    0.132035   0.000010
    11  H    0.140340   0.000007
    12  H    0.127055   0.000046
    13  H    0.292528   0.000042
    14  H    0.170311   0.003041
    15  H    0.159645   0.003196
 Sum of Mulliken charges =  -0.00000   1.00000
 Mulliken charges and spin densities with hydrogens summed into heavy atoms:
               1          2
     1  C    0.002975  -0.000162
     2  C    0.237012  -0.000377
     3  O   -0.126176   0.000120
     4  S   -0.119597   0.000542
     5  C    0.076030   0.002372
     6  S   -0.001747   0.106199
     7  S    0.256850   0.433835
     8  O   -0.325347   0.457471
 Electronic spatial extent (au):  <R**2>=           2703.3733
 Charge=             -0.0000 electrons
 Dipole moment (field-independent basis, Debye):
    X=              4.5203    Y=              1.6508    Z=              0.6721  Tot=              4.8590
 Quadrupole moment (field-independent basis, Debye-Ang):
   XX=            -74.9040   YY=            -71.7935   ZZ=            -65.8478
   XY=             -6.3024   XZ=             -2.5620   YZ=              0.0976
 Traceless Quadrupole moment (field-independent basis, Debye-Ang):
   XX=             -4.0556   YY=             -0.9451   ZZ=              5.0007
   XY=             -6.3024   XZ=             -2.5620   YZ=              0.0976
 Octapole moment (field-independent basis, Debye-Ang**2):
  XXX=            100.6162  YYY=              2.5762  ZZZ=             -3.6811  XYY=            -13.3251
  XXY=              6.3961  XXZ=              1.4053  XZZ=              7.7459  YZZ=              7.6567
  YYZ=             -1.5810  XYZ=             -2.1312
 Hexadecapole moment (field-independent basis, Debye-Ang**3):
 XXXX=          -3173.2843 YYYY=           -308.6109 ZZZZ=           -117.6918 XXXY=            -62.5055
 XXXZ=            -40.9053 YYYX=             -0.8536 YYYZ=             -1.1947 ZZZX=            -15.1683
 ZZZY=             -6.9400 XXYY=           -565.8355 XXZZ=           -489.1245 YYZZ=            -67.0991
 XXYZ=             -5.1647 YYXZ=             -1.6148 ZZXY=             16.7081
 N-N= 6.058114436045D+02 E-N=-4.679791220692D+03  KE= 1.458092430407D+03
                          Isotropic Fermi Contact Couplings
        Atom                 a.u.       MegaHertz       Gauss      10(-4) cm-1
     1  C(13)             -0.00008      -0.08969      -0.03201      -0.02992
     2  C(13)             -0.00037      -0.41119      -0.14672      -0.13716
     3  O(17)              0.00028      -0.16838      -0.06008      -0.05617
     4  S(33)             -0.00138      -0.47487      -0.16945      -0.15840
     5  C(13)             -0.00278      -3.12741      -1.11594      -1.04319
     6  S(33)              0.00757       2.60051       0.92793       0.86744
     7  S(33)              0.05631      19.34197       6.90170       6.45179
     8  O(17)              0.06161     -37.34555     -13.32582     -12.45713
     9  H(1)              -0.00003      -0.13239      -0.04724      -0.04416
    10  H(1)              -0.00000      -0.01011      -0.00361      -0.00337
    11  H(1)               0.00001       0.02372       0.00846       0.00791
    12  H(1)               0.00005       0.22003       0.07851       0.07339
    13  H(1)              -0.00000      -0.01170      -0.00418      -0.00390
    14  H(1)               0.00091       4.05425       1.44666       1.35235
    15  H(1)               0.00097       4.31714       1.54046       1.44004
 --------------------------------------------------------
       Center         ----  Spin Dipole Couplings  ----
                      3XX-RR        3YY-RR        3ZZ-RR
 --------------------------------------------------------
     1   Atom        0.000603     -0.000301     -0.000302
     2   Atom        0.000696     -0.000453     -0.000243
     3   Atom        0.001403     -0.000453     -0.000950
     4   Atom       -0.003713     -0.002266      0.005979
     5   Atom        0.004020     -0.001744     -0.002277
     6   Atom       -0.275704     -0.232834      0.508538
     7   Atom       -1.098323     -0.813147      1.911471
     8   Atom       -0.903876     -0.633732      1.537608
     9   Atom        0.000535     -0.000277     -0.000258
    10   Atom        0.000679     -0.000332     -0.000348
    11   Atom        0.000658     -0.000327     -0.000332
    12   Atom        0.001171     -0.000600     -0.000571
    13   Atom        0.000983     -0.000508     -0.000475
    14   Atom        0.004941     -0.001773     -0.003168
    15   Atom        0.004538     -0.002120     -0.002418
 --------------------------------------------------------
                        XY            XZ            YZ
 --------------------------------------------------------
     1   Atom       -0.000002      0.000048     -0.000023
     2   Atom       -0.000443     -0.000071     -0.000059
     3   Atom        0.000951     -0.000170     -0.000074
     4   Atom        0.001902      0.000104     -0.005453
     5   Atom       -0.000517      0.000110      0.000216
     6   Atom        0.048710     -0.023204     -0.273178
     7   Atom       -0.014643     -0.168778     -1.032511
     8   Atom        0.033300     -0.116598     -0.819085
     9   Atom       -0.000001      0.000041     -0.000005
    10   Atom       -0.000117     -0.000111      0.000002
    11   Atom       -0.000192      0.000111     -0.000013
    12   Atom        0.000178      0.000414      0.000010
    13   Atom        0.000288     -0.000375     -0.000047
    14   Atom        0.002454     -0.000861      0.000198
    15   Atom        0.001185      0.002790      0.000645
 --------------------------------------------------------


 ---------------------------------------------------------------------------------
              Anisotropic Spin Dipole Couplings in Principal Axis System
 ---------------------------------------------------------------------------------

       Atom             a.u.   MegaHertz   Gauss  10(-4) cm-1        Axes

              Baa    -0.0003    -0.044    -0.016    -0.015 -0.0366  0.6831  0.7294
     1 C(13)  Bbb    -0.0003    -0.038    -0.013    -0.013  0.0388  0.7303 -0.6820
              Bcc     0.0006     0.081     0.029     0.027  0.9986 -0.0033  0.0532
 
              Baa    -0.0006    -0.083    -0.030    -0.028  0.3221  0.9244  0.2045
     2 C(13)  Bbb    -0.0002    -0.031    -0.011    -0.010 -0.0249 -0.2077  0.9779
              Bcc     0.0008     0.114     0.041     0.038  0.9464 -0.3200 -0.0439
 
              Baa    -0.0010     0.070     0.025     0.023  0.0546  0.0429  0.9976
     3 O(17)  Bbb    -0.0009     0.062     0.022     0.021 -0.3893  0.9209 -0.0183
              Bcc     0.0018    -0.131    -0.047    -0.044  0.9195  0.3873 -0.0670
 
              Baa    -0.0062    -0.255    -0.091    -0.085 -0.5780  0.7431  0.3371
     4 S(33)  Bbb    -0.0025    -0.103    -0.037    -0.034  0.8137  0.4937  0.3068
              Bcc     0.0087     0.358     0.128     0.120 -0.0616 -0.4517  0.8901
 
              Baa    -0.0024    -0.317    -0.113    -0.106 -0.0452 -0.3609  0.9315
     5 C(13)  Bbb    -0.0017    -0.228    -0.081    -0.076  0.0769  0.9284  0.3635
              Bcc     0.0041     0.546     0.195     0.182  0.9960 -0.0881  0.0143
 
              Baa    -0.3451   -14.147    -5.048    -4.719 -0.4983  0.8296  0.2519
     6 S(33)  Bbb    -0.2549   -10.449    -3.728    -3.485  0.8659  0.4620  0.1916
              Bcc     0.5999    24.596     8.776     8.204 -0.0426 -0.3137  0.9486
 
              Baa    -1.2058   -49.435   -17.640   -16.490  0.5583  0.7780  0.2879
     7 S(33)  Bbb    -1.0599   -43.457   -15.506   -14.496  0.8283 -0.5421 -0.1413
              Bcc     2.2657    92.892    33.146    30.985 -0.0461 -0.3174  0.9472
 
              Baa    -0.9141    66.147    23.603    22.064  0.7445  0.6218  0.2431
     8 O(17)  Bbb    -0.9032    65.354    23.320    21.800 -0.6661  0.7161  0.2085
              Bcc     1.8173  -131.500   -46.923   -43.864 -0.0445 -0.3172  0.9473
 
              Baa    -0.0003    -0.149    -0.053    -0.050 -0.0113  0.9701  0.2424
     9 H(1)   Bbb    -0.0003    -0.138    -0.049    -0.046 -0.0508 -0.2426  0.9688
              Bcc     0.0005     0.287     0.102     0.096  0.9986 -0.0014  0.0520
 
              Baa    -0.0004    -0.195    -0.069    -0.065  0.1450  0.4636  0.8741
    10 H(1)   Bbb    -0.0003    -0.181    -0.065    -0.060  0.0489  0.8790 -0.4743
              Bcc     0.0007     0.376     0.134     0.125  0.9882 -0.1115 -0.1048
 
              Baa    -0.0004    -0.195    -0.070    -0.065  0.2090  0.9198 -0.3322
    11 H(1)   Bbb    -0.0003    -0.182    -0.065    -0.061 -0.0377  0.3471  0.9371
              Bcc     0.0007     0.377     0.134     0.126  0.9772 -0.1833  0.1072
 
              Baa    -0.0007    -0.362    -0.129    -0.121 -0.2364  0.4330  0.8699
    12 H(1)   Bbb    -0.0006    -0.321    -0.115    -0.107  0.0133  0.8966 -0.4427
              Bcc     0.0013     0.683     0.244     0.228  0.9716  0.0930  0.2177
 
              Baa    -0.0006    -0.312    -0.111    -0.104  0.2879 -0.6424  0.7102
    13 H(1)   Bbb    -0.0005    -0.289    -0.103    -0.096  0.0230  0.7461  0.6655
              Bcc     0.0011     0.601     0.214     0.200  0.9574  0.1752 -0.2296
 
              Baa    -0.0035    -1.848    -0.659    -0.616  0.2106 -0.4099  0.8875
    14 H(1)   Bbb    -0.0023    -1.250    -0.446    -0.417 -0.2361  0.8597  0.4530
              Bcc     0.0058     3.098     1.105     1.033  0.9486  0.3050 -0.0843
 
              Baa    -0.0034    -1.836    -0.655    -0.612 -0.2991 -0.1884  0.9354
    15 H(1)   Bbb    -0.0023    -1.229    -0.439    -0.410 -0.2186  0.9678  0.1250
              Bcc     0.0057     3.065     1.094     1.022  0.9288  0.1671  0.3306
 

 ---------------------------------------------------------------------------------

 PrsmSu:  requested number of processors reduced to:  13 ShMem   1 Linda.
 Calling FoFJK, ICntrl=      2127 FMM=F ISym2X=0 I1Cent= 0 IOpClX= 1 NMat=1 NMatS=1 NMatT=0.
 ***** Axes restored to original set *****
 -------------------------------------------------------------------
 Center     Atomic                   Forces (Hartrees/Bohr)
 Number     Number              X              Y              Z
 -------------------------------------------------------------------
      1        6          -0.007921359    0.005289623    0.002747018
      2        6          -0.009489962   -0.018914487   -0.004130751
      3        8           0.003588568    0.000923921    0.004312908
      4       16           0.001380791    0.016011804   -0.007519132
      5        6           0.003013371   -0.005622075    0.003527786
      6       16          -0.022369583    0.000909472   -0.000143712
      7       16           0.028933338    0.056069166   -0.047974029
      8        8          -0.010288340   -0.055189409    0.046879877
      9        1           0.005028655    0.000804133    0.001270137
     10        1           0.002529100    0.003058162   -0.000708664
     11        1           0.000086347   -0.000821103   -0.001373719
     12        1           0.004823230   -0.003039159   -0.002277427
     13        1           0.003345638    0.000369763    0.004426982
     14        1          -0.001734734    0.000765156    0.001829245
     15        1          -0.000925060   -0.000614968   -0.000866520
 -------------------------------------------------------------------
 Cartesian Forces:  Max     0.056069166 RMS     0.017140230

 GradGradGradGradGradGradGradGradGradGradGradGradGradGradGradGradGradGrad
 Berny optimization.
 FormGI is forming the generalized inverse of G from B-inverse, IUseBI=4.
 Internal  Forces:  Max     0.072746231 RMS     0.011102753
 Search for a local minimum.
 Step number   1 out of a maximum of   68
 All quantities printed in internal units (Hartrees-Bohrs-Radians)
 Mixed Optimization -- RFO/linear search
 Second derivative matrix not updated -- first step.
 ITU=  0
     Eigenvalues ---    0.00230   0.00230   0.00230   0.00383   0.00705
     Eigenvalues ---    0.01454   0.05347   0.05568   0.05718   0.06245
     Eigenvalues ---    0.08081   0.08892   0.09263   0.11314   0.14052
     Eigenvalues ---    0.16000   0.16000   0.16000   0.16000   0.18226
     Eigenvalues ---    0.20442   0.22196   0.23809   0.23831   0.25000
     Eigenvalues ---    0.25000   0.25000   0.25241   0.29517   0.29931
     Eigenvalues ---    0.33964   0.34134   0.34153   0.34338   0.34376
     Eigenvalues ---    0.34380   0.42768   0.47345   0.53319
 RFO step:  Lambda=-1.91910553D-02 EMin= 2.30000000D-03
 Linear search not attempted -- first point.
 Iteration  1 RMS(Cart)=  0.09162020 RMS(Int)=  0.00409400
 Iteration  2 RMS(Cart)=  0.00635353 RMS(Int)=  0.00044467
 Iteration  3 RMS(Cart)=  0.00002031 RMS(Int)=  0.00044450
 Iteration  4 RMS(Cart)=  0.00000000 RMS(Int)=  0.00044450
 Variable       Old X    -DE/DX   Delta X   Delta X   Delta X     New X
                                 (Linear)    (Quad)   (Total)
    R1        2.88936   0.00007   0.00000   0.00024   0.00024   2.88960
    R2        2.07072  -0.00137   0.00000  -0.00381  -0.00381   2.06692
    R3        2.07391  -0.00098   0.00000  -0.00273  -0.00273   2.07118
    R4        2.07104  -0.00119   0.00000  -0.00331  -0.00331   2.06773
    R5        2.67957  -0.00142   0.00000  -0.00319  -0.00319   2.67638
    R6        3.42299   0.01112   0.00000   0.04093   0.04093   3.46392
    R7        2.06699  -0.00091   0.00000  -0.00250  -0.00250   2.06450
    R8        1.83357  -0.00543   0.00000  -0.00982  -0.00982   1.82375
    R9        3.46036  -0.00308   0.00000  -0.01196  -0.01196   3.44841
   R10        3.45978   0.00076   0.00000   0.00295   0.00295   3.46273
   R11        2.06693  -0.00183   0.00000  -0.00504  -0.00504   2.06189
   R12        2.06764  -0.00120   0.00000  -0.00331  -0.00331   2.06433
   R13        3.86402   0.01836   0.00000   0.05766   0.05766   3.92168
   R14        3.06344  -0.07275   0.00000  -0.14767  -0.14767   2.91577
    A1        1.93340  -0.00616   0.00000  -0.03278  -0.03284   1.90056
    A2        1.94818  -0.00256   0.00000  -0.01392  -0.01399   1.93419
    A3        1.95172   0.00187   0.00000   0.00849   0.00851   1.96023
    A4        1.84841   0.00511   0.00000   0.03232   0.03217   1.88058
    A5        1.88426   0.00221   0.00000   0.01164   0.01168   1.89593
    A6        1.89373  -0.00009   0.00000  -0.00340  -0.00338   1.89035
    A7        1.90686   0.01059   0.00000   0.06575   0.06489   1.97175
    A8        1.88428  -0.00551   0.00000  -0.00520  -0.00694   1.87734
    A9        1.91144   0.00172   0.00000   0.00680   0.00745   1.91890
   A10        1.92995   0.00280   0.00000   0.03431   0.03283   1.96279
   A11        1.89771  -0.00850   0.00000  -0.06991  -0.06961   1.82810
   A12        1.93343  -0.00078   0.00000  -0.02940  -0.02925   1.90417
   A13        1.85146   0.00186   0.00000   0.01040   0.01040   1.86186
   A14        1.77723  -0.01557   0.00000  -0.05784  -0.05784   1.71939
   A15        1.86182  -0.00265   0.00000  -0.01097  -0.01096   1.85086
   A16        1.92169  -0.00078   0.00000  -0.00779  -0.00777   1.91392
   A17        1.92418   0.00019   0.00000  -0.00181  -0.00180   1.92238
   A18        1.91383   0.00234   0.00000   0.01440   0.01435   1.92819
   A19        1.91361   0.00131   0.00000   0.00789   0.00784   1.92145
   A20        1.92760  -0.00045   0.00000  -0.00176  -0.00184   1.92576
   A21        1.80522  -0.00968   0.00000  -0.03594  -0.03594   1.76928
   A22        1.70084   0.02322   0.00000   0.08627   0.08627   1.78711
    D1        1.00889  -0.00287   0.00000  -0.03992  -0.04000   0.96889
    D2        3.10863   0.00337   0.00000   0.03653   0.03684  -3.13772
    D3       -1.06794   0.00011   0.00000   0.00173   0.00166  -1.06628
    D4       -1.04633  -0.00364   0.00000  -0.05023  -0.05041  -1.09673
    D5        1.05342   0.00260   0.00000   0.02622   0.02642   1.07984
    D6       -3.12315  -0.00066   0.00000  -0.00858  -0.00875  -3.13190
    D7        3.11161  -0.00303   0.00000  -0.04192  -0.04206   3.06955
    D8       -1.07183   0.00321   0.00000   0.03452   0.03477  -1.03705
    D9        1.03479  -0.00005   0.00000  -0.00028  -0.00040   1.03439
   D10        0.99372  -0.00019   0.00000   0.02841   0.03014   1.02386
   D11       -1.07780  -0.00167   0.00000  -0.02663  -0.02763  -1.10542
   D12        3.07905   0.00306   0.00000   0.03378   0.03305   3.11209
   D13        3.12063  -0.00405   0.00000  -0.02412  -0.02394   3.09669
   D14       -1.07737   0.00709   0.00000   0.07279   0.07284  -1.00453
   D15        1.02781  -0.00225   0.00000  -0.01178  -0.01200   1.01581
   D16       -3.11748  -0.00018   0.00000  -0.01772  -0.01771  -3.13519
   D17        1.09022  -0.00100   0.00000  -0.02430  -0.02431   1.06591
   D18       -1.04091  -0.00006   0.00000  -0.01571  -0.01571  -1.05662
   D19       -3.12288   0.00047   0.00000   0.01387   0.01388  -3.10899
   D20       -1.04228  -0.00071   0.00000   0.00607   0.00598  -1.03630
   D21        1.07686   0.00106   0.00000   0.01807   0.01815   1.09501
   D22        3.13603   0.00004   0.00000   0.00153   0.00153   3.13755
         Item               Value     Threshold  Converged?
 Maximum Force            0.072746     0.000450     NO 
 RMS     Force            0.011103     0.000300     NO 
 Maximum Displacement     0.266661     0.001800     NO 
 RMS     Displacement     0.091813     0.001200     NO 
 Predicted change in Energy=-1.032200D-02
 GradGradGradGradGradGradGradGradGradGradGradGradGradGradGradGradGradGrad

                          Input orientation:                          
 ---------------------------------------------------------------------
 Center     Atomic      Atomic             Coordinates (Angstroms)
 Number     Number       Type             X           Y           Z
 ---------------------------------------------------------------------
      1          6           0        1.007879    0.024726    0.081580
      2          6           0        2.530812    0.090190   -0.039117
      3          8           0        3.106903   -1.139849   -0.440329
      4         16           0        2.936325    1.460748   -1.186774
      5          6           0        4.755992    1.368532   -1.085429
      6         16           0        5.392009    2.694866   -2.178136
      7         16           0        7.441637    2.418425   -2.006883
      8          8           0        8.002773    3.523489   -2.925950
      9          1           0        0.741354   -0.785440    0.766358
     10          1           0        0.549168   -0.194064   -0.889488
     11          1           0        0.580730    0.957887    0.461072
     12          1           0        2.973419    0.298991    0.937624
     13          1           0        2.713155   -1.365322   -1.292100
     14          1           0        5.094036    0.391576   -1.434415
     15          1           0        5.084670    1.539175   -0.057723
 ---------------------------------------------------------------------
                    Distance matrix (angstroms):
                    1          2          3          4          5
     1  C    0.000000
     2  C    1.529110   0.000000
     3  O    2.456527   1.416280   0.000000
     4  S    2.718417   1.833027   2.710975   0.000000
     5  C    4.149226   2.771346   3.070444   1.824818   0.000000
     6  S    5.608615   4.421108   4.790274   2.921682   1.832399
     7  S    7.175285   5.780051   5.822828   4.678414   3.027217
     8  O    8.379446   7.075571   7.203789   5.740080   4.309633
     9  H    1.093766   2.148878   2.679090   3.698376   4.917929
    10  H    1.096019   2.175050   2.763741   2.919812   4.491934
    11  H    1.094194   2.192238   3.405080   2.918406   4.471365
    12  H    2.161338   1.092485   1.996706   2.421595   2.900729
    13  H    2.593684   1.929179   0.965086   2.836824   3.419043
    14  H    4.373728   2.933907   2.698549   2.420779   1.091104
    15  H    4.351228   2.936340   3.351883   2.428227   1.092395
                    6          7          8          9         10
     6  S    0.000000
     7  S    2.075264   0.000000
     8  O    2.839354   1.542959   0.000000
     9  H    6.512385   7.927762   9.215650   0.000000
    10  H    5.784431   7.455186   8.574590   1.768752   0.000000
    11  H    5.755946   7.436129   8.552248   1.777129   1.775387
    12  H    4.614949   5.755615   7.114703   2.487456   3.075457
    13  H    4.944334   6.098049   7.385797   2.908868   2.493348
    14  H    2.438658   3.153897   4.527064   5.017430   4.614731
    15  H    2.434385   3.182389   4.547478   4.994731   4.926127
                   11         12         13         14         15
    11  H    0.000000
    12  H    2.527094   0.000000
    13  H    3.608067   2.794521   0.000000
    14  H    4.927830   3.183105   2.962353   0.000000
    15  H    4.570833   2.643133   3.947641   1.792303   0.000000
 Stoichiometry    C3H7O2S3(2)
 Framework group  C1[X(C3H7O2S3)]
 Deg. of freedom    39
 Full point group                 C1      NOp   1
 Largest Abelian subgroup         C1      NOp   1
 Largest concise Abelian subgroup C1      NOp   1
                         Standard orientation:                         
 ---------------------------------------------------------------------
 Center     Atomic      Atomic             Coordinates (Angstroms)
 Number     Number       Type             X           Y           Z
 ---------------------------------------------------------------------
      1          6           0        4.111572   -0.403165    0.194408
      2          6           0        2.784576    0.342987    0.337651
      3          8           0        2.738222    1.538779   -0.419832
      4         16           0        1.443203   -0.822819   -0.111348
      5          6           0        0.016912    0.267169    0.216648
      6         16           0       -1.476307   -0.723881   -0.165196
      7         16           0       -2.985060    0.656320    0.188969
      8          8           0       -4.257810   -0.154587   -0.132375
      9          1           0        4.928733    0.272982    0.461608
     10          1           0        4.268404   -0.723667   -0.841903
     11          1           0        4.163458   -1.285945    0.838819
     12          1           0        2.647481    0.664146    1.372825
     13          1           0        2.884018    1.289178   -1.340611
     14          1           0        0.068699    1.144188   -0.430394
     15          1           0        0.008185    0.569723    1.266273
 ---------------------------------------------------------------------
 Rotational constants (GHZ):           4.3683140           0.4157047           0.3883464
 Standard basis: 6-31G(2df,p) (6D, 7F)
 There are   295 symmetry adapted cartesian basis functions of A   symmetry.
 There are   271 symmetry adapted basis functions of A   symmetry.
   271 basis functions,   473 primitive gaussians,   295 cartesian basis functions
    45 alpha electrons       44 beta electrons
       nuclear repulsion energy       607.4801699765 Hartrees.
 NAtoms=   15 NActive=   15 NUniq=   15 SFac= 1.00D+00 NAtFMM=   60 NAOKFM=F Big=F
 Integral buffers will be    131072 words long.
 Raffenetti 2 integral format.
 Two-electron integral symmetry is turned on.
 One-electron integrals computed using PRISM.
 PrsmSu:  requested number of processors reduced to:  13 ShMem   1 Linda.
 NBasis=   271 RedAO= T EigKep=  1.18D-03  NBF=   271
 NBsUse=   271 1.00D-06 EigRej= -1.00D+00 NBFU=   271
 Initial guess from the checkpoint file:  "CCqOrSCSS[O].chk"
 B after Tr=     0.000000    0.000000   -0.000000
         Rot=    0.999990   -0.003686   -0.000656   -0.002310 Ang=  -0.50 deg.
 Initial guess <Sx>= 0.0000 <Sy>= 0.0000 <Sz>= 0.5000 <S**2>= 0.7549 S= 0.5025
 ExpMin= 1.17D-01 ExpMax= 2.19D+04 ExpMxC= 3.30D+03 IAcc=2 IRadAn=         4 AccDes= 0.00D+00
 Harris functional with IExCor=  402 and IRadAn=       4 diagonalized for initial guess.
 HarFok:  IExCor=  402 AccDes= 0.00D+00 IRadAn=         4 IDoV= 1 UseB2=F ITyADJ=14
 ICtDFT=  3500011 ScaDFX=  1.000000  1.000000  1.000000  1.000000
 FoFCou: FMM=F IPFlag=           0 FMFlag=      100000 FMFlg1=           0
         NFxFlg=           0 DoJE=T BraDBF=F KetDBF=T FulRan=T
         wScrn=  0.000000 ICntrl=       500 IOpCl=  0 I1Cent=   200000004 NGrid=           0
         NMat0=    1 NMatS0=      1 NMatT0=    0 NMatD0=    1 NMtDS0=    0 NMtDT0=    0
 Petite list used in FoFCou.
 Requested convergence on RMS density matrix=1.00D-08 within 128 cycles.
 Requested convergence on MAX density matrix=1.00D-06.
 Requested convergence on             energy=1.00D-06.
 No special actions if energy rises.
 Integral accuracy reduced to 1.0D-05 until final iterations.
 Initial convergence to 1.0D-05 achieved.  Increase integral accuracy.
 SCF Done:  E(UB3LYP) =  -1463.53498247     A.U. after   17 cycles
            NFock= 17  Conv=0.22D-08     -V/T= 2.0037
 <Sx>= 0.0000 <Sy>= 0.0000 <Sz>= 0.5000 <S**2>= 0.7549 S= 0.5024
 <L.S>=  0.00000000000    
 Annihilation of the first spin contaminant:
 S**2 before annihilation     0.7549,   after     0.7500
 PrsmSu:  requested number of processors reduced to:  13 ShMem   1 Linda.
 Calling FoFJK, ICntrl=      2127 FMM=F ISym2X=0 I1Cent= 0 IOpClX= 1 NMat=1 NMatS=1 NMatT=0.
 ***** Axes restored to original set *****
 -------------------------------------------------------------------
 Center     Atomic                   Forces (Hartrees/Bohr)
 Number     Number              X              Y              Z
 -------------------------------------------------------------------
      1        6          -0.001059832   -0.002618089   -0.000129648
      2        6          -0.001810584   -0.007980029    0.002450146
      3        8          -0.003289688    0.005366750    0.000952516
      4       16           0.000975177    0.003877100   -0.002138237
      5        6           0.002821000   -0.000490792   -0.000287359
      6       16          -0.014025700    0.000937915   -0.000213691
      7       16           0.021749375    0.026943243   -0.022881831
      8        8          -0.009270261   -0.027634777    0.022886271
      9        1           0.000418234    0.000081943    0.000276884
     10        1           0.000263587    0.000875043   -0.000129754
     11        1           0.001713101   -0.000167364   -0.000454292
     12        1           0.001465946    0.001777692   -0.000113615
     13        1           0.000661430   -0.001347794   -0.000719732
     14        1          -0.000418732    0.000131723    0.000557300
     15        1          -0.000193055    0.000247436   -0.000054958
 -------------------------------------------------------------------
 Cartesian Forces:  Max     0.027634777 RMS     0.008764702

 GradGradGradGradGradGradGradGradGradGradGradGradGradGradGradGradGradGrad
 Berny optimization.
 Using GEDIIS/GDIIS optimizer.
 FormGI is forming the generalized inverse of G from B-inverse, IUseBI=4.
 Internal  Forces:  Max     0.036795184 RMS     0.005589355
 Search for a local minimum.
 Step number   2 out of a maximum of   68
 All quantities printed in internal units (Hartrees-Bohrs-Radians)
 Mixed Optimization -- RFO/linear search
 Update second derivatives using D2CorX and points    1    2
 DE= -1.38D-02 DEPred=-1.03D-02 R= 1.34D+00
 TightC=F SS=  1.41D+00  RLast= 2.70D-01 DXNew= 5.0454D-01 8.1142D-01
 Trust test= 1.34D+00 RLast= 2.70D-01 DXMaxT set to 5.05D-01
 ITU=  1  0
 Use linear search instead of GDIIS.
     Eigenvalues ---    0.00230   0.00230   0.00230   0.00383   0.00705
     Eigenvalues ---    0.01455   0.05404   0.05694   0.05754   0.06088
     Eigenvalues ---    0.08157   0.09155   0.09287   0.11233   0.14003
     Eigenvalues ---    0.15310   0.16000   0.16000   0.16336   0.18091
     Eigenvalues ---    0.18832   0.21777   0.22612   0.23829   0.23898
     Eigenvalues ---    0.25000   0.25210   0.26087   0.28477   0.29550
     Eigenvalues ---    0.33965   0.34112   0.34163   0.34339   0.34365
     Eigenvalues ---    0.34418   0.36307   0.43110   0.53525
 RFO step:  Lambda=-4.07546776D-03 EMin= 2.29626444D-03
 Quartic linear search produced a step of  0.57260.
 Iteration  1 RMS(Cart)=  0.08882357 RMS(Int)=  0.00435388
 Iteration  2 RMS(Cart)=  0.00664181 RMS(Int)=  0.00026972
 Iteration  3 RMS(Cart)=  0.00003088 RMS(Int)=  0.00026902
 Iteration  4 RMS(Cart)=  0.00000000 RMS(Int)=  0.00026902
 Variable       Old X    -DE/DX   Delta X   Delta X   Delta X     New X
                                 (Linear)    (Quad)   (Total)
    R1        2.88960  -0.00129   0.00013  -0.00687  -0.00673   2.88287
    R2        2.06692   0.00001  -0.00218   0.00167  -0.00051   2.06641
    R3        2.07118  -0.00017  -0.00157   0.00038  -0.00118   2.07000
    R4        2.06773  -0.00097  -0.00190  -0.00301  -0.00490   2.06282
    R5        2.67638  -0.00462  -0.00182  -0.01555  -0.01738   2.65901
    R6        3.46392   0.00470   0.02343   0.01019   0.03363   3.49755
    R7        2.06450   0.00083  -0.00143   0.00482   0.00339   2.06789
    R8        1.82375   0.00068  -0.00562   0.00587   0.00025   1.82399
    R9        3.44841   0.00065  -0.00685   0.00976   0.00292   3.45132
   R10        3.46273  -0.00023   0.00169  -0.00287  -0.00118   3.46155
   R11        2.06189  -0.00043  -0.00289   0.00021  -0.00267   2.05921
   R12        2.06433  -0.00007  -0.00190   0.00108  -0.00081   2.06352
   R13        3.92168   0.01242   0.03302   0.03918   0.07219   3.99387
   R14        2.91577  -0.03680  -0.08455  -0.06193  -0.14649   2.76928
    A1        1.90056  -0.00004  -0.01881   0.01924   0.00036   1.90092
    A2        1.93419   0.00012  -0.00801   0.00918   0.00106   1.93525
    A3        1.96023  -0.00221   0.00487  -0.02890  -0.02410   1.93613
    A4        1.88058   0.00063   0.01842  -0.00401   0.01429   1.89487
    A5        1.89593   0.00097   0.00669   0.00161   0.00826   1.90419
    A6        1.89035   0.00066  -0.00194   0.00352   0.00148   1.89184
    A7        1.97175  -0.00111   0.03716  -0.04368  -0.00709   1.96466
    A8        1.87734   0.00188  -0.00397   0.00618   0.00113   1.87847
    A9        1.91890   0.00080   0.00427   0.01687   0.02147   1.94037
   A10        1.96279  -0.00043   0.01880  -0.03196  -0.01406   1.94872
   A11        1.82810   0.00049  -0.03986   0.05488   0.01509   1.84319
   A12        1.90417  -0.00172  -0.01675   0.00027  -0.01638   1.88780
   A13        1.86186   0.00276   0.00595   0.02102   0.02697   1.88884
   A14        1.71939  -0.00202  -0.03312   0.01388  -0.01924   1.70015
   A15        1.85086   0.00167  -0.00628   0.01747   0.01120   1.86206
   A16        1.91392  -0.00081  -0.00445  -0.00250  -0.00696   1.90696
   A17        1.92238  -0.00047  -0.00103  -0.00181  -0.00286   1.91952
   A18        1.92819  -0.00005   0.00822  -0.00596   0.00224   1.93042
   A19        1.92145  -0.00033   0.00449  -0.00529  -0.00082   1.92063
   A20        1.92576   0.00004  -0.00106  -0.00132  -0.00244   1.92332
   A21        1.76928  -0.00734  -0.02058  -0.02908  -0.04966   1.71961
   A22        1.78711   0.01287   0.04940   0.04033   0.08972   1.87683
    D1        0.96889   0.00039  -0.02290   0.04789   0.02494   0.99383
    D2       -3.13772   0.00046   0.02109  -0.01814   0.00312  -3.13460
    D3       -1.06628  -0.00006   0.00095  -0.00476  -0.00386  -1.07014
    D4       -1.09673  -0.00043  -0.02886   0.03548   0.00654  -1.09019
    D5        1.07984  -0.00036   0.01513  -0.03055  -0.01527   1.06457
    D6       -3.13190  -0.00088  -0.00501  -0.01716  -0.02226   3.12903
    D7        3.06955   0.00018  -0.02408   0.04451   0.02034   3.08989
    D8       -1.03705   0.00025   0.01991  -0.02152  -0.00148  -1.03853
    D9        1.03439  -0.00027  -0.00023  -0.00814  -0.00847   1.02592
   D10        1.02386   0.00030   0.01726  -0.04221  -0.02394   0.99992
   D11       -1.10542  -0.00101  -0.01582   0.00672  -0.00978  -1.11520
   D12        3.11209   0.00098   0.01892  -0.01050   0.00809   3.12018
   D13        3.09669   0.00049  -0.01371  -0.02610  -0.03975   3.05694
   D14       -1.00453   0.00014   0.04171  -0.09895  -0.05726  -1.06179
   D15        1.01581  -0.00059  -0.00687  -0.04997  -0.05689   0.95891
   D16       -3.13519  -0.00045  -0.01014  -0.02684  -0.03699   3.11101
   D17        1.06591  -0.00092  -0.01392  -0.02841  -0.04231   1.02360
   D18       -1.05662  -0.00013  -0.00900  -0.02398  -0.03299  -1.08961
   D19       -3.10899   0.00029   0.00795  -0.01063  -0.00268  -3.11167
   D20       -1.03630   0.00028   0.00342  -0.00660  -0.00321  -1.03952
   D21        1.09501   0.00007   0.01039  -0.01577  -0.00534   1.08966
   D22        3.13755   0.00007   0.00087   0.00557   0.00644  -3.13919
         Item               Value     Threshold  Converged?
 Maximum Force            0.036795     0.000450     NO 
 RMS     Force            0.005589     0.000300     NO 
 Maximum Displacement     0.293399     0.001800     NO 
 RMS     Displacement     0.088789     0.001200     NO 
 Predicted change in Energy=-4.638955D-03
 GradGradGradGradGradGradGradGradGradGradGradGradGradGradGradGradGradGrad

                          Input orientation:                          
 ---------------------------------------------------------------------
 Center     Atomic      Atomic             Coordinates (Angstroms)
 Number     Number       Type             X           Y           Z
 ---------------------------------------------------------------------
      1          6           0        1.027443   -0.008334    0.113184
      2          6           0        2.540472    0.085123   -0.057999
      3          8           0        3.109594   -1.123521   -0.499777
      4         16           0        2.887002    1.472746   -1.232718
      5          6           0        4.709015    1.433214   -1.113121
      6         16           0        5.339229    2.717804   -2.256821
      7         16           0        7.409516    2.409004   -1.964759
      8          8           0        8.122886    3.368229   -2.812408
      9          1           0        0.799017   -0.819047    0.810535
     10          1           0        0.538809   -0.223008   -0.843394
     11          1           0        0.620946    0.925637    0.505672
     12          1           0        3.032558    0.312081    0.892680
     13          1           0        2.686267   -1.370278   -1.331370
     14          1           0        5.067335    0.447468   -1.408647
     15          1           0        5.020772    1.656812   -0.090770
 ---------------------------------------------------------------------
                    Distance matrix (angstroms):
                    1          2          3          4          5
     1  C    0.000000
     2  C    1.525548   0.000000
     3  O    2.440229   1.407085   0.000000
     4  S    2.731851   1.850823   2.706908   0.000000
     5  C    4.139548   2.762826   3.077537   1.826362   0.000000
     6  S    5.624967   4.427061   4.776427   2.934685   1.831773
     7  S    7.133878   5.722215   5.754497   4.676066   2.995022
     8  O    8.384842   7.037677   7.117386   5.788156   4.276257
     9  H    1.093496   2.145819   2.673647   3.713069   4.905223
    10  H    1.095394   2.172198   2.745530   2.922527   4.495158
    11  H    1.091599   2.169970   3.376884   2.907978   4.426108
    12  H    2.175033   1.094280   2.001455   2.426035   2.844412
    13  H    2.587147   1.939310   0.965216   2.851809   3.463916
    14  H    4.341020   2.888006   2.669607   2.415780   1.089689
    15  H    4.331395   2.936523   3.398550   2.427117   1.091966
                    6          7          8          9         10
     6  S    0.000000
     7  S    2.113467   0.000000
     8  O    2.912125   1.465441   0.000000
     9  H    6.521619   7.862650   9.181397   0.000000
    10  H    5.804325   7.442551   8.619294   1.777203   0.000000
    11  H    5.753731   7.374827   8.558914   1.780049   1.773728
    12  H    4.585585   5.632033   6.998510   2.504976   3.085297
    13  H    4.960553   6.082206   7.362319   2.907461   2.483129
    14  H    2.438801   3.105269   4.453962   4.974673   4.612656
    15  H    2.432878   3.127895   4.467591   4.976489   4.918146
                   11         12         13         14         15
    11  H    0.000000
    12  H    2.518352   0.000000
    13  H    3.593258   2.810098   0.000000
    14  H    4.864528   3.074858   2.996608   0.000000
    15  H    4.499869   2.593929   4.018990   1.789268   0.000000
 Stoichiometry    C3H7O2S3(2)
 Framework group  C1[X(C3H7O2S3)]
 Deg. of freedom    39
 Full point group                 C1      NOp   1
 Largest Abelian subgroup         C1      NOp   1
 Largest concise Abelian subgroup C1      NOp   1
                         Standard orientation:                         
 ---------------------------------------------------------------------
 Center     Atomic      Atomic             Coordinates (Angstroms)
 Number     Number       Type             X           Y           Z
 ---------------------------------------------------------------------
      1          6           0        4.112751   -0.302136    0.257686
      2          6           0        2.756497    0.391607    0.338883
      3          8           0        2.684837    1.534616   -0.478603
      4         16           0        1.462587   -0.852637   -0.111891
      5          6           0        0.003329    0.194809    0.218292
      6         16           0       -1.470107   -0.805940   -0.209354
      7         16           0       -2.958728    0.637553    0.199402
      8          8           0       -4.258879    0.022984   -0.082430
      9          1           0        4.893884    0.413895    0.527619
     10          1           0        4.306445   -0.663142   -0.758211
     11          1           0        4.156973   -1.153118    0.939933
     12          1           0        2.552486    0.743067    1.354906
     13          1           0        2.879109    1.269322   -1.386083
     14          1           0        0.053903    1.088094   -0.403727
     15          1           0       -0.025952    0.471771    1.274144
 ---------------------------------------------------------------------
 Rotational constants (GHZ):           4.1936444           0.4187061           0.3906420
 Standard basis: 6-31G(2df,p) (6D, 7F)
 There are   295 symmetry adapted cartesian basis functions of A   symmetry.
 There are   271 symmetry adapted basis functions of A   symmetry.
   271 basis functions,   473 primitive gaussians,   295 cartesian basis functions
    45 alpha electrons       44 beta electrons
       nuclear repulsion energy       608.4563692165 Hartrees.
 NAtoms=   15 NActive=   15 NUniq=   15 SFac= 1.00D+00 NAtFMM=   60 NAOKFM=F Big=F
 Integral buffers will be    131072 words long.
 Raffenetti 2 integral format.
 Two-electron integral symmetry is turned on.
 One-electron integrals computed using PRISM.
 PrsmSu:  requested number of processors reduced to:  13 ShMem   1 Linda.
 NBasis=   271 RedAO= T EigKep=  1.17D-03  NBF=   271
 NBsUse=   271 1.00D-06 EigRej= -1.00D+00 NBFU=   271
 Initial guess from the checkpoint file:  "CCqOrSCSS[O].chk"
 B after Tr=     0.000000   -0.000000   -0.000000
         Rot=    0.999979    0.006406    0.000101   -0.001363 Ang=   0.75 deg.
 Initial guess <Sx>= 0.0000 <Sy>= 0.0000 <Sz>= 0.5000 <S**2>= 0.7548 S= 0.5024
 ExpMin= 1.17D-01 ExpMax= 2.19D+04 ExpMxC= 3.30D+03 IAcc=2 IRadAn=         4 AccDes= 0.00D+00
 Harris functional with IExCor=  402 and IRadAn=       4 diagonalized for initial guess.
 HarFok:  IExCor=  402 AccDes= 0.00D+00 IRadAn=         4 IDoV= 1 UseB2=F ITyADJ=14
 ICtDFT=  3500011 ScaDFX=  1.000000  1.000000  1.000000  1.000000
 FoFCou: FMM=F IPFlag=           0 FMFlag=      100000 FMFlg1=           0
         NFxFlg=           0 DoJE=T BraDBF=F KetDBF=T FulRan=T
         wScrn=  0.000000 ICntrl=       500 IOpCl=  0 I1Cent=   200000004 NGrid=           0
         NMat0=    1 NMatS0=      1 NMatT0=    0 NMatD0=    1 NMtDS0=    0 NMtDT0=    0
 Petite list used in FoFCou.
 Requested convergence on RMS density matrix=1.00D-08 within 128 cycles.
 Requested convergence on MAX density matrix=1.00D-06.
 Requested convergence on             energy=1.00D-06.
 No special actions if energy rises.
 Integral accuracy reduced to 1.0D-05 until final iterations.
 Initial convergence to 1.0D-05 achieved.  Increase integral accuracy.
 SCF Done:  E(UB3LYP) =  -1463.53795590     A.U. after   16 cycles
            NFock= 16  Conv=0.68D-08     -V/T= 2.0036
 <Sx>= 0.0000 <Sy>= 0.0000 <Sz>= 0.5000 <S**2>= 0.7547 S= 0.5023
 <L.S>=  0.00000000000    
 Annihilation of the first spin contaminant:
 S**2 before annihilation     0.7547,   after     0.7500
 PrsmSu:  requested number of processors reduced to:  13 ShMem   1 Linda.
 Calling FoFJK, ICntrl=      2127 FMM=F ISym2X=0 I1Cent= 0 IOpClX= 1 NMat=1 NMatS=1 NMatT=0.
 ***** Axes restored to original set *****
 -------------------------------------------------------------------
 Center     Atomic                   Forces (Hartrees/Bohr)
 Number     Number              X              Y              Z
 -------------------------------------------------------------------
      1        6           0.000827680    0.000326968    0.001747038
      2        6          -0.002304802   -0.003870160   -0.004900916
      3        8           0.002050146   -0.000461561    0.002843398
      4       16           0.001000235    0.001920373    0.001484188
      5        6           0.001585250    0.000673741   -0.000765261
      6       16          -0.006925981    0.001594435   -0.001574335
      7       16          -0.007889764   -0.019547546    0.017077327
      8        8           0.013449368    0.017670211   -0.015541302
      9        1          -0.000403490   -0.000040762   -0.000205285
     10        1           0.000178140    0.000124160    0.000024057
     11        1          -0.001053932    0.000450471    0.000526073
     12        1          -0.000188340    0.000216965   -0.000851641
     13        1          -0.000267719    0.001061023    0.000161279
     14        1           0.000032925   -0.000738878   -0.000189396
     15        1          -0.000089714    0.000620559    0.000164777
 -------------------------------------------------------------------
 Cartesian Forces:  Max     0.019547546 RMS     0.005962124

 GradGradGradGradGradGradGradGradGradGradGradGradGradGradGradGradGradGrad
 Berny optimization.
 Using GEDIIS/GDIIS optimizer.
 FormGI is forming the generalized inverse of G from B-inverse, IUseBI=4.
 Internal  Forces:  Max     0.027102974 RMS     0.003797613
 Search for a local minimum.
 Step number   3 out of a maximum of   68
 All quantities printed in internal units (Hartrees-Bohrs-Radians)
 Mixed Optimization -- RFO/linear search
 Update second derivatives using D2CorX and points    1    2    3
[...]
 ! D16   D(2,4,5,6)             78.8802         -DE/DX =    0.0                 !
 ! D17   D(2,4,5,14)           -42.3058         -DE/DX =    0.0                 !
 ! D18   D(2,4,5,15)          -161.3141         -DE/DX =    0.0                 !
 ! D19   D(4,5,6,7)             99.4605         -DE/DX =    0.0                 !
 ! D20   D(14,5,6,7)          -137.0798         -DE/DX =    0.0                 !
 ! D21   D(15,5,6,7)           -21.2867         -DE/DX =    0.0                 !
 ! D22   D(5,6,7,8)             26.7441         -DE/DX =    0.0                 !
 --------------------------------------------------------------------------------
 GradGradGradGradGradGradGradGradGradGradGradGradGradGradGradGradGradGrad


 ----------------------------------------------------------------------

 Electric dipole moment (input orientation):
 (Debye = 10**-18 statcoulomb cm , SI units = C m)
                  (au)            (Debye)         (10**-30 SI)
   Tot        0.995678D+00      0.253076D+01      0.844171D+01
   x         -0.775652D+00     -0.197151D+01     -0.657625D+01
   y         -0.613939D+00     -0.156048D+01     -0.520519D+01
   z          0.113220D+00      0.287775D+00      0.959915D+00

 Dipole polarizability, Alpha (input orientation).
 (esu units = cm**3 , SI units = C**2 m**2 J**-1)
 Alpha(0;0):
               (au)            (10**-24 esu)      (10**-40 SI)
   iso        0.100024D+03      0.148221D+02      0.164918D+02
   aniso      0.611943D+02      0.906806D+01      0.100896D+02
   xx         0.108892D+03      0.161361D+02      0.179538D+02
   yx         0.224084D+02      0.332058D+01      0.369465D+01
   yy         0.100360D+03      0.148718D+02      0.165471D+02
   zx        -0.241847D+02     -0.358380D+01     -0.398751D+01
   zy        -0.891607D+01     -0.132123D+01     -0.147006D+01
   zz         0.908218D+02      0.134584D+02      0.149745D+02

 ----------------------------------------------------------------------

 Dipole orientation:
     6          0.82760483         -0.87165317         -1.74454446
     6          2.01650635         -2.30343617         -3.94506810
     8          1.75905448         -4.93870035         -3.74337465
    16          0.67021511         -1.04982063         -6.92510932
     6          2.29257499         -3.07215390         -9.16187102
    16          1.04286003         -6.29249795         -9.55704063
    16         -1.07979715         -5.73616397        -12.92703377
     8          0.05032193         -3.61286378        -14.41669537
     1          1.61841273         -1.58158756          0.02770121
     1         -1.22283301         -1.14844616         -1.70642308
     1          1.20629515          1.15511788         -1.88072021
     1          4.05523066         -1.96709587         -4.01075740
     1         -0.01803340         -5.34568526         -3.82482173
     1          4.27126481         -3.29125919         -8.62817867
     1          2.19684356         -2.17918128        -11.02193376

 Electric dipole moment (dipole orientation):
 (Debye = 10**-18 statcoulomb cm , SI units = C m)
                  (au)            (Debye)         (10**-30 SI)
   Tot        0.995678D+00      0.253076D+01      0.844171D+01
   x          0.000000D+00      0.000000D+00      0.000000D+00
   y          0.000000D+00      0.000000D+00      0.000000D+00
   z          0.995678D+00      0.253076D+01      0.844171D+01

 Dipole polarizability, Alpha (dipole orientation).
 (esu units = cm**3 , SI units = C**2 m**2 J**-1)
 Alpha(0;0):
               (au)            (10**-24 esu)      (10**-40 SI)
   iso        0.100024D+03      0.148221D+02      0.164918D+02
   aniso      0.611943D+02      0.906806D+01      0.100896D+02
   xx         0.763851D+02      0.113191D+02      0.125942D+02
   yx         0.376465D+01      0.557864D+00      0.620708D+00
   yy         0.912114D+02      0.135161D+02      0.150387D+02
   zx         0.155167D+02      0.229934D+01      0.255837D+01
   zy         0.121853D+02      0.180568D+01      0.200909D+01
   zz         0.132477D+03      0.196310D+02      0.218425D+02

 ----------------------------------------------------------------------
 1\1\GINC-LEWIS4-R630-HPC4-NODE541\Freq\UB3LYP\6-31G(2df,p)\C3H7O2S3(2)
 \CZ9N3\29-May-2023\0\\#N Geom=AllCheck Guess=TCheck SCRF=Check GenChk 
 UB3LYP/6-31G(2df,p) Freq\\Title Card Required\\0,2\C,1.1174182592,0.07
 6549816,-0.0482181879\C,2.6376592134,0.0242019114,-0.1576998924\O,3.09
 39725021,-0.9013075805,-1.1115623552\S,3.2558086503,1.7407560235,-0.48
 29665776\C,5.030160064,1.3954798113,-0.6086327308\S,5.6270979349,0.687
 2761334,-2.1983669672\S,6.3781768579,2.4652419543,-3.0946643268\O,6.77
 9821796,3.4333999571,-2.0256059609\H,0.7393078098,-0.9296416589,0.1527
 789031\H,0.6710813193,0.4356234978,-0.9815097733\H,0.8021727373,0.7409
 348407,0.7610190313\H,3.0789490296,-0.3024493402,0.788533919\H,2.79247
 0056,-0.6109829149,-1.981843983\H,5.3366759515,0.6933694969,0.16768147
 08\H,5.5700878185,2.3354780521,-0.468652569\\Version=ES64L-G16RevA.03\
 State=2-A\HF=-1463.5479885\S2=0.754984\S2-1=0.\S2A=0.75002\RMSD=1.609e
 -09\RMSF=2.951e-06\ZeroPoint=0.1048607\Thermal=0.115729\Dipole=-0.7756
 516,-0.613939,0.1132196\DipoleDeriv=-0.093481,0.0349413,0.0552492,-0.1
 578969,-0.0110447,0.0262092,0.0728425,0.0253016,0.0565383,0.5404086,0.
 1696874,-0.1827058,0.3473279,0.9247394,0.0586348,-0.1884636,0.1494017,
 0.4792569,-0.6085606,-0.1129239,0.2242783,-0.194646,-0.8261819,-0.1806
 523,0.1899317,-0.2897261,-0.4722612,-0.4057735,-0.164458,0.1901914,-0.
 0776465,-0.2327551,-0.111814,0.1292133,0.0457944,-0.2694198,0.5591754,
 -0.1046452,-0.3496244,-0.2914631,-0.1580198,0.1822831,-0.482898,-0.005
 9793,0.4018621,-0.2237274,-0.0505059,0.0984819,-0.1189259,-0.3566694,0
 .1464888,0.3834252,0.2404449,-0.3955252,0.373157,0.3460967,-0.1285106,
 0.5799498,1.0146101,-0.3969251,0.02935,0.0328269,0.3386191,-0.3627099,
 -0.1813758,0.0825981,-0.3387635,-0.7047301,0.2001623,-0.2028814,-0.360
 7498,-0.2305597,-0.0389959,-0.066836,0.0292885,-0.0829738,-0.0742307,0
 .0417702,0.0022811,0.0207891,0.0717294,0.026393,0.0077165,-0.0137669,0
 .0354775,0.0486455,0.0438226,-0.06686,0.0417964,-0.0748806,0.0369626,0
 .0036704,0.0141184,0.0428886,0.0110337,-0.0810336,0.0328327,-0.0694825
 ,-0.0144071,-0.0539396,0.0029918,-0.0529675,-0.034876,-0.074791,0.0658
 831,-0.0221079,0.0391083,-0.0614975,0.3289734,0.1348816,-0.067917,0.12
 67847,0.2897103,0.0781864,-0.0153639,0.0726564,0.1902757,-0.0647928,0.
 0087525,0.0673832,0.1020301,0.0698673,0.0061415,0.074413,0.0535653,-0.
 057957,-0.0130892,-0.0279934,0.0339033,0.0627332,0.0798163,-0.079157,0
 .0642853,0.0042526,0.0382265\Polar=108.8918012,22.4084089,100.3597464,
 -24.1846784,-8.9160745,90.821789\Quadrupole=1.3705197,-5.2591396,3.888
 6199,0.2522061,-0.6086919,-1.106027\PG=C01 [X(C3H7O2S3)]\NImag=0\\0.46
 150953,-0.00024130,0.57926190,0.00774297,0.00521059,0.57178329,-0.1894
 4798,-0.00676469,-0.00860187,0.46538467,0.00536868,-0.07065417,-0.0001
 6236,-0.06459602,0.34070313,-0.00184000,0.00328363,-0.08017068,0.06487
 112,-0.02555982,0.55967753,-0.01323347,0.03198895,0.03434439,-0.088661
 89,0.03828711,0.01129669,0.15876046,0.00738544,-0.00716336,-0.01183319
 ,0.05527619,-0.12672914,-0.04902312,-0.12822780,0.25389702,0.00779442,
 -0.01345962,-0.00870040,0.04180399,-0.06686544,-0.16412368,0.08358213,
 -0.02979225,0.60034153,-0.01387608,-0.02659801,0.00811562,-0.04335142,
 -0.01251811,0.00805344,0.00447208,0.00079640,-0.00261064,0.22777761,-0
 .00774528,0.00008583,0.00596816,0.01202142,-0.08340458,0.02501045,-0.0
 0323259,-0.04779839,-0.01484704,-0.01503924,0.19964993,0.00119560,0.00
 356717,0.00120612,-0.00006972,0.02257416,-0.04143321,-0.00189182,-0.02
 004883,0.00623079,-0.02096525,-0.02374346,0.06058229,0.00014985,-0.002
 55916,-0.00040765,-0.01585910,-0.00659790,-0.00170973,-0.00048509,0.00
 556308,0.00206136,-0.12030600,0.01377392,0.00846519,0.32708655,-0.0010
 0237,-0.00835134,0.00147396,-0.02663907,0.00789889,0.00003607,0.000745
 23,0.00127852,-0.00051918,0.03602606,-0.05640406,0.00410703,0.06138750
 ,0.51469708,0.00024320,0.00041440,-0.00063195,0.00433524,0.00175437,0.
 00041110,0.00112802,-0.00100652,-0.00190654,-0.01493256,0.00849037,-0.
 02956653,0.06189566,-0.09871846,0.34622669,-0.00001599,-0.00024701,-0.
 00003173,0.00071926,0.00422894,0.00174048,-0.00009675,-0.00277457,-0.0
 0066025,-0.01731796,0.00970716,0.01893310,-0.02300571,0.00281596,0.018
 78977,0.04812286,0.00002977,-0.00050143,-0.00044338,-0.00012131,0.0000
 2286,0.00123749,-0.00224002,-0.00059152,0.00132223,0.00990432,-0.00155
 791,-0.00530991,0.00274891,-0.05692109,-0.02321559,0.01656001,0.151881
 42,0.00018937,-0.00003433,-0.00037461,-0.00099107,-0.00311682,0.000711
 83,0.00069438,0.00269187,-0.00122394,0.02278544,-0.00687610,-0.0041561
 1,0.00239203,-0.02697267,-0.07670919,-0.04698772,0.02282717,0.15747249
 ,0.00008291,-0.00010350,-0.00008838,-0.00073657,-0.00007419,0.00053748
 ,0.00053326,0.00009901,-0.00025256,0.00070148,-0.00066078,-0.00023077,
 -0.00643286,-0.00265706,0.01032869,-0.00767414,-0.01509912,0.01596455,
 0.04964526,0.00014569,0.00002420,-0.00027464,-0.00113123,0.00023203,0.
 00173565,0.00227234,0.00073633,-0.00172723,0.00277958,-0.00123045,-0.0
 0209057,-0.00816156,0.00433958,0.01277594,-0.02194250,-0.06761693,0.04
 227749,0.10787606,0.27268730,-0.00011993,0.00001164,0.00020946,0.00015
 539,-0.00032932,-0.00071962,-0.00061348,-0.00024477,0.00097145,0.00043
 315,-0.00065340,-0.00006388,0.00535979,0.01715080,-0.01559685,0.010089
 83,0.01902542,-0.04796669,0.06038563,0.16028010,0.34133353,-0.00002257
 ,-0.00000952,0.00010055,0.00025779,-0.00017829,-0.00070559,-0.00098499
 ,-0.00029250,0.00062817,-0.00008109,0.00026714,0.00014711,0.00149063,-
 0.00108449,-0.00298544,-0.00559637,-0.01359532,-0.00006070,-0.03617055
 ,-0.08123935,-0.08218311,0.04192501,-0.00008180,0.00001335,0.00024899,
 0.00025889,-0.00080426,-0.00151972,-0.00209342,-0.00025604,0.00166399,
 -0.00097329,0.00017500,0.00078684,0.00257890,0.00179982,-0.00570683,-0
 .01009569,-0.02405966,-0.01123375,-0.08621093,-0.20637384,-0.19345392,
 0.09589169,0.23069425,-0.00000151,0.00030155,0.00007463,0.00066024,-0.
 00062097,-0.00059798,-0.00093861,0.00005171,0.00069454,-0.00187580,0.0
 0168904,0.00099338,0.00372540,-0.00137546,-0.00181295,0.00053677,-0.00
 489036,0.01136137,-0.08585793,-0.20518706,-0.27194405,0.08633908,0.207
 42809,0.25666819,-0.07520190,-0.08152455,0.01636323,-0.01458868,-0.032
 64434,0.00658595,0.00390019,0.00095986,-0.00161976,-0.00494072,0.00229
 197,0.00029920,-0.00042330,-0.00269599,0.00016069,-0.00011180,-0.00011
 952,0.00008249,-0.00000640,0.00007513,-0.00001977,-0.00002862,-0.00004
 157,0.00008297,0.08361553,-0.08346574,-0.27485826,0.04637620,0.0006328
 2,-0.00048139,-0.00090773,0.00035889,0.00168195,0.00048126,0.00015293,
 0.00137847,-0.00054327,0.00066573,-0.00005081,-0.00021459,-0.00011866,
 0.00001420,0.00020836,0.00001583,0.00009501,-0.00000314,-0.00002198,-0
 .00004232,-0.00002631,0.09156938,0.29624547,0.01587367,0.04598904,-0.0
 5539096,0.00090957,0.00157348,-0.00141684,-0.00076224,-0.00015063,-0.0
 0010635,0.00017206,-0.00048135,-0.00025765,0.00008528,0.00026645,0.000
 89928,-0.00016541,0.00003517,0.00006757,0.00000853,0.00005676,0.000007
 54,-0.00000571,-0.00002956,-0.00003973,-0.01755692,-0.05052493,0.05557
 534,-0.08762948,0.03424457,-0.08713812,-0.01600592,0.01091812,-0.03278
 789,0.00312580,-0.00170189,0.00053226,0.00106741,0.00096575,-0.0005861
 2,-0.00021208,0.00028177,0.00052052,0.00000260,-0.00003808,-0.00011033
 ,-0.00002492,-0.00005265,0.00004465,0.00001729,0.00002989,0.00000875,0
 .00428338,-0.00298957,0.01016864,0.09796712,0.03448420,-0.07557054,0.0
 7485031,-0.00007290,-0.00136509,-0.00019117,-0.00043725,-0.00029569,-0
 .00019179,-0.00053066,0.00073295,-0.00092501,-0.00015853,-0.00003598,0
 .00009623,0.00002742,0.00001764,0.00001043,0.00000673,0.00001454,-0.00
 000075,0.00000126,-0.00001616,-0.00001815,0.01254465,-0.00847313,0.025
 58219,-0.03783745,0.07721876,-0.08897458,0.07375905,-0.23988936,0.0016
 4666,-0.00166956,0.00082430,-0.00034573,0.00056665,0.00251099,-0.00020
 578,-0.00041401,0.00003199,0.00000890,-0.00021565,0.00046276,-0.000023
 11,0.00000586,-0.00002959,-0.00000081,0.00002297,0.00000157,-0.0000064
 2,-0.00002222,-0.00000519,-0.00163600,0.00067912,-0.00460254,0.0986154
 2,-0.08194473,0.25854849,-0.06915226,0.04403409,0.05413844,-0.00271732
 ,0.02086784,0.02521596,-0.00909234,0.00202940,0.00278310,-0.00011452,-
 0.00169615,0.00048757,-0.00003232,0.00029585,-0.00024969,0.00034036,0.
 00014062,-0.00012533,0.00003850,0.00004461,-0.00005716,-0.00003534,-0.
 00008648,-0.00005003,0.00294978,-0.00610259,-0.00925043,0.00368648,-0.
 00895527,-0.00940799,0.07334975,0.04618685,-0.14507471,-0.12091449,-0.
 00095941,-0.00184559,0.00093070,0.00076227,0.00154522,-0.00033848,-0.0
 0084777,-0.00031033,-0.00010278,0.00032292,0.00012405,0.00023528,-0.00
 013193,0.00008378,0.00008087,-0.00000070,-0.00004709,0.00000479,0.0000
 3000,0.00004499,0.00001289,0.00906632,-0.01594462,-0.02212433,-0.00415
 697,0.00695160,0.00897985,-0.05068161,0.15476155,0.05634483,-0.1210255
 9,-0.19414942,-0.00085802,-0.00042134,-0.00265434,0.00085950,0.0001747
 4,0.00150329,0.00028136,0.00006287,-0.00008448,0.00030916,0.00018097,0
 .00022836,-0.00019617,0.00005597,0.00014055,-0.00000918,-0.00001599,0.
 00000026,0.00001009,0.00003194,0.00002012,-0.00281214,0.00469038,0.005
 25993,0.00827944,-0.01706488,-0.01899470,-0.06185167,0.13318190,0.2078
 4611,-0.01495621,0.01144802,-0.02754835,-0.09412103,0.03480635,-0.0951
 9128,0.00647929,-0.00133631,0.01391324,0.00121624,-0.00990477,0.008198
 95,0.00238787,-0.00044163,0.00088621,-0.00015364,0.00011931,-0.0000205
 1,0.00001871,0.00000940,-0.00008622,-0.00001378,0.00002301,0.00001690,
 0.00147458,-0.00048625,0.00009559,-0.00632286,0.00003302,0.00081761,0.
 00094438,0.00019370,0.00048341,0.10241672,-0.00073944,0.00155900,0.000
 09815,0.03883134,-0.06583037,0.08116727,-0.00596297,0.00393115,-0.0291
 4862,0.00222509,-0.02104521,0.01918850,0.00272113,0.00093606,-0.001483
 06,-0.00029726,0.00012798,0.00035838,0.00007652,0.00000837,-0.00008960
 ,-0.00001864,0.00008579,0.00003108,0.00025470,0.00055877,-0.00050746,-
 0.00005867,0.00081517,-0.00032103,0.00000307,-0.00005138,0.00016124,-0
 .03708313,0.08020749,0.00111212,0.00004434,0.00363768,-0.09312081,0.06
 608811,-0.23700532,-0.00551223,-0.00088477,-0.03391855,-0.00095143,0.0
 0463359,0.00014197,-0.00004011,-0.00066573,0.00010260,-0.00008126,-0.0
 0010745,-0.00021295,-0.00001355,-0.00007974,0.00009448,0.00004330,0.00
 007487,0.00004330,-0.00032739,-0.00024229,0.00016671,0.00129912,-0.000
 12105,0.00128555,-0.00081739,0.00005551,0.00031609,0.09632551,-0.06461
 028,0.26729027,0.00176386,-0.00145355,0.00234479,0.00305855,-0.0041863
 2,0.01490262,-0.06632989,0.06299872,-0.14725754,0.00002187,0.00191084,
 -0.00009846,-0.00007543,-0.00041013,-0.00152315,-0.00049840,0.00071915
 ,-0.00096763,-0.00031063,-0.00144985,0.00079250,0.00040027,0.00102537,
 0.00037447,-0.00030895,-0.00006990,0.00019111,-0.00039072,0.00084635,-
 0.00067181,-0.00027501,0.00013219,-0.00077182,0.00060386,0.00111226,0.
 00112406,0.06253660,-0.00036914,-0.00005407,-0.00017044,-0.00845056,0.
 00387468,-0.03473054,0.06830450,-0.08086363,0.15248878,0.00058182,0.00
 235764,0.00030347,-0.00142655,-0.00013698,0.00041506,0.00004849,0.0002
 0195,-0.00057114,-0.00019873,-0.00060057,0.00021416,0.00014116,0.00024
 870,0.00004877,-0.00021190,-0.00016885,0.00039567,0.00051262,0.0001373
 6,0.00047916,0.00009836,-0.00020933,0.00000176,0.00186961,-0.00201466,
 -0.00435492,-0.06119740,0.07738756,0.00032833,0.00159625,0.00209539,-0
 .01170500,0.00778587,-0.03461102,-0.12222276,0.10922868,-0.40253677,-0
 .00018036,0.00060004,0.00230500,-0.00095036,0.00028734,0.00013566,-0.0
 0018781,-0.00039365,-0.00022593,0.00007543,-0.00006049,-0.00002906,0.0
 0005834,0.00007963,-0.00000939,0.00024785,-0.00000659,-0.00014706,0.00
 105681,-0.00013427,-0.00007640,-0.00083649,0.00003425,0.00060478,0.002
 91866,-0.00439393,-0.00185750,0.13126659,-0.11438739,0.43468736,0.0002
 1710,0.00020232,0.00027812,0.00201879,0.00278813,-0.00026372,0.0006375
 0,-0.00113863,-0.00040667,-0.02105906,0.01639836,-0.01394728,-0.057584
 97,0.05185448,-0.05945143,0.00110902,-0.00450802,0.00547676,-0.0000931
 8,-0.00037738,0.00294914,0.00014822,0.00047658,-0.00060434,0.00011796,
 -0.00011783,0.00011076,0.00031397,0.00003471,0.00019240,0.00000964,0.0
 0003835,-0.00008485,-0.00018676,-0.00136888,0.00092891,-0.00011366,0.0
 0030352,0.00004361,0.06953121,-0.00016143,0.00010204,-0.00012890,-0.00
 122055,0.00028221,-0.00202818,-0.00000068,0.00006520,0.00048056,0.0006
 3267,-0.00065040,0.00166060,0.04639395,-0.15995139,0.13270612,0.000941
 66,0.00606248,-0.01320859,-0.00052614,-0.00195371,-0.00313107,-0.00058
 794,0.00013407,0.00189230,0.00005583,-0.00000028,0.00001203,-0.0000417
 1,-0.00012858,0.00009076,0.00002915,-0.00000843,0.00000277,0.00079158,
 0.00070440,0.00031591,-0.00000634,-0.00006837,-0.00010250,-0.05479195,
 0.17032922,0.00012185,0.00009529,0.00016162,0.00000287,-0.00085832,0.0
 0083761,0.00040238,-0.00006158,0.00003665,0.00154245,-0.00058134,0.004
 20092,-0.05799359,0.13583299,-0.18043868,0.00197121,0.00929312,-0.0219
 0930,-0.00006261,-0.00210927,-0.00323580,-0.00072776,-0.00035929,0.001
 40995,0.00004300,0.00000813,-0.00000067,0.00005206,0.00006618,-0.00008
 679,0.00001402,-0.00002634,-0.00002273,-0.00072228,-0.00019308,-0.0003
 0809,0.00019308,-0.00007000,-0.00022032,0.05348818,-0.13761151,0.19519
 472,-0.00018730,-0.00241665,0.00038800,-0.00594914,0.00353001,-0.00070
 553,0.00097584,0.00036360,-0.00029127,-0.01420983,-0.01905776,0.000062
 70,-0.10669804,-0.11847611,-0.01914575,0.00417666,0.00549930,0.0016782
 6,0.00042915,0.00115172,0.00286958,-0.00130591,-0.00070113,-0.00241636
 ,-0.00073103,-0.00002304,0.00012552,0.00012194,0.00001370,-0.00000875,
 0.00010023,0.00004578,0.00001606,0.00021262,0.00030487,0.00003114,-0.0
 0008233,-0.00000581,0.00008715,0.00493422,0.00849190,0.00167514,0.1182
 1291,0.00020586,0.00118157,-0.00029897,0.00293507,-0.00189919,0.000559
 00,-0.00052455,0.00056238,0.00045284,0.00340822,0.00802150,0.00057604,
 -0.11725235,-0.24922236,-0.02654271,0.00127797,-0.00716378,-0.00644117
 ,-0.00254302,-0.00031476,0.00121907,0.00069678,-0.00164368,0.00066287,
 0.00042003,0.00004579,-0.00009250,-0.00007572,-0.00000287,0.00000378,-
 0.00002088,-0.00001972,-0.00001674,-0.00004188,0.00000744,-0.00014611,
 0.00002863,-0.00009143,-0.00013324,-0.00979376,-0.01491845,-0.00342499
 ,0.12127961,0.26545756,-0.00001034,0.00024660,0.00013920,0.00096141,-0
 .00017205,0.00027033,-0.00002061,0.00033199,0.00022701,0.00033830,0.00
 114218,-0.00013059,-0.02320132,-0.03086846,-0.04180374,-0.00372770,-0.
 01944208,-0.01694550,-0.00078452,-0.00560393,-0.00306232,-0.00065191,0
 .00201093,0.00314382,0.00010660,0.00002540,-0.00001455,0.00004479,-0.0
 0001355,0.00001893,0.00000709,-0.00000961,-0.00001382,-0.00008744,-0.0
 0025756,0.00022377,0.00010117,-0.00006240,-0.00011472,0.01129040,0.019
 04970,0.00438090,0.01563410,0.03362284,0.05368130\\-0.00000113,-0.0000
 0093,-0.00000051,0.00000126,0.00000089,-0.00000547,-0.00000478,-0.0000
 0336,0.00000258,0.00000080,0.00000051,-0.00000236,0.00000147,0.0000059
 9,0.00000969,0.00000210,0.00000042,-0.00000713,-0.00000079,0.00000066,
 0.00000560,-0.00000124,-0.00000429,-0.00000324,0.00000134,-0.00000011,
 -0.00000014,0.00000101,-0.00000099,-0.00000018,0.00000016,0.00000028,-
 0.00000029,0.00000106,0.00000082,0.00000019,0.00000347,0.00000192,0.00
 000151,-0.00000346,0.00000019,0.00000289,-0.00000125,-0.00000198,-0.00
 000315\\\@


 IT IS BY LOGIC THAT WE PROVE, BUT BY INTUITION THAT WE DISCOVER.
     -- J.H.POINCARE (1854-1912)
 Job cpu time:       0 days  1 hours 59 minutes 31.5 seconds.
 Elapsed time:       0 days  0 hours 29 minutes 53.9 seconds.
 File lengths (MBytes):  RWF=    221 Int=      0 D2E=      0 Chk=      9 Scr=      1
 Normal termination of Gaussian 16 at Mon May 29 03:16:23 2023.
### All Done ###
