### Starting Gaussian ###
 Entering Gaussian System, Link 0=g16
 Initial command:
 /cluster/software/gaussian/gaussian-16-A.03/avx2/g16/l1.exe "/local/scratch/linjian/Gau-10104.inp" -scrdir="/local/scratch/linjian/"
 Entering Link 1 = /cluster/software/gaussian/gaussian-16-A.03/avx2/g16/l1.exe PID=     10105.
  
 Copyright (c) 1988,1990,1992,1993,1995,1998,2003,2009,2016,
            Gaussian, Inc.  All Rights Reserved.
  
 This is part of the Gaussian(R) 16 program.  It is based on
 the Gaussian(R) 09 system (copyright 2009, Gaussian, Inc.),
 the Gaussian(R) 03 system (copyright 2003, Gaussian, Inc.),
 the Gaussian(R) 98 system (copyright 1998, Gaussian, Inc.),
 the Gaussian(R) 94 system (copyright 1995, Gaussian, Inc.),
 the Gaussian 92(TM) system (copyright 1992, Gaussian, Inc.),
 the Gaussian 90(TM) system (copyright 1990, Gaussian, Inc.),
 the Gaussian 88(TM) system (copyright 1988, Gaussian, Inc.),
 the Gaussian 86(TM) system (copyright 1986, Carnegie Mellon
 University), and the Gaussian 82(TM) system (copyright 1983,
 Carnegie Mellon University). Gaussian is a federally registered
 trademark of Gaussian, Inc.
  
 This software contains proprietary and confidential information,
 including trade secrets, belonging to Gaussian, Inc.
  
 This software is provided under written license and may be
 used, copied, transmitted, or stored only in accord with that
 written license.
  
 The following legend is applicable only to US Government
 contracts under FAR:
  
                    RESTRICTED RIGHTS LEGEND
  
 Use, reproduction and disclosure by the US Government is
 subject to restrictions as set forth in subparagraphs (a)
 and (c) of the Commercial Computer Software - Restricted
 Rights clause in FAR 52.227-19.
  
 Gaussian, Inc.
 340 Quinnipiac St., Bldg. 40, Wallingford CT 06492
  
  
 ---------------------------------------------------------------
 Warning -- This program may not be used in any manner that
 competes with the business of Gaussian, Inc. or will provide
 assistance to any competitor of Gaussian, Inc.  The licensee
 of this program is prohibited from giving any competitor of
 Gaussian, Inc. access to this program.  By using this program,
 the user acknowledges that Gaussian, Inc. is engaged in the
 business of creating and licensing software in the field of
 computational chemistry and represents and warrants to the
 licensee that it is not a competitor of Gaussian, Inc. and that
 it will not use this program in any manner prohibited above.
 ---------------------------------------------------------------
  

 Cite this work as:
 Gaussian 16, Revision A.03,
 M. J. Frisch, G. W. Trucks, H. B. Schlegel, G. E. Scuseria, 
 M. A. Robb, J. R. Cheeseman, G. Scalmani, V. Barone, 
 G. A. Petersson, H. Nakatsuji, X. Li, M. Caricato, A. V. Marenich, 
 J. Bloino, B. G. Janesko, R. Gomperts, B. Mennucci, H. P. Hratchian, 
 J. V. Ortiz, A. F. Izmaylov, J. L. Sonnenberg, D. Williams-Young, 
 F. Ding, F. Lipparini, F. Egidi, J. Goings, B. Peng, A. Petrone, 
 T. Henderson, D. Ranasinghe, V. G. Zakrzewski, J. Gao, N. Rega, 
 G. Zheng, W. Liang, M. Hada, M. Ehara, K. Toyota, R. Fukuda, 
 J. Hasegawa, M. Ishida, T. Nakajima, Y. Honda, O. Kitao, H. Nakai, 
 T. Vreven, K. Throssell, J. A. Montgomery, Jr., J. E. Peralta, 
 F. Ogliaro, M. J. Bearpark, J. J. Heyd, E. N. Brothers, K. N. Kudin, 
 V. N. Staroverov, T. A. Keith, R. Kobayashi, J. Normand, 
 K. Raghavachari, A. P. Rendell, J. C. Burant, S. S. Iyengar, 
 J. Tomasi, M. Cossi, J. M. Millam, M. Klene, C. Adamo, R. Cammi, 
 J. W. Ochterski, R. L. Martin, K. Morokuma, O. Farkas, 
 J. B. Foresman, and D. J. Fox, Gaussian, Inc., Wallingford CT, 2016.
 
 ******************************************
 Gaussian 16:  ES64L-G16RevA.03 25-Dec-2016
                22-May-2023 
 ******************************************
 %chk=CCSCCCqOrqONrCqCrC.chk
 %NProcShared=20
 Will use up to   20 processors via shared memory.
 -----------------------------
 # opt freq b3lyp/6-31g(2df,p)
 -----------------------------
 1/18=20,19=15,26=3,38=1/1,3;
 2/9=110,12=2,17=6,18=5,40=1/2;
 3/5=1,6=6,7=104,11=2,25=1,30=1,71=1,74=-5/1,2,3;
 4//1;
 5/5=2,38=5/2;
 6/7=2,8=2,9=2,10=2,28=1/1;
 7//1,2,3,16;
 1/18=20,19=15,26=3/3(2);
 2/9=110/2;
 99//99;
 2/9=110/2;
 3/5=1,6=6,7=104,11=2,25=1,30=1,71=1,74=-5/1,2,3;
 4/5=5,16=3,69=1/1;
 5/5=2,38=5/2;
 7//1,2,3,16;
 1/18=20,19=15,26=3/3(-5);
 2/9=110/2;
 6/7=2,8=2,9=2,10=2,19=2,28=1/1;
 99/9=1/99;
 -------------------
 Title Card Required
 -------------------
 Symbolic Z-matrix:
 Charge =  0 Multiplicity = 1
 C                     0.95035   0.11192  -0.04122 
 C                     2.45917   0.06656  -0.15585 
 S                     2.87036  -1.00072  -1.57493 
 C                     4.67253  -0.98086  -1.38988 
 C                     5.33393  -1.97366  -2.34601 
 C                     6.88501  -1.9786   -2.34126 
 O                     7.38407  -0.66784  -2.60468 
 O                     7.3751   -2.49402  -1.07588 
 N                     7.2421   -1.51314   0.0073 
 C                     7.44026  -2.94341  -3.43796 
 C                     6.97509  -2.58009  -4.8541 
 C                     8.97866  -2.99485  -3.43527 
 H                     0.64643   0.79935   0.75318 
 H                     0.54723  -0.87812   0.19954 
 H                     0.49551   0.45601  -0.97604 
 H                     2.89327  -0.33077   0.76954 
 H                     2.8639    1.06987  -0.32341 
 H                     4.82245  -1.25793  -0.35158 
 H                     5.03934   0.03654  -1.55252 
 H                     4.98203  -1.71041  -3.3472 
 H                     4.98413  -2.98791  -2.11243 
 H                     7.26602  -0.20137  -1.76732 
 H                     7.92753  -1.87867   0.67582 
 H                     6.36794  -1.83255   0.4292 
 H                     7.09104  -3.96001  -3.21003 
 H                     7.29101  -1.56836  -5.12794 
 H                     5.88805  -2.6383   -4.95232 
 H                     7.38856  -3.27522  -5.59217 
 H                     9.41215  -2.01485  -3.66063 
 H                     9.34383  -3.70027  -4.19078 
 H                     9.36841  -3.326    -2.46766 
 

 GradGradGradGradGradGradGradGradGradGradGradGradGradGradGradGradGradGrad
 Berny optimization.
 Initialization pass.
                           ----------------------------
                           !    Initial Parameters    !
                           ! (Angstroms and Degrees)  !
 --------------------------                            --------------------------
 ! Name  Definition              Value          Derivative Info.                !
 --------------------------------------------------------------------------------
 ! R1    R(1,2)                  1.5138         estimate D2E/DX2                !
 ! R2    R(1,13)                 1.0936         estimate D2E/DX2                !
 ! R3    R(1,14)                 1.0957         estimate D2E/DX2                !
 ! R4    R(1,15)                 1.0951         estimate D2E/DX2                !
 ! R5    R(2,3)                  1.8226         estimate D2E/DX2                !
 ! R6    R(2,16)                 1.0967         estimate D2E/DX2                !
 ! R7    R(2,17)                 1.0948         estimate D2E/DX2                !
 ! R8    R(3,4)                  1.8118         estimate D2E/DX2                !
 ! R9    R(4,5)                  1.5288         estimate D2E/DX2                !
 ! R10   R(4,18)                 1.085          estimate D2E/DX2                !
 ! R11   R(4,19)                 1.0937         estimate D2E/DX2                !
 ! R12   R(5,6)                  1.5511         estimate D2E/DX2                !
 ! R13   R(5,20)                 1.0934         estimate D2E/DX2                !
 ! R14   R(5,21)                 1.098          estimate D2E/DX2                !
 ! R15   R(6,7)                  1.4271         estimate D2E/DX2                !
 ! R16   R(6,8)                  1.4516         estimate D2E/DX2                !
 ! R17   R(6,10)                 1.5627         estimate D2E/DX2                !
 ! R18   R(7,22)                 0.9658         estimate D2E/DX2                !
 ! R19   R(8,9)                  1.4673         estimate D2E/DX2                !
 ! R20   R(9,23)                 1.0249         estimate D2E/DX2                !
 ! R21   R(9,24)                 1.0219         estimate D2E/DX2                !
 ! R22   R(10,11)                1.5342         estimate D2E/DX2                !
 ! R23   R(10,12)                1.5393         estimate D2E/DX2                !
 ! R24   R(10,25)                1.0988         estimate D2E/DX2                !
 ! R25   R(11,26)                1.0947         estimate D2E/DX2                !
 ! R26   R(11,27)                1.093          estimate D2E/DX2                !
 ! R27   R(11,28)                1.0949         estimate D2E/DX2                !
 ! R28   R(12,29)                1.095          estimate D2E/DX2                !
 ! R29   R(12,30)                1.0962         estimate D2E/DX2                !
 ! R30   R(12,31)                1.0945         estimate D2E/DX2                !
 ! A1    A(2,1,13)             110.5374         estimate D2E/DX2                !
 ! A2    A(2,1,14)             110.8694         estimate D2E/DX2                !
 ! A3    A(2,1,15)             111.0234         estimate D2E/DX2                !
 ! A4    A(13,1,14)            107.8244         estimate D2E/DX2                !
 ! A5    A(13,1,15)            107.8881         estimate D2E/DX2                !
 ! A6    A(14,1,15)            108.5825         estimate D2E/DX2                !
 ! A7    A(1,2,3)              107.5391         estimate D2E/DX2                !
 ! A8    A(1,2,16)             109.9674         estimate D2E/DX2                !
 ! A9    A(1,2,17)             110.6462         estimate D2E/DX2                !
 ! A10   A(3,2,16)             110.8263         estimate D2E/DX2                !
 ! A11   A(3,2,17)             109.5168         estimate D2E/DX2                !
 ! A12   A(16,2,17)            108.3521         estimate D2E/DX2                !
 ! A13   A(2,3,4)               97.9591         estimate D2E/DX2                !
 ! A14   A(3,4,5)              111.0595         estimate D2E/DX2                !
 ! A15   A(3,4,18)             103.4372         estimate D2E/DX2                !
 ! A16   A(3,4,19)             109.1856         estimate D2E/DX2                !
 ! A17   A(5,4,18)             111.8924         estimate D2E/DX2                !
 ! A18   A(5,4,19)             111.4693         estimate D2E/DX2                !
 ! A19   A(18,4,19)            109.482          estimate D2E/DX2                !
 ! A20   A(4,5,6)              115.6435         estimate D2E/DX2                !
 ! A21   A(4,5,20)             106.0859         estimate D2E/DX2                !
 ! A22   A(4,5,21)             109.2073         estimate D2E/DX2                !
 ! A23   A(6,5,20)             108.9904         estimate D2E/DX2                !
 ! A24   A(6,5,21)             108.3596         estimate D2E/DX2                !
 ! A25   A(20,5,21)            108.3401         estimate D2E/DX2                !
 ! A26   A(5,6,7)              110.2559         estimate D2E/DX2                !
 ! A27   A(5,6,8)              109.9638         estimate D2E/DX2                !
 ! A28   A(5,6,10)             110.8018         estimate D2E/DX2                !
 ! A29   A(7,6,8)              111.6526         estimate D2E/DX2                !
 ! A30   A(7,6,10)             108.2574         estimate D2E/DX2                !
 ! A31   A(8,6,10)             105.819          estimate D2E/DX2                !
 ! A32   A(6,7,22)             103.9365         estimate D2E/DX2                !
 ! A33   A(6,8,9)              112.058          estimate D2E/DX2                !
 ! A34   A(8,9,23)             100.5145         estimate D2E/DX2                !
 ! A35   A(8,9,24)              99.9839         estimate D2E/DX2                !
 ! A36   A(23,9,24)            101.0305         estimate D2E/DX2                !
 ! A37   A(6,10,11)            113.1947         estimate D2E/DX2                !
 ! A38   A(6,10,12)            111.9953         estimate D2E/DX2                !
 ! A39   A(6,10,25)            108.2228         estimate D2E/DX2                !
 ! A40   A(11,10,12)           108.2132         estimate D2E/DX2                !
 ! A41   A(11,10,25)           108.3126         estimate D2E/DX2                !
 ! A42   A(12,10,25)           106.64           estimate D2E/DX2                !
 ! A43   A(10,11,26)           111.2389         estimate D2E/DX2                !
 ! A44   A(10,11,27)           111.831          estimate D2E/DX2                !
 ! A45   A(10,11,28)           110.938          estimate D2E/DX2                !
 ! A46   A(26,11,27)           108.2853         estimate D2E/DX2                !
 ! A47   A(26,11,28)           108.0072         estimate D2E/DX2                !
 ! A48   A(27,11,28)           106.3299         estimate D2E/DX2                !
 ! A49   A(10,12,29)           111.4309         estimate D2E/DX2                !
 ! A50   A(10,12,30)           110.6845         estimate D2E/DX2                !
 ! A51   A(10,12,31)           111.5658         estimate D2E/DX2                !
 ! A52   A(29,12,30)           107.5889         estimate D2E/DX2                !
 ! A53   A(29,12,31)           108.1654         estimate D2E/DX2                !
 ! A54   A(30,12,31)           107.2162         estimate D2E/DX2                !
 ! D1    D(13,1,2,3)          -175.8994         estimate D2E/DX2                !
 ! D2    D(13,1,2,16)           63.3338         estimate D2E/DX2                !
 ! D3    D(13,1,2,17)          -56.3283         estimate D2E/DX2                !
 ! D4    D(14,1,2,3)            64.5854         estimate D2E/DX2                !
 ! D5    D(14,1,2,16)          -56.1814         estimate D2E/DX2                !
 ! D6    D(14,1,2,17)         -175.8434         estimate D2E/DX2                !
 ! D7    D(15,1,2,3)           -56.2046         estimate D2E/DX2                !
 ! D8    D(15,1,2,16)         -176.9714         estimate D2E/DX2                !
 ! D9    D(15,1,2,17)           63.3665         estimate D2E/DX2                !
 ! D10   D(1,2,3,4)           -175.6576         estimate D2E/DX2                !
 ! D11   D(16,2,3,4)           -55.4331         estimate D2E/DX2                !
 ! D12   D(17,2,3,4)            64.0541         estimate D2E/DX2                !
 ! D13   D(2,3,4,5)            171.9211         estimate D2E/DX2                !
 ! D14   D(2,3,4,18)            51.7361         estimate D2E/DX2                !
 ! D15   D(2,3,4,19)           -64.7638         estimate D2E/DX2                !
 ! D16   D(3,4,5,6)            176.2272         estimate D2E/DX2                !
 ! D17   D(3,4,5,20)            55.2896         estimate D2E/DX2                !
 ! D18   D(3,4,5,21)           -61.2774         estimate D2E/DX2                !
 ! D19   D(18,4,5,6)           -68.7426         estimate D2E/DX2                !
 ! D20   D(18,4,5,20)          170.3198         estimate D2E/DX2                !
 ! D21   D(18,4,5,21)           53.7527         estimate D2E/DX2                !
 ! D22   D(19,4,5,6)            54.2322         estimate D2E/DX2                !
 ! D23   D(19,4,5,20)          -66.7053         estimate D2E/DX2                !
 ! D24   D(19,4,5,21)          176.7276         estimate D2E/DX2                !
 ! D25   D(4,5,6,7)            -55.4572         estimate D2E/DX2                !
 ! D26   D(4,5,6,8)             68.0816         estimate D2E/DX2                !
 ! D27   D(4,5,6,10)          -175.2867         estimate D2E/DX2                !
 ! D28   D(20,5,6,7)            63.8997         estimate D2E/DX2                !
 ! D29   D(20,5,6,8)          -172.5615         estimate D2E/DX2                !
 ! D30   D(20,5,6,10)          -55.9299         estimate D2E/DX2                !
 ! D31   D(21,5,6,7)          -178.4013         estimate D2E/DX2                !
 ! D32   D(21,5,6,8)           -54.8625         estimate D2E/DX2                !
 ! D33   D(21,5,6,10)           61.7691         estimate D2E/DX2                !
 ! D34   D(5,6,7,22)            77.021          estimate D2E/DX2                !
 ! D35   D(8,6,7,22)           -45.5312         estimate D2E/DX2                !
 ! D36   D(10,6,7,22)         -161.6227         estimate D2E/DX2                !
 ! D37   D(5,6,8,9)            -75.4579         estimate D2E/DX2                !
 ! D38   D(7,6,8,9)             47.2613         estimate D2E/DX2                !
 ! D39   D(10,6,8,9)           164.8304         estimate D2E/DX2                !
 ! D40   D(5,6,10,11)           58.6807         estimate D2E/DX2                !
 ! D41   D(5,6,10,12)         -178.6485         estimate D2E/DX2                !
 ! D42   D(5,6,10,25)          -61.3822         estimate D2E/DX2                !
 ! D43   D(7,6,10,11)          -62.3379         estimate D2E/DX2                !
 ! D44   D(7,6,10,12)           60.3329         estimate D2E/DX2                !
 ! D45   D(7,6,10,25)          177.5993         estimate D2E/DX2                !
 ! D46   D(8,6,10,11)          177.8406         estimate D2E/DX2                !
 ! D47   D(8,6,10,12)          -59.4886         estimate D2E/DX2                !
 ! D48   D(8,6,10,25)           57.7777         estimate D2E/DX2                !
 ! D49   D(6,8,9,23)          -159.3247         estimate D2E/DX2                !
 ! D50   D(6,8,9,24)            97.3628         estimate D2E/DX2                !
 ! D51   D(8,9,23,24)         -102.4643         estimate D2E/DX2                !
 ! D52   D(6,10,11,26)          59.4718         estimate D2E/DX2                !
 ! D53   D(6,10,11,27)         -61.7473         estimate D2E/DX2                !
 ! D54   D(6,10,11,28)         179.725          estimate D2E/DX2                !
 ! D55   D(12,10,11,26)        -65.2746         estimate D2E/DX2                !
 ! D56   D(12,10,11,27)        173.5062         estimate D2E/DX2                !
 ! D57   D(12,10,11,28)         54.9785         estimate D2E/DX2                !
 ! D58   D(25,10,11,26)        179.4834         estimate D2E/DX2                !
 ! D59   D(25,10,11,27)         58.2643         estimate D2E/DX2                !
 ! D60   D(25,10,11,28)        -60.2634         estimate D2E/DX2                !
 ! D61   D(6,10,12,29)         -62.0676         estimate D2E/DX2                !
 ! D62   D(6,10,12,30)         178.2496         estimate D2E/DX2                !
 ! D63   D(6,10,12,31)          58.9476         estimate D2E/DX2                !
 ! D64   D(11,10,12,29)         63.389          estimate D2E/DX2                !
 ! D65   D(11,10,12,30)        -56.2937         estimate D2E/DX2                !
 ! D66   D(11,10,12,31)       -175.5957         estimate D2E/DX2                !
 ! D67   D(25,10,12,29)        179.7209         estimate D2E/DX2                !
 ! D68   D(25,10,12,30)         60.0382         estimate D2E/DX2                !
 ! D69   D(25,10,12,31)        -59.2638         estimate D2E/DX2                !
 --------------------------------------------------------------------------------
 Trust Radius=3.00D-01 FncErr=1.00D-07 GrdErr=1.00D-06 EigMax=2.50D+02 EigMin=1.00D-04
 Number of steps in this run=    163 maximum allowed number of steps=    186.
 GradGradGradGradGradGradGradGradGradGradGradGradGradGradGradGradGradGrad

                          Input orientation:                          
 ---------------------------------------------------------------------
 Center     Atomic      Atomic             Coordinates (Angstroms)
 Number     Number       Type             X           Y           Z
 ---------------------------------------------------------------------
      1          6           0        0.950350    0.111920   -0.041220
      2          6           0        2.459170    0.066560   -0.155850
      3         16           0        2.870360   -1.000720   -1.574930
      4          6           0        4.672530   -0.980860   -1.389880
      5          6           0        5.333930   -1.973660   -2.346010
      6          6           0        6.885010   -1.978600   -2.341260
      7          8           0        7.384070   -0.667840   -2.604680
      8          8           0        7.375100   -2.494020   -1.075880
      9          7           0        7.242100   -1.513140    0.007300
     10          6           0        7.440260   -2.943410   -3.437960
     11          6           0        6.975090   -2.580090   -4.854100
     12          6           0        8.978660   -2.994850   -3.435270
     13          1           0        0.646430    0.799350    0.753180
     14          1           0        0.547230   -0.878120    0.199540
     15          1           0        0.495510    0.456010   -0.976040
     16          1           0        2.893270   -0.330770    0.769540
     17          1           0        2.863900    1.069870   -0.323410
     18          1           0        4.822450   -1.257930   -0.351580
     19          1           0        5.039340    0.036540   -1.552520
     20          1           0        4.982030   -1.710410   -3.347200
     21          1           0        4.984130   -2.987910   -2.112430
     22          1           0        7.266020   -0.201370   -1.767320
     23          1           0        7.927530   -1.878670    0.675820
     24          1           0        6.367940   -1.832550    0.429200
     25          1           0        7.091040   -3.960010   -3.210030
     26          1           0        7.291010   -1.568360   -5.127940
     27          1           0        5.888050   -2.638300   -4.952320
     28          1           0        7.388560   -3.275220   -5.592170
     29          1           0        9.412150   -2.014850   -3.660630
     30          1           0        9.343830   -3.700270   -4.190780
     31          1           0        9.368410   -3.326000   -2.467660
 ---------------------------------------------------------------------
                    Distance matrix (angstroms):
                    1          2          3          4          5
     1  C    0.000000
     2  C    1.513848   0.000000
     3  S    2.697531   1.822622   0.000000
     4  C    4.107028   2.742058   1.811755   0.000000
     5  C    5.373777   4.150126   2.758687   1.528819   0.000000
     6  C    6.699302   5.342916   4.202490   2.606852   1.551095
     7  O    6.969369   5.548941   4.641635   2.987670   2.444412
     8  O    7.009911   5.618665   4.771968   3.113219   2.459752
     9  N    6.498407   5.039691   4.677407   2.972898   3.064516
    10  C    7.936738   6.681573   5.303670   3.963151   2.563083
    11  C    8.167510   7.033622   5.485998   4.456472   3.058051
    12  C    9.253397   7.913948   6.689451   5.175184   3.938702
    13  H    1.093617   2.156234   3.688660   4.896053   6.266356
    14  H    1.095742   2.161998   2.925869   4.422094   5.531051
    15  H    1.095064   2.163410   2.849674   4.436593   5.584839
    16  H    2.151335   1.096659   2.438421   2.872539   4.285156
    17  H    2.158465   1.094766   2.419439   2.934961   4.410786
    18  H    4.118977   2.716188   2.318059   1.085039   2.179824
    19  H    4.359994   2.934087   2.404347   1.093665   2.181127
    20  H    5.523118   4.439275   2.846709   2.111666   1.093396
    21  H    5.492744   4.419662   2.950568   2.155788   1.098009
    22  H    6.554789   5.076852   4.471890   2.734274   2.684933
    23  H    7.290928   5.863323   5.604609   3.958308   3.983371
    24  H    5.775166   4.384904   4.116011   2.628468   2.964942
    25  H    8.020601   6.855326   5.407873   4.247054   2.789185
    26  H    8.300725   7.123294   5.699846   4.601596   3.425429
    27  H    7.487556   6.486880   4.816107   4.112855   2.746206
    28  H    9.150755   8.063495   6.459543   5.504557   4.056244
    29  H    9.445917   8.059757   6.940722   5.356252   4.285067
    30  H   10.109508   8.824297   7.485723   6.087797   4.739584
    31  H    9.411198   8.036885   6.959062   5.358412   4.256836
                    6          7          8          9         10
     6  C    0.000000
     7  O    1.427075   0.000000
     8  O    1.451562   2.381647   0.000000
     9  N    2.420723   2.749023   1.467342   0.000000
    10  C    1.562662   2.423991   2.405331   3.735607   0.000000
    11  C    2.585395   2.980580   3.800311   4.984264   1.534222
    12  C    2.571574   2.940676   2.896370   4.130665   1.539262
    13  H    7.497496   7.669659   7.711468   7.028998   8.816464
    14  H    6.916226   7.392581   7.131454   6.727666   8.062921
    15  H    6.972579   7.167131   7.486081   7.096547   8.114595
    16  H    5.322256   5.627278   5.307733   4.570704   6.723397
    17  H    5.434539   5.353108   5.798142   5.094109   6.837391
    18  H    2.955054   3.462162   2.927209   2.459397   4.384007
    19  H    2.844187   2.664761   3.476592   3.112346   4.266076
    20  H    2.169141   2.721780   3.391124   4.049630   2.751622
    21  H    2.164351   3.374129   2.652376   3.430252   2.791341
    22  H    1.906075   0.965765   2.397130   2.206941   3.215615
    23  H    3.193682   3.538805   1.937082   1.024864   4.277182
    24  H    2.822081   3.404923   1.927999   1.021850   4.163989
    25  H    2.173291   3.360163   2.604691   4.044899   1.098809
    26  H    2.845825   2.680753   4.157296   5.135770   2.183820
    27  H    2.871719   3.410601   4.154386   5.262819   2.189916
    28  H    3.535987   3.965293   4.583375   5.872005   2.180227
    29  H    2.851050   2.653785   3.325674   4.291217   2.190926
    30  H    3.525715   3.943603   3.877311   5.179255   2.182465
    31  H    2.828204   3.319969   2.569538   3.732704   2.192172
                   11         12         13         14         15
    11  C    0.000000
    12  C    2.489859   0.000000
    13  H    9.105720  10.068025   0.000000
    14  H    8.351848   9.422388   1.769255   0.000000
    15  H    8.138932   9.482620   1.769424   1.778923   0.000000
    16  H    7.303836   7.861916   2.515100   2.475560   3.068440
    17  H    7.123991   7.974704   2.479798   3.071661   2.532197
    18  H    5.162814   5.458948   4.784563   4.327296   4.695737
    19  H    4.636196   5.315291   5.019541   4.907685   4.599421
    20  H    2.645634   4.198880   6.473750   5.739296   5.517666
    21  H    3.412769   4.207876   6.432006   5.429779   5.770587
    22  H    3.907833   3.676782   7.153554   7.033397   6.848217
    23  H    5.655011   4.387687   7.758363   7.463027   7.963309
    24  H    5.370354   4.806343   6.306151   5.902910   6.457371
    25  H    2.149556   2.131989   8.938207   7.996541   8.245784
    26  H    1.094711   2.783553   9.183903   8.621893   8.216761
    27  H    1.093019   3.461277   8.476128   7.626549   7.380044
    28  H    1.094948   2.694298  10.115429   9.278674   9.096421
    29  H    2.771846   1.095035  10.209764   9.735496   9.634243
    30  H    2.702911   1.096249  10.969689  10.228373  10.290869
    31  H    3.461135   1.094456  10.171787   9.535161   9.759963
                   16         17         18         19         20
    16  H    0.000000
    17  H    1.776850   0.000000
    18  H    2.416251   3.042263   0.000000
    19  H    3.183158   2.703890   1.779031   0.000000
    20  H    4.818078   4.621660   3.033800   2.505194   0.000000
    21  H    4.442729   4.915440   2.473775   3.076336   1.776701
    22  H    5.057010   4.804122   3.015240   2.249632   3.160670
    23  H    5.267689   5.944131   3.329022   4.120093   4.988885
    24  H    3.800593   4.611807   1.824375   3.030823   4.024532
    25  H    6.828589   7.176418   4.540757   4.788447   3.086655
    26  H    7.460028   7.045784   5.385515   4.519884   2.919350
    27  H    6.858067   6.657538   4.920135   4.408369   2.063556
    28  H    8.327591   8.192203   6.173991   5.727596   3.644161
    29  H    8.059673   7.970703   5.708598   5.270085   4.451616
    30  H    8.807271   8.927501   6.414621   6.281146   4.867902
    31  H    7.834431   8.138190   5.424063   5.557428   4.756475
                   21         22         23         24         25
    21  H    0.000000
    22  H    3.618139   0.000000
    23  H    4.203374   3.036423   0.000000
    24  H    3.116034   2.879583   1.579642   0.000000
    25  H    2.566861   4.029814   4.486816   4.277026   0.000000
    26  H    4.053408   3.628092   5.846801   5.639473   3.072191
    27  H    3.000712   4.240478   6.034275   5.462626   2.495932
    28  H    4.239389   4.908467   6.444264   6.275337   2.496407
    29  H    4.790734   3.388098   4.585569   5.101682   3.061738
    30  H    4.882006   4.736323   5.385901   5.804181   2.470708
    31  H    4.411622   3.830644   3.748649   4.430013   2.477801
                   26         27         28         29         30
    26  H    0.000000
    27  H    1.773108   0.000000
    28  H    1.771552   1.751173   0.000000
    29  H    2.617554   3.804791   3.068272   0.000000
    30  H    3.104413   3.694609   2.442876   1.768154   0.000000
    31  H    3.805520   4.331209   3.699317   1.773191   1.763470
                   31
    31  H    0.000000
 Stoichiometry    C8H19NO2S
 Framework group  C1[X(C8H19NO2S)]
 Deg. of freedom    87
 Full point group                 C1      NOp   1
 Largest Abelian subgroup         C1      NOp   1
 Largest concise Abelian subgroup C1      NOp   1
                         Standard orientation:                         
 ---------------------------------------------------------------------
 Center     Atomic      Atomic             Coordinates (Angstroms)
 Number     Number       Type             X           Y           Z
 ---------------------------------------------------------------------
      1          6           0        5.154485   -0.183990   -0.059356
      2          6           0        3.795930    0.381411    0.296153
      3         16           0        2.541096   -0.828877   -0.235399
      4          6           0        1.067087    0.141152    0.175449
      5          6           0       -0.200025   -0.537915   -0.344727
      6          6           0       -1.535548    0.157256    0.028112
      7          8           0       -1.632738    0.313978    1.443222
      8          8           0       -1.640357    1.430906   -0.660265
      9          7           0       -0.783235    2.456608   -0.054980
     10          6           0       -2.756184   -0.690096   -0.455576
     11          6           0       -2.781351   -2.105641    0.135557
     12          6           0       -4.096984   -0.008348   -0.128772
     13          1           0        5.950238    0.472153    0.304310
     14          1           0        5.266548   -0.277008   -1.145376
     15          1           0        5.299659   -1.170977    0.392248
     16          1           0        3.647346    1.343990   -0.207856
     17          1           0        3.715104    0.541692    1.376102
     18          1           0        1.246598    1.092424   -0.314620
     19          1           0        1.025479    0.290686    1.258044
     20          1           0       -0.195867   -1.548137    0.073545
     21          1           0       -0.144666   -0.616615   -1.438511
     22          1           0       -1.053669    1.062807    1.634628
     23          1           0       -1.236774    3.307751   -0.401684
     24          1           0        0.026448    2.399772   -0.675755
     25          1           0       -2.704282   -0.773843   -1.549960
     26          1           0       -2.823893   -2.078037    1.229092
     27          1           0       -1.902398   -2.684786   -0.158932
     28          1           0       -3.652272   -2.664017   -0.223083
     29          1           0       -4.232587    0.110571    0.951307
     30          1           0       -4.936445   -0.605027   -0.504328
     31          1           0       -4.169175    0.980320   -0.592623
 ---------------------------------------------------------------------
 Rotational constants (GHZ):           1.5983920           0.3364818           0.2990393
 Standard basis: 6-31G(2df,p) (6D, 7F)
 There are   471 symmetry adapted cartesian basis functions of A   symmetry.
 There are   435 symmetry adapted basis functions of A   symmetry.
   435 basis functions,   685 primitive gaussians,   471 cartesian basis functions
    53 alpha electrons       53 beta electrons
       nuclear repulsion energy       880.1447569057 Hartrees.
 NAtoms=   31 NActive=   31 NUniq=   31 SFac= 1.00D+00 NAtFMM=   60 NAOKFM=F Big=F
 Integral buffers will be    131072 words long.
 Raffenetti 2 integral format.
 Two-electron integral symmetry is turned on.
 One-electron integrals computed using PRISM.
 PrsmSu:  requested number of processors reduced to:  12 ShMem   1 Linda.
 NBasis=   435 RedAO= T EigKep=  5.51D-04  NBF=   435
 NBsUse=   435 1.00D-06 EigRej= -1.00D+00 NBFU=   435
 ExpMin= 1.17D-01 ExpMax= 2.19D+04 ExpMxC= 3.30D+03 IAcc=3 IRadAn=         5 AccDes= 0.00D+00
 Harris functional with IExCor=  402 and IRadAn=       5 diagonalized for initial guess.
 HarFok:  IExCor=  402 AccDes= 0.00D+00 IRadAn=         5 IDoV= 1 UseB2=F ITyADJ=14
 ICtDFT=  3500011 ScaDFX=  1.000000  1.000000  1.000000  1.000000
 FoFCou: FMM=F IPFlag=           0 FMFlag=      100000 FMFlg1=           0
         NFxFlg=           0 DoJE=T BraDBF=F KetDBF=T FulRan=T
         wScrn=  0.000000 ICntrl=       500 IOpCl=  0 I1Cent=   200000004 NGrid=           0
         NMat0=    1 NMatS0=      1 NMatT0=    0 NMatD0=    1 NMtDS0=    0 NMtDT0=    0
 Petite list used in FoFCou.
 Requested convergence on RMS density matrix=1.00D-08 within 128 cycles.
 Requested convergence on MAX density matrix=1.00D-06.
 Requested convergence on             energy=1.00D-06.
 No special actions if energy rises.
 Integral accuracy reduced to 1.0D-05 until final iterations.
 Initial convergence to 1.0D-05 achieved.  Increase integral accuracy.
 SCF Done:  E(RB3LYP) =  -919.667484304     A.U. after   13 cycles
            NFock= 13  Conv=0.23D-08     -V/T= 2.0057

 **********************************************************************

            Population analysis using the SCF density.

 **********************************************************************

 Orbital symmetries:
       Occupied  (A) (A) (A) (A) (A) (A) (A) (A) (A) (A) (A) (A)
                 (A) (A) (A) (A) (A) (A) (A) (A) (A) (A) (A) (A)
                 (A) (A) (A) (A) (A) (A) (A) (A) (A) (A) (A) (A)
                 (A) (A) (A) (A) (A) (A) (A) (A) (A) (A) (A) (A)
                 (A) (A) (A) (A) (A)
       Virtual   (A) (A) (A) (A) (A) (A) (A) (A) (A) (A) (A) (A)
                 (A) (A) (A) (A) (A) (A) (A) (A) (A) (A) (A) (A)
                 (A) (A) (A) (A) (A) (A) (A) (A) (A) (A) (A) (A)
                 (A) (A) (A) (A) (A) (A) (A) (A) (A) (A) (A) (A)
                 (A) (A) (A) (A) (A) (A) (A) (A) (A) (A) (A) (A)
                 (A) (A) (A) (A) (A) (A) (A) (A) (A) (A) (A) (A)
                 (A) (A) (A) (A) (A) (A) (A) (A) (A) (A) (A) (A)
                 (A) (A) (A) (A) (A) (A) (A) (A) (A) (A) (A) (A)
                 (A) (A) (A) (A) (A) (A) (A) (A) (A) (A) (A) (A)
                 (A) (A) (A) (A) (A) (A) (A) (A) (A) (A) (A) (A)
                 (A) (A) (A) (A) (A) (A) (A) (A) (A) (A) (A) (A)
                 (A) (A) (A) (A) (A) (A) (A) (A) (A) (A) (A) (A)
                 (A) (A) (A) (A) (A) (A) (A) (A) (A) (A) (A) (A)
                 (A) (A) (A) (A) (A) (A) (A) (A) (A) (A) (A) (A)
                 (A) (A) (A) (A) (A) (A) (A) (A) (A) (A) (A) (A)
                 (A) (A) (A) (A) (A) (A) (A) (A) (A) (A) (A) (A)
                 (A) (A) (A) (A) (A) (A) (A) (A) (A) (A) (A) (A)
                 (A) (A) (A) (A) (A) (A) (A) (A) (A) (A) (A) (A)
                 (A) (A) (A) (A) (A) (A) (A) (A) (A) (A) (A) (A)
                 (A) (A) (A) (A) (A) (A) (A) (A) (A) (A) (A) (A)
                 (A) (A) (A) (A) (A) (A) (A) (A) (A) (A) (A) (A)
                 (A) (A) (A) (A) (A) (A) (A) (A) (A) (A) (A) (A)
                 (A) (A) (A) (A) (A) (A) (A) (A) (A) (A) (A) (A)
                 (A) (A) (A) (A) (A) (A) (A) (A) (A) (A) (A) (A)
                 (A) (A) (A) (A) (A) (A) (A) (A) (A) (A) (A) (A)
                 (A) (A) (A) (A) (A) (A) (A) (A) (A) (A) (A) (A)
                 (A) (A) (A) (A) (A) (A) (A) (A) (A) (A) (A) (A)
                 (A) (A) (A) (A) (A) (A) (A) (A) (A) (A) (A) (A)
                 (A) (A) (A) (A) (A) (A) (A) (A) (A) (A) (A) (A)
                 (A) (A) (A) (A) (A) (A) (A) (A) (A) (A) (A) (A)
                 (A) (A) (A) (A) (A) (A) (A) (A) (A) (A) (A) (A)
                 (A) (A) (A) (A) (A) (A) (A) (A) (A) (A)
 The electronic state is 1-A.
 Alpha  occ. eigenvalues --  -88.85972 -19.16776 -19.13425 -14.38402 -10.28296
 Alpha  occ. eigenvalues --  -10.21215 -10.20954 -10.18711 -10.18419 -10.18252
 Alpha  occ. eigenvalues --  -10.16720 -10.15965  -7.92349  -5.88822  -5.88499
 Alpha  occ. eigenvalues --   -5.87862  -1.06953  -1.00149  -0.83869  -0.81649
 Alpha  occ. eigenvalues --   -0.78261  -0.76962  -0.70189  -0.67026  -0.64177
 Alpha  occ. eigenvalues --   -0.59980  -0.58016  -0.55070  -0.52949  -0.49611
 Alpha  occ. eigenvalues --   -0.48012  -0.46442  -0.45455  -0.44794  -0.43541
 Alpha  occ. eigenvalues --   -0.43182  -0.42446  -0.39289  -0.38424  -0.37841
 Alpha  occ. eigenvalues --   -0.36949  -0.36704  -0.35789  -0.34822  -0.34693
 Alpha  occ. eigenvalues --   -0.32803  -0.32575  -0.32285  -0.31019  -0.29818
 Alpha  occ. eigenvalues --   -0.26512  -0.25863  -0.21701
 Alpha virt. eigenvalues --    0.03151   0.05427   0.07224   0.08433   0.10207
 Alpha virt. eigenvalues --    0.10380   0.11050   0.12305   0.13339   0.14111
 Alpha virt. eigenvalues --    0.14372   0.15065   0.15579   0.16488   0.16833
 Alpha virt. eigenvalues --    0.17003   0.18002   0.18359   0.19565   0.20078
 Alpha virt. eigenvalues --    0.20655   0.21599   0.22153   0.23132   0.24136
 Alpha virt. eigenvalues --    0.25779   0.26488   0.27360   0.28002   0.28838
 Alpha virt. eigenvalues --    0.29778   0.35536   0.36886   0.40459   0.41894
 Alpha virt. eigenvalues --    0.42848   0.43212   0.45200   0.46036   0.47614
 Alpha virt. eigenvalues --    0.47695   0.48649   0.49681   0.51149   0.53370
 Alpha virt. eigenvalues --    0.53845   0.54098   0.56154   0.56244   0.57600
 Alpha virt. eigenvalues --    0.59781   0.60618   0.62034   0.62869   0.63339
 Alpha virt. eigenvalues --    0.64504   0.65361   0.66509   0.67024   0.67468
 Alpha virt. eigenvalues --    0.69794   0.70820   0.72094   0.72510   0.73245
 Alpha virt. eigenvalues --    0.73586   0.74295   0.74480   0.75001   0.75545
 Alpha virt. eigenvalues --    0.76611   0.77722   0.78118   0.79328   0.79530
 Alpha virt. eigenvalues --    0.80404   0.80837   0.82319   0.83009   0.84172
 Alpha virt. eigenvalues --    0.85353   0.85779   0.86738   0.88620   0.89351
 Alpha virt. eigenvalues --    0.89792   0.89968   0.91679   0.91787   0.94286
 Alpha virt. eigenvalues --    0.94829   0.95733   0.96345   0.97241   0.97661
 Alpha virt. eigenvalues --    0.99183   1.02313   1.04595   1.05646   1.10274
 Alpha virt. eigenvalues --    1.10499   1.12417   1.15062   1.17132   1.18862
 Alpha virt. eigenvalues --    1.19548   1.20063   1.22191   1.27643   1.30443
 Alpha virt. eigenvalues --    1.31370   1.31834   1.32946   1.34342   1.35626
 Alpha virt. eigenvalues --    1.37296   1.37892   1.38764   1.41328   1.42448
 Alpha virt. eigenvalues --    1.44757   1.45928   1.46109   1.47538   1.49623
 Alpha virt. eigenvalues --    1.51129   1.51875   1.54412   1.57076   1.57716
 Alpha virt. eigenvalues --    1.58176   1.59669   1.60424   1.62663   1.63124
 Alpha virt. eigenvalues --    1.65100   1.66966   1.69073   1.70204   1.70771
 Alpha virt. eigenvalues --    1.74136   1.74425   1.76229   1.78346   1.78721
 Alpha virt. eigenvalues --    1.79174   1.80576   1.82843   1.83756   1.85869
 Alpha virt. eigenvalues --    1.88824   1.89245   1.91278   1.91885   1.92775
 Alpha virt. eigenvalues --    1.93977   1.94801   1.95361   1.96605   1.98504
 Alpha virt. eigenvalues --    1.99162   2.00489   2.02249   2.05549   2.07285
 Alpha virt. eigenvalues --    2.10773   2.12443   2.14580   2.17779   2.19343
 Alpha virt. eigenvalues --    2.21564   2.24880   2.25727   2.25939   2.28417
 Alpha virt. eigenvalues --    2.29980   2.31913   2.34469   2.37958   2.39094
 Alpha virt. eigenvalues --    2.39888   2.40474   2.40761   2.44423   2.44756
 Alpha virt. eigenvalues --    2.47326   2.49206   2.52290   2.53601   2.54050
 Alpha virt. eigenvalues --    2.56622   2.59251   2.60468   2.64263   2.66550
 Alpha virt. eigenvalues --    2.68726   2.69614   2.72809   2.72964   2.76158
 Alpha virt. eigenvalues --    2.76595   2.77660   2.78252   2.79063   2.79660
 Alpha virt. eigenvalues --    2.81410   2.82120   2.83880   2.83916   2.85064
 Alpha virt. eigenvalues --    2.86845   2.87496   2.88806   2.90122   2.91090
 Alpha virt. eigenvalues --    2.92327   2.94271   2.95297   2.95628   2.97083
 Alpha virt. eigenvalues --    2.98425   2.99191   3.00141   3.01700   3.02636
 Alpha virt. eigenvalues --    3.03176   3.04410   3.08764   3.12642   3.14014
 Alpha virt. eigenvalues --    3.16097   3.18906   3.19828   3.20229   3.22140
 Alpha virt. eigenvalues --    3.25803   3.27880   3.30274   3.32705   3.35404
 Alpha virt. eigenvalues --    3.37728   3.39174   3.42096   3.44015   3.45788
 Alpha virt. eigenvalues --    3.46909   3.49299   3.50323   3.51450   3.53265
 Alpha virt. eigenvalues --    3.55449   3.55612   3.56811   3.58097   3.60499
 Alpha virt. eigenvalues --    3.61547   3.62827   3.64098   3.65153   3.67872
 Alpha virt. eigenvalues --    3.68258   3.69640   3.72413   3.75393   3.76765
 Alpha virt. eigenvalues --    3.77910   3.79036   3.80435   3.85174   3.89282
 Alpha virt. eigenvalues --    3.91960   3.92756   3.95074   3.97868   4.01352
 Alpha virt. eigenvalues --    4.04875   4.06882   4.10511   4.12198   4.13353
 Alpha virt. eigenvalues --    4.15367   4.17818   4.18817   4.22584   4.24167
 Alpha virt. eigenvalues --    4.26420   4.29062   4.30634   4.34879   4.36310
 Alpha virt. eigenvalues --    4.38820   4.39991   4.41273   4.42816   4.43580
 Alpha virt. eigenvalues --    4.44712   4.45552   4.46574   4.48979   4.49079
 Alpha virt. eigenvalues --    4.49513   4.50026   4.51515   4.54716   4.54824
 Alpha virt. eigenvalues --    4.55594   4.55885   4.56631   4.58374   4.61384
 Alpha virt. eigenvalues --    4.63517   4.63936   4.65236   4.66248   4.68555
 Alpha virt. eigenvalues --    4.68804   4.71285   4.71867   4.72470   4.73095
 Alpha virt. eigenvalues --    4.74088   4.75495   4.76533   4.77639   4.77891
 Alpha virt. eigenvalues --    4.78525   4.80752   4.81159   4.83880   4.84327
 Alpha virt. eigenvalues --    4.86699   4.87653   4.88323   4.89158   4.90242
 Alpha virt. eigenvalues --    4.93082   4.93297   4.97621   4.99438   5.02627
 Alpha virt. eigenvalues --    5.03723   5.09944   5.16883   5.23093   5.25907
 Alpha virt. eigenvalues --    5.32268   5.33186   5.35546   5.35921   5.41735
 Alpha virt. eigenvalues --    5.44087   5.47253   5.48882   5.49419   5.51495
 Alpha virt. eigenvalues --    5.54210   5.58174   5.66966   5.73660   5.83866
 Alpha virt. eigenvalues --    5.91835   5.95388   6.00296   6.01951   6.06999
 Alpha virt. eigenvalues --    6.13401   6.19387   6.57135   7.13064   7.35452
 Alpha virt. eigenvalues --    9.40200  11.28965  11.33184  11.41169  11.74538
 Alpha virt. eigenvalues --   11.89334  11.92443  12.12562  12.53267  12.71020
 Alpha virt. eigenvalues --   13.64249  13.80486
          Condensed to atoms (all electrons):
               1          2          3          4          5          6
     1  C    4.934337   0.413560  -0.043808   0.001433  -0.000064   0.000000
     2  C    0.413560   4.797782   0.309625  -0.015788   0.001139  -0.000020
     3  S   -0.043808   0.309625  15.832752   0.296201  -0.029684   0.000897
     4  C    0.001433  -0.015788   0.296201   4.881827   0.387377  -0.013072
     5  C   -0.000064   0.001139  -0.029684   0.387377   5.065669   0.354553
     6  C    0.000000  -0.000020   0.000897  -0.013072   0.354553   4.413351
     7  O    0.000000   0.000003   0.000217  -0.000840  -0.063069   0.337999
     8  O    0.000000   0.000002  -0.000004   0.001678  -0.047802   0.339446
     9  N   -0.000000  -0.000004   0.000453  -0.004119  -0.000859  -0.057990
    10  C   -0.000000   0.000000  -0.000123   0.002624  -0.070006   0.371525
    11  C   -0.000000   0.000000  -0.000006   0.000415  -0.002391  -0.023178
    12  C    0.000000  -0.000000   0.000002  -0.000144   0.003662  -0.007703
    13  H    0.371272  -0.023888   0.004122  -0.000078   0.000000  -0.000000
    14  H    0.383448  -0.029615   0.000644   0.000069   0.000003   0.000000
    15  H    0.383991  -0.029829  -0.001114   0.000081   0.000002   0.000000
    16  H   -0.030022   0.371279  -0.052846  -0.002912   0.000121   0.000005
    17  H   -0.031784   0.375860  -0.051440  -0.000330   0.000095   0.000006
    18  H    0.000176  -0.002399  -0.062630   0.366126  -0.031658  -0.001834
    19  H    0.000047  -0.000661  -0.051458   0.365462  -0.036145  -0.000117
    20  H    0.000003   0.000092  -0.002814  -0.030715   0.347722  -0.013806
    21  H    0.000002   0.000046   0.001566  -0.030267   0.341042  -0.015224
    22  H   -0.000000  -0.000001  -0.000070   0.003208  -0.003093  -0.067899
    23  H    0.000000   0.000000  -0.000025   0.000347   0.000115   0.001308
    24  H    0.000001  -0.000049  -0.000391  -0.002673   0.001463   0.000236
    25  H    0.000000   0.000000  -0.000002   0.000039  -0.001373  -0.030294
    26  H    0.000000  -0.000000  -0.000003  -0.000031   0.000249  -0.006330
    27  H    0.000000  -0.000000   0.000003  -0.000075  -0.001172  -0.003229
    28  H   -0.000000   0.000000  -0.000000  -0.000005   0.000003   0.002390
    29  H   -0.000000  -0.000000   0.000000  -0.000001   0.000437  -0.004911
    30  H   -0.000000   0.000000  -0.000000   0.000001  -0.000082   0.002174
    31  H    0.000000  -0.000000   0.000000  -0.000000   0.000398  -0.002052
               7          8          9         10         11         12
     1  C    0.000000   0.000000  -0.000000  -0.000000  -0.000000   0.000000
     2  C    0.000003   0.000002  -0.000004   0.000000   0.000000  -0.000000
     3  S    0.000217  -0.000004   0.000453  -0.000123  -0.000006   0.000002
     4  C   -0.000840   0.001678  -0.004119   0.002624   0.000415  -0.000144
     5  C   -0.063069  -0.047802  -0.000859  -0.070006  -0.002391   0.003662
     6  C    0.337999   0.339446  -0.057990   0.371525  -0.023178  -0.007703
     7  O    7.931227  -0.050092  -0.005479  -0.017893  -0.003962  -0.004812
     8  O   -0.050092   7.970812   0.194435  -0.019921   0.001345  -0.004536
     9  N   -0.005479   0.194435   6.622897   0.002311  -0.000102   0.000476
    10  C   -0.017893  -0.019921   0.002311   4.712133   0.391582   0.385437
    11  C   -0.003962   0.001345  -0.000102   0.391582   5.015034  -0.046873
    12  C   -0.004812  -0.004536   0.000476   0.385437  -0.046873   5.006021
    13  H    0.000000   0.000000  -0.000000   0.000000   0.000000  -0.000000
    14  H   -0.000000  -0.000000   0.000000   0.000000  -0.000000   0.000000
    15  H    0.000000  -0.000000  -0.000000   0.000000   0.000000   0.000000
    16  H    0.000000  -0.000001  -0.000030   0.000000  -0.000000   0.000000
    17  H   -0.000001   0.000000   0.000002   0.000000  -0.000000   0.000000
    18  H    0.000052   0.000140  -0.004940  -0.000021  -0.000005   0.000000
    19  H    0.008263   0.000421  -0.000760   0.000311  -0.000000  -0.000001
    20  H    0.000383   0.002808  -0.000218  -0.004715  -0.000833   0.000033
    21  H    0.002874   0.000409  -0.000244   0.001207   0.000069  -0.000080
    22  H    0.316925  -0.007476   0.033745   0.006461   0.000145   0.000102
    23  H    0.000586  -0.024963   0.325044  -0.000125   0.000002   0.000029
    24  H    0.000373  -0.038075   0.312307  -0.000362   0.000003   0.000011
    25  H    0.002155  -0.001410  -0.000121   0.359691  -0.043886  -0.042086
    26  H    0.005898   0.000057  -0.000001  -0.023057   0.375962  -0.003762
    27  H   -0.000084   0.000012   0.000000  -0.023817   0.367375   0.005222
    28  H    0.000156  -0.000021   0.000001  -0.020702   0.370925  -0.004906
    29  H    0.008019  -0.000190  -0.000029  -0.026699  -0.003944   0.374620
    30  H    0.000216   0.000244   0.000002  -0.022681  -0.004840   0.368869
    31  H    0.000024   0.008522  -0.000306  -0.022252   0.004903   0.365840
              13         14         15         16         17         18
     1  C    0.371272   0.383448   0.383991  -0.030022  -0.031784   0.000176
     2  C   -0.023888  -0.029615  -0.029829   0.371279   0.375860  -0.002399
     3  S    0.004122   0.000644  -0.001114  -0.052846  -0.051440  -0.062630
     4  C   -0.000078   0.000069   0.000081  -0.002912  -0.000330   0.366126
     5  C    0.000000   0.000003   0.000002   0.000121   0.000095  -0.031658
     6  C   -0.000000   0.000000   0.000000   0.000005   0.000006  -0.001834
     7  O    0.000000  -0.000000   0.000000   0.000000  -0.000001   0.000052
     8  O    0.000000  -0.000000  -0.000000  -0.000001   0.000000   0.000140
     9  N   -0.000000   0.000000  -0.000000  -0.000030   0.000002  -0.004940
    10  C    0.000000   0.000000   0.000000   0.000000   0.000000  -0.000021
    11  C    0.000000  -0.000000   0.000000  -0.000000  -0.000000  -0.000005
    12  C   -0.000000   0.000000   0.000000   0.000000   0.000000   0.000000
    13  H    0.600856  -0.031574  -0.030876  -0.001884  -0.002961  -0.000002
    14  H   -0.031574   0.574879  -0.031061  -0.005541   0.005436  -0.000019
    15  H   -0.030876  -0.031061   0.570730   0.005541  -0.003922   0.000025
    16  H   -0.001884  -0.005541   0.005541   0.640126  -0.045947   0.009849
    17  H   -0.002961   0.005436  -0.003922  -0.045947   0.629333  -0.001152
    18  H   -0.000002  -0.000019   0.000025   0.009849  -0.001152   0.661251
    19  H    0.000004   0.000008  -0.000008  -0.000857   0.005221  -0.044335
    20  H    0.000000   0.000000  -0.000000   0.000013  -0.000008   0.006423
    21  H    0.000000  -0.000000   0.000000  -0.000009   0.000006  -0.006536
    22  H    0.000000  -0.000000   0.000000  -0.000001   0.000002  -0.000223
    23  H    0.000000   0.000000   0.000000   0.000002  -0.000000   0.000392
    24  H   -0.000000   0.000000  -0.000000   0.000093  -0.000006   0.007696
    25  H    0.000000  -0.000000  -0.000000   0.000000  -0.000000  -0.000002
    26  H   -0.000000   0.000000  -0.000000   0.000000   0.000000   0.000001
    27  H   -0.000000   0.000000   0.000000  -0.000000   0.000000  -0.000002
    28  H    0.000000   0.000000  -0.000000  -0.000000   0.000000   0.000000
    29  H   -0.000000   0.000000  -0.000000  -0.000000   0.000000  -0.000000
    30  H    0.000000  -0.000000  -0.000000   0.000000   0.000000  -0.000000
    31  H   -0.000000  -0.000000   0.000000   0.000000  -0.000000   0.000000
              19         20         21         22         23         24
     1  C    0.000047   0.000003   0.000002  -0.000000   0.000000   0.000001
     2  C   -0.000661   0.000092   0.000046  -0.000001   0.000000  -0.000049
     3  S   -0.051458  -0.002814   0.001566  -0.000070  -0.000025  -0.000391
     4  C    0.365462  -0.030715  -0.030267   0.003208   0.000347  -0.002673
     5  C   -0.036145   0.347722   0.341042  -0.003093   0.000115   0.001463
     6  C   -0.000117  -0.013806  -0.015224  -0.067899   0.001308   0.000236
     7  O    0.008263   0.000383   0.002874   0.316925   0.000586   0.000373
     8  O    0.000421   0.002808   0.000409  -0.007476  -0.024963  -0.038075
     9  N   -0.000760  -0.000218  -0.000244   0.033745   0.325044   0.312307
    10  C    0.000311  -0.004715   0.001207   0.006461  -0.000125  -0.000362
    11  C   -0.000000  -0.000833   0.000069   0.000145   0.000002   0.000003
    12  C   -0.000001   0.000033  -0.000080   0.000102   0.000029   0.000011
    13  H    0.000004   0.000000   0.000000   0.000000   0.000000  -0.000000
    14  H    0.000008   0.000000  -0.000000  -0.000000   0.000000   0.000000
    15  H   -0.000008  -0.000000   0.000000   0.000000   0.000000  -0.000000
    16  H   -0.000857   0.000013  -0.000009  -0.000001   0.000002   0.000093
    17  H    0.005221  -0.000008   0.000006   0.000002  -0.000000  -0.000006
    18  H   -0.044335   0.006423  -0.006536  -0.000223   0.000392   0.007696
    19  H    0.627529  -0.003930   0.006357   0.002492  -0.000013  -0.000435
    20  H   -0.003930   0.600792  -0.035272  -0.000257   0.000011  -0.000095
    21  H    0.006357  -0.035272   0.618512  -0.000170  -0.000022  -0.000126
    22  H    0.002492  -0.000257  -0.000170   0.427140  -0.000956  -0.001703
    23  H   -0.000013   0.000011  -0.000022  -0.000956   0.466153  -0.031290
    24  H   -0.000435  -0.000095  -0.000126  -0.001703  -0.031290   0.496743
    25  H   -0.000002   0.000368   0.003110  -0.000238  -0.000001  -0.000010
    26  H    0.000003   0.001120   0.000040  -0.000259  -0.000000  -0.000000
    27  H    0.000016   0.004426   0.000591  -0.000022   0.000000   0.000000
    28  H    0.000000  -0.000108  -0.000029   0.000007  -0.000000  -0.000000
    29  H   -0.000002  -0.000010  -0.000005  -0.000347  -0.000004   0.000001
    30  H   -0.000000  -0.000009  -0.000005   0.000010  -0.000002   0.000000
    31  H   -0.000000  -0.000017  -0.000012  -0.000027  -0.000002   0.000028
              25         26         27         28         29         30
     1  C    0.000000   0.000000   0.000000  -0.000000  -0.000000  -0.000000
     2  C    0.000000  -0.000000  -0.000000   0.000000  -0.000000   0.000000
     3  S   -0.000002  -0.000003   0.000003  -0.000000   0.000000  -0.000000
     4  C    0.000039  -0.000031  -0.000075  -0.000005  -0.000001   0.000001
     5  C   -0.001373   0.000249  -0.001172   0.000003   0.000437  -0.000082
     6  C   -0.030294  -0.006330  -0.003229   0.002390  -0.004911   0.002174
     7  O    0.002155   0.005898  -0.000084   0.000156   0.008019   0.000216
     8  O   -0.001410   0.000057   0.000012  -0.000021  -0.000190   0.000244
     9  N   -0.000121  -0.000001   0.000000   0.000001  -0.000029   0.000002
    10  C    0.359691  -0.023057  -0.023817  -0.020702  -0.026699  -0.022681
    11  C   -0.043886   0.375962   0.367375   0.370925  -0.003944  -0.004840
    12  C   -0.042086  -0.003762   0.005222  -0.004906   0.374620   0.368869
    13  H    0.000000  -0.000000  -0.000000   0.000000  -0.000000   0.000000
    14  H   -0.000000   0.000000   0.000000   0.000000   0.000000  -0.000000
    15  H   -0.000000  -0.000000   0.000000  -0.000000  -0.000000  -0.000000
    16  H    0.000000   0.000000  -0.000000  -0.000000  -0.000000   0.000000
    17  H   -0.000000   0.000000   0.000000   0.000000   0.000000   0.000000
    18  H   -0.000002   0.000001  -0.000002   0.000000  -0.000000  -0.000000
    19  H   -0.000002   0.000003   0.000016   0.000000  -0.000002  -0.000000
    20  H    0.000368   0.001120   0.004426  -0.000108  -0.000010  -0.000009
    21  H    0.003110   0.000040   0.000591  -0.000029  -0.000005  -0.000005
    22  H   -0.000238  -0.000259  -0.000022   0.000007  -0.000347   0.000010
    23  H   -0.000001  -0.000000   0.000000  -0.000000  -0.000004  -0.000002
    24  H   -0.000010  -0.000000   0.000000  -0.000000   0.000001   0.000000
    25  H    0.673573   0.005570  -0.003136  -0.003071   0.005749  -0.003467
    26  H    0.005570   0.569588  -0.032362  -0.031511   0.004238  -0.000154
    27  H   -0.003136  -0.032362   0.604066  -0.030967  -0.000027   0.000002
    28  H   -0.003071  -0.031511  -0.030967   0.603109  -0.000186   0.003795
    29  H    0.005749   0.004238  -0.000027  -0.000186   0.578178  -0.033232
    30  H   -0.003467  -0.000154   0.000002   0.003795  -0.033232   0.619918
    31  H   -0.002337  -0.000037  -0.000221  -0.000020  -0.028880  -0.032741
              31
     1  C    0.000000
     2  C   -0.000000
     3  S    0.000000
     4  C   -0.000000
     5  C    0.000398
     6  C   -0.002052
     7  O    0.000024
     8  O    0.008522
     9  N   -0.000306
    10  C   -0.022252
    11  C    0.004903
    12  C    0.365840
    13  H   -0.000000
    14  H   -0.000000
    15  H    0.000000
    16  H    0.000000
    17  H   -0.000000
    18  H    0.000000
    19  H   -0.000000
    20  H   -0.000017
    21  H   -0.000012
    22  H   -0.000027
    23  H   -0.000002
    24  H    0.000028
    25  H   -0.002337
    26  H   -0.000037
    27  H   -0.000221
    28  H   -0.000020
    29  H   -0.028880
    30  H   -0.032741
    31  H    0.593411
 Mulliken charges:
               1
     1  C   -0.382591
     2  C   -0.167134
     3  S   -0.150064
     4  C   -0.205838
     5  C   -0.216651
     6  C    0.423768
     7  O   -0.469138
     8  O   -0.325841
     9  N   -0.416472
    10  C    0.019090
    11  C   -0.397741
    12  C   -0.395420
    13  H    0.115009
    14  H    0.133323
    15  H    0.136440
    16  H    0.113020
    17  H    0.121590
    18  H    0.103627
    19  H    0.122589
    20  H    0.128611
    21  H    0.112170
    22  H    0.292504
    23  H    0.263413
    24  H    0.256259
    25  H    0.081178
    26  H    0.134779
    27  H    0.113398
    28  H    0.111140
    29  H    0.127226
    30  H    0.101982
    31  H    0.115778
 Sum of Mulliken charges =  -0.00000
 Mulliken charges with hydrogens summed into heavy atoms:
               1
     1  C    0.002180
     2  C    0.067475
     3  S   -0.150064
     4  C    0.020378
     5  C    0.024129
     6  C    0.423768
     7  O   -0.176634
     8  O   -0.325841
     9  N    0.103200
    10  C    0.100268
    11  C   -0.038424
    12  C   -0.050434
 Electronic spatial extent (au):  <R**2>=           3805.7573
 Charge=             -0.0000 electrons
 Dipole moment (field-independent basis, Debye):
    X=              1.3094    Y=              2.4793    Z=             -0.6653  Tot=              2.8817
 Quadrupole moment (field-independent basis, Debye-Ang):
   XX=            -81.8405   YY=            -77.1291   ZZ=            -84.7943
   XY=              5.5542   XZ=              3.8253   YZ=             -1.1554
 Traceless Quadrupole moment (field-independent basis, Debye-Ang):
   XX=             -0.5859   YY=              4.1255   ZZ=             -3.5397
   XY=              5.5542   XZ=              3.8253   YZ=             -1.1554
 Octapole moment (field-independent basis, Debye-Ang**2):
  XXX=             22.3793  YYY=             44.3710  ZZZ=              4.9492  XYY=            -12.6096
  XXY=              9.5712  XXZ=              1.6324  XZZ=             -0.1540  YZZ=              7.5487
  YYZ=             -7.4266  XYZ=             -1.8875
 Hexadecapole moment (field-independent basis, Debye-Ang**3):
 XXXX=          -3946.4240 YYYY=           -663.2557 ZZZZ=           -249.6325 XXXY=             32.6288
 XXXZ=             26.1068 YYYX=            -42.1426 YYYZ=            -32.1002 ZZZX=              2.2954
 ZZZY=              2.5536 XXYY=           -798.9625 XXZZ=           -729.9402 YYZZ=           -167.5936
 XXYZ=              1.4882 YYXZ=              2.1771 ZZXY=             -0.0649
 N-N= 8.801447569057D+02 E-N=-3.921580837155D+03  KE= 9.144189271970D+02
 PrsmSu:  requested number of processors reduced to:  13 ShMem   1 Linda.
 Calling FoFJK, ICntrl=      2127 FMM=F ISym2X=0 I1Cent= 0 IOpClX= 0 NMat=1 NMatS=1 NMatT=0.
 ***** Axes restored to original set *****
 -------------------------------------------------------------------
 Center     Atomic                   Forces (Hartrees/Bohr)
 Number     Number              X              Y              Z
 -------------------------------------------------------------------
      1        6          -0.008481696    0.001843463    0.003287745
      2        6          -0.001239881    0.000609105   -0.001260134
      3       16          -0.002547000    0.000043514   -0.002720037
      4        6           0.000914407   -0.002426460    0.001212524
      5        6          -0.001160342    0.000270086    0.001953408
      6        6           0.000078555    0.009182601   -0.003924138
      7        8          -0.003486780   -0.016338975    0.005074511
      8        8           0.003370317    0.003841260   -0.007891862
      9        7          -0.003520760   -0.016764490   -0.003839627
     10        6           0.010446094   -0.000565632    0.000676798
     11        6          -0.007340902    0.001936920   -0.000524491
     12        6           0.004076190   -0.000207583    0.005590343
     13        1          -0.000722362    0.000616946    0.000683346
     14        1          -0.000360625    0.001184701   -0.001323649
     15        1          -0.000579386   -0.000575669    0.000867827
     16        1           0.002030163   -0.001026805   -0.002323024
     17        1           0.001190981   -0.000469401   -0.000151300
     18        1           0.003505340    0.001808773    0.002813530
     19        1           0.000848118   -0.000556720    0.000456440
     20        1           0.002379594   -0.002683563   -0.000933081
     21        1           0.000429301    0.001459286   -0.001906249
     22        1           0.002973958    0.002253979    0.001267918
     23        1           0.004727180    0.004916344   -0.006037272
     24        1          -0.000709995    0.006132262    0.003767481
     25        1          -0.003421333    0.003186833    0.002960785
     26        1          -0.000235131   -0.000362888    0.000920364
     27        1          -0.000302560    0.000985838   -0.001491952
     28        1           0.001931007   -0.000181118    0.002251268
     29        1          -0.001676798   -0.000200704    0.000941824
     30        1          -0.002344212    0.000392713   -0.000066475
     31        1          -0.000771441    0.001695382   -0.000332821
 -------------------------------------------------------------------
 Cartesian Forces:  Max     0.016764490 RMS     0.003885624

 GradGradGradGradGradGradGradGradGradGradGradGradGradGradGradGradGradGrad
 Berny optimization.
 FormGI is forming the generalized inverse of G from B-inverse, IUseBI=4.
 Internal  Forces:  Max     0.014286927 RMS     0.003974843
 Search for a local minimum.
 Step number   1 out of a maximum of  163
 All quantities printed in internal units (Hartrees-Bohrs-Radians)
 Mixed Optimization -- RFO/linear search
 Second derivative matrix not updated -- first step.
 ITU=  0
     Eigenvalues ---    0.00230   0.00230   0.00230   0.00230   0.00247
     Eigenvalues ---    0.00313   0.00385   0.00404   0.00583   0.01010
     Eigenvalues ---    0.01334   0.03286   0.03388   0.04464   0.04784
     Eigenvalues ---    0.04813   0.05078   0.05321   0.05333   0.05361
     Eigenvalues ---    0.05460   0.05468   0.05473   0.05490   0.05660
     Eigenvalues ---    0.05745   0.05926   0.06327   0.07073   0.08292
     Eigenvalues ---    0.08725   0.10751   0.11439   0.11473   0.12490
     Eigenvalues ---    0.13452   0.13725   0.16000   0.16000   0.16000
     Eigenvalues ---    0.16000   0.16000   0.16000   0.16000   0.16000
     Eigenvalues ---    0.16000   0.16000   0.16000   0.16401   0.17041
     Eigenvalues ---    0.17272   0.18405   0.21973   0.22046   0.22047
     Eigenvalues ---    0.24413   0.25000   0.25000   0.25212   0.26602
     Eigenvalues ---    0.27558   0.28584   0.29037   0.29533   0.30967
     Eigenvalues ---    0.33814   0.33903   0.34054   0.34100   0.34157
     Eigenvalues ---    0.34234   0.34237   0.34247   0.34268   0.34274
     Eigenvalues ---    0.34303   0.34392   0.34398   0.34423   0.34466
     Eigenvalues ---    0.35392   0.36060   0.38041   0.41412   0.43571
     Eigenvalues ---    0.44044   0.54252
 RFO step:  Lambda=-1.88872560D-02 EMin= 2.30000000D-03
 Linear search not attempted -- first point.
 Iteration  1 RMS(Cart)=  0.20324216 RMS(Int)=  0.01777427
 Iteration  2 RMS(Cart)=  0.03653621 RMS(Int)=  0.00180969
 Iteration  3 RMS(Cart)=  0.00192274 RMS(Int)=  0.00050823
 Iteration  4 RMS(Cart)=  0.00000730 RMS(Int)=  0.00050821
 Iteration  5 RMS(Cart)=  0.00000000 RMS(Int)=  0.00050821
 Variable       Old X    -DE/DX   Delta X   Delta X   Delta X     New X
                                 (Linear)    (Quad)   (Total)
    R1        2.86076   0.01047   0.00000   0.03186   0.03186   2.89262
    R2        2.06664   0.00108   0.00000   0.00299   0.00299   2.06963
    R3        2.07065  -0.00123   0.00000  -0.00341  -0.00341   2.06724
    R4        2.06937  -0.00068   0.00000  -0.00188  -0.00188   2.06749
    R5        3.44426   0.00295   0.00000   0.01121   0.01121   3.45546
    R6        2.07238  -0.00078   0.00000  -0.00218  -0.00218   2.07020
    R7        2.06881   0.00003   0.00000   0.00009   0.00009   2.06890
    R8        3.42372   0.01093   0.00000   0.04033   0.04033   3.46405
    R9        2.88905   0.00400   0.00000   0.01273   0.01273   2.90178
   R10        2.05043   0.00271   0.00000   0.00728   0.00728   2.05771
   R11        2.06673  -0.00030   0.00000  -0.00083  -0.00083   2.06590
   R12        2.93115   0.00379   0.00000   0.01288   0.01288   2.94402
   R13        2.06622  -0.00056   0.00000  -0.00154  -0.00154   2.06468
   R14        2.07494  -0.00189   0.00000  -0.00528  -0.00528   2.06965
   R15        2.69678  -0.01429   0.00000  -0.03299  -0.03299   2.66379
   R16        2.74305  -0.01023   0.00000  -0.02563  -0.02563   2.71742
   R17        2.95300  -0.01166   0.00000  -0.04094  -0.04094   2.91206
   R18        1.82503   0.00182   0.00000   0.00325   0.00325   1.82828
   R19        2.77288  -0.00838   0.00000  -0.02207  -0.02207   2.75081
   R20        1.93671  -0.00253   0.00000  -0.00557  -0.00557   1.93115
   R21        1.93102   0.00025   0.00000   0.00054   0.00054   1.93155
   R22        2.89926   0.00130   0.00000   0.00420   0.00420   2.90346
   R23        2.90878  -0.00076   0.00000  -0.00250  -0.00250   2.90629
   R24        2.07645  -0.00125   0.00000  -0.00349  -0.00349   2.07296
   R25        2.06870  -0.00063   0.00000  -0.00175  -0.00175   2.06695
   R26        2.06551   0.00038   0.00000   0.00105   0.00105   2.06656
   R27        2.06915  -0.00067   0.00000  -0.00186  -0.00186   2.06729
   R28        2.06932  -0.00104   0.00000  -0.00287  -0.00287   2.06644
   R29        2.07161  -0.00099   0.00000  -0.00274  -0.00274   2.06887
   R30        2.06822  -0.00108   0.00000  -0.00299  -0.00299   2.06523
    A1        1.92924   0.00041   0.00000   0.00347   0.00345   1.93269
    A2        1.93504   0.00078   0.00000   0.00414   0.00413   1.93917
    A3        1.93772   0.00092   0.00000   0.00423   0.00422   1.94195
    A4        1.88189  -0.00031   0.00000   0.00006   0.00004   1.88194
    A5        1.88300  -0.00063   0.00000  -0.00310  -0.00311   1.87990
    A6        1.89512  -0.00128   0.00000  -0.00931  -0.00931   1.88581
    A7        1.87691   0.00992   0.00000   0.04395   0.04384   1.92075
    A8        1.91929   0.00042   0.00000   0.00983   0.01004   1.92933
    A9        1.93114  -0.00155   0.00000   0.00053   0.00051   1.93165
   A10        1.93428  -0.00576   0.00000  -0.03373  -0.03409   1.90020
   A11        1.91143  -0.00328   0.00000  -0.01211  -0.01251   1.89892
   A12        1.89110   0.00016   0.00000  -0.00870  -0.00898   1.88212
   A13        1.70971   0.01032   0.00000   0.03839   0.03839   1.74810
   A14        1.93835  -0.00565   0.00000  -0.02175  -0.02213   1.91622
   A15        1.80532   0.00463   0.00000   0.04403   0.04403   1.84934
   A16        1.90565   0.00119   0.00000  -0.00937  -0.01001   1.89564
   A17        1.95289   0.00223   0.00000   0.02113   0.02120   1.97409
   A18        1.94551  -0.00032   0.00000  -0.01767  -0.01803   1.92748
   A19        1.91082  -0.00175   0.00000  -0.01284  -0.01268   1.89815
   A20        2.01836   0.01305   0.00000   0.06082   0.06039   2.07875
   A21        1.85155  -0.00211   0.00000  -0.00831  -0.00728   1.84427
   A22        1.90603  -0.00295   0.00000   0.00701   0.00597   1.91200
   A23        1.90224  -0.00665   0.00000  -0.04776  -0.04759   1.85465
   A24        1.89123  -0.00295   0.00000   0.00011  -0.00141   1.88982
   A25        1.89089   0.00112   0.00000  -0.01670  -0.01710   1.87380
   A26        1.92433   0.00131   0.00000   0.03114   0.03080   1.95513
   A27        1.91923   0.01051   0.00000   0.07769   0.07757   1.99680
   A28        1.93386  -0.00113   0.00000  -0.00090   0.00042   1.93428
   A29        1.94871  -0.00342   0.00000  -0.02724  -0.03085   1.91785
   A30        1.88945   0.00082   0.00000  -0.01657  -0.01781   1.87164
   A31        1.84689  -0.00866   0.00000  -0.06974  -0.07036   1.77653
   A32        1.81403   0.00458   0.00000   0.02562   0.02562   1.83965
   A33        1.95578  -0.00126   0.00000  -0.00469  -0.00469   1.95109
   A34        1.75431  -0.00261   0.00000  -0.00409  -0.00437   1.74994
   A35        1.74505   0.00692   0.00000   0.07419   0.07358   1.81862
   A36        1.76331   0.00518   0.00000   0.05031   0.04975   1.81307
   A37        1.97562  -0.00074   0.00000  -0.00704  -0.00672   1.96890
   A38        1.95469  -0.00465   0.00000  -0.02761  -0.02751   1.92718
   A39        1.88885  -0.00048   0.00000  -0.02595  -0.02582   1.86303
   A40        1.88868   0.00518   0.00000   0.03374   0.03345   1.92212
   A41        1.89041  -0.00043   0.00000   0.00954   0.00880   1.89921
   A42        1.86122   0.00131   0.00000   0.01982   0.01899   1.88021
   A43        1.94148  -0.00103   0.00000  -0.00784  -0.00797   1.93352
   A44        1.95182   0.00349   0.00000   0.02301   0.02309   1.97491
   A45        1.93623  -0.00407   0.00000  -0.02421  -0.02426   1.91197
   A46        1.88994  -0.00091   0.00000  -0.00239  -0.00238   1.88755
   A47        1.88508   0.00165   0.00000   0.00255   0.00227   1.88736
   A48        1.85581   0.00098   0.00000   0.00945   0.00960   1.86541
   A49        1.94484  -0.00164   0.00000  -0.01124  -0.01129   1.93354
   A50        1.93181  -0.00241   0.00000  -0.01173  -0.01176   1.92005
   A51        1.94719   0.00015   0.00000   0.00116   0.00116   1.94835
   A52        1.87778   0.00203   0.00000   0.01070   0.01063   1.88841
   A53        1.88784   0.00030   0.00000  -0.00150  -0.00153   1.88631
   A54        1.87128   0.00182   0.00000   0.01409   0.01411   1.88539
    D1       -3.07002  -0.00069   0.00000  -0.01220  -0.01216  -3.08219
    D2        1.10538  -0.00001   0.00000  -0.00386  -0.00398   1.10140
    D3       -0.98311   0.00051   0.00000   0.00032   0.00042  -0.98269
    D4        1.12723  -0.00107   0.00000  -0.01720  -0.01718   1.11005
    D5       -0.98055  -0.00039   0.00000  -0.00886  -0.00899  -0.98954
    D6       -3.06905   0.00013   0.00000  -0.00468  -0.00459  -3.07364
    D7       -0.98096  -0.00060   0.00000  -0.01106  -0.01102  -0.99198
    D8       -3.08873   0.00008   0.00000  -0.00272  -0.00284  -3.09157
    D9        1.10595   0.00059   0.00000   0.00146   0.00156   1.10752
   D10       -3.06580  -0.00076   0.00000  -0.01745  -0.01722  -3.08302
   D11       -0.96749   0.00256   0.00000   0.00218   0.00158  -0.96591
   D12        1.11795  -0.00292   0.00000  -0.03730  -0.03694   1.08102
   D13        3.00059   0.00253   0.00000   0.05456   0.05443   3.05502
   D14        0.90297   0.00002   0.00000   0.01473   0.01471   0.91768
   D15       -1.13034  -0.00085   0.00000   0.01122   0.01136  -1.11898
   D16        3.07575  -0.00440   0.00000  -0.08567  -0.08568   2.99006
   D17        0.96499  -0.00253   0.00000  -0.05675  -0.05672   0.90827
   D18       -1.06949  -0.00126   0.00000  -0.03626  -0.03583  -1.10532
   D19       -1.19979  -0.00083   0.00000  -0.03171  -0.03183  -1.23161
   D20        2.97264   0.00104   0.00000  -0.00279  -0.00286   2.96978
   D21        0.93816   0.00231   0.00000   0.01771   0.01803   0.95619
   D22        0.94653  -0.00171   0.00000  -0.04598  -0.04633   0.90020
   D23       -1.16423   0.00015   0.00000  -0.01706  -0.01737  -1.18159
   D24        3.08448   0.00143   0.00000   0.00344   0.00353   3.08801
   D25       -0.96791   0.00058   0.00000   0.04236   0.04200  -0.92591
   D26        1.18825   0.00433   0.00000   0.08220   0.08330   1.27155
   D27       -3.05933  -0.00057   0.00000   0.04340   0.04384  -3.01549
   D28        1.11526   0.00158   0.00000   0.03650   0.03530   1.15056
   D29       -3.01177   0.00533   0.00000   0.07634   0.07660  -2.93517
   D30       -0.97616   0.00043   0.00000   0.03753   0.03713  -0.93903
   D31       -3.11369  -0.00243   0.00000  -0.00992  -0.01061  -3.12430
   D32       -0.95753   0.00132   0.00000   0.02992   0.03068  -0.92685
   D33        1.07807  -0.00359   0.00000  -0.00888  -0.00878   1.06929
   D34        1.34427   0.00546   0.00000   0.07620   0.07556   1.41983
   D35       -0.79467  -0.00654   0.00000  -0.02632  -0.02543  -0.82010
   D36       -2.82085   0.00539   0.00000   0.08363   0.08338  -2.73746
   D37       -1.31699  -0.00585   0.00000  -0.14099  -0.14147  -1.45846
   D38        0.82487   0.00088   0.00000  -0.06516  -0.06655   0.75832
   D39        2.87683  -0.00509   0.00000  -0.14092  -0.13906   2.73778
   D40        1.02417  -0.00279   0.00000  -0.00035  -0.00046   1.02371
   D41       -3.11801  -0.00006   0.00000   0.01780   0.01761  -3.10040
   D42       -1.07132  -0.00145   0.00000   0.00989   0.00994  -1.06138
   D43       -1.08800  -0.00424   0.00000  -0.02756  -0.02719  -1.11519
   D44        1.05301  -0.00151   0.00000  -0.00942  -0.00912   1.04389
   D45        3.09969  -0.00290   0.00000  -0.01733  -0.01679   3.08291
   D46        3.10390   0.00404   0.00000   0.05077   0.05041  -3.12887
   D47       -1.03827   0.00677   0.00000   0.06891   0.06848  -0.96979
   D48        1.00841   0.00538   0.00000   0.06100   0.06082   1.06923
   D49       -2.78074   0.00979   0.00000   0.32120   0.32160  -2.45914
   D50        1.69930   0.00336   0.00000   0.25247   0.25207   1.95137
   D51       -1.78834  -0.00782   0.00000  -0.08829  -0.08876  -1.87710
   D52        1.03798  -0.00002   0.00000   0.00356   0.00348   1.04146
   D53       -1.07769  -0.00056   0.00000  -0.00390  -0.00395  -1.08164
   D54        3.13679  -0.00136   0.00000  -0.01477  -0.01465   3.12214
   D55       -1.13926   0.00262   0.00000   0.01886   0.01885  -1.12041
   D56        3.02825   0.00209   0.00000   0.01140   0.01142   3.03968
   D57        0.95956   0.00128   0.00000   0.00054   0.00071   0.96027
   D58        3.13258  -0.00139   0.00000  -0.02695  -0.02708   3.10549
   D59        1.01690  -0.00193   0.00000  -0.03441  -0.03451   0.98240
   D60       -1.05179  -0.00273   0.00000  -0.04527  -0.04522  -1.09701
   D61       -1.08328  -0.00056   0.00000  -0.01137  -0.01135  -1.09464
   D62        3.11104  -0.00043   0.00000  -0.00962  -0.00965   3.10139
   D63        1.02883  -0.00121   0.00000  -0.02032  -0.02031   1.00852
   D64        1.10635  -0.00095   0.00000  -0.01485  -0.01511   1.09124
   D65       -0.98251  -0.00081   0.00000  -0.01311  -0.01341  -0.99592
   D66       -3.06472  -0.00159   0.00000  -0.02380  -0.02407  -3.08879
   D67        3.13672   0.00180   0.00000   0.02320   0.02349  -3.12297
   D68        1.04786   0.00193   0.00000   0.02494   0.02520   1.07306
   D69       -1.03435   0.00115   0.00000   0.01425   0.01454  -1.01981
         Item               Value     Threshold  Converged?
 Maximum Force            0.014287     0.000450     NO 
 RMS     Force            0.003975     0.000300     NO 
 Maximum Displacement     1.294032     0.001800     NO 
 RMS     Displacement     0.226576     0.001200     NO 
 Predicted change in Energy=-1.265491D-02
 GradGradGradGradGradGradGradGradGradGradGradGradGradGradGradGradGradGrad

                          Input orientation:                          
 ---------------------------------------------------------------------
 Center     Atomic      Atomic             Coordinates (Angstroms)
 Number     Number       Type             X           Y           Z
 ---------------------------------------------------------------------
      1          6           0        0.755431    0.172928   -0.223116
      2          6           0        2.283591    0.084664   -0.225975
      3         16           0        2.845177   -1.021161   -1.569619
      4          6           0        4.652223   -1.012104   -1.261810
      5          6           0        5.347201   -1.993665   -2.216525
      6          6           0        6.903529   -2.011008   -2.284549
      7          8           0        7.436379   -0.728325   -2.524986
      8          8           0        7.541931   -2.598784   -1.137901
      9          7           0        7.685536   -1.642374   -0.049961
     10          6           0        7.392021   -2.928940   -3.421849
     11          6           0        6.859188   -2.505682   -4.799386
     12          6           0        8.928777   -2.985351   -3.443276
     13          1           0        0.409263    0.879448    0.538762
     14          1           0        0.305048   -0.800228   -0.006727
     15          1           0        0.375883    0.514477   -1.190726
     16          1           0        2.647855   -0.306359    0.730341
     17          1           0        2.727663    1.074265   -0.374664
     18          1           0        4.778539   -1.274638   -0.212616
     19          1           0        5.027669    0.002698   -1.417892
     20          1           0        5.000116   -1.727274   -3.217678
     21          1           0        5.000987   -3.012160   -2.010864
     22          1           0        7.445215   -0.288093   -1.663509
     23          1           0        8.612302   -1.898302    0.296336
     24          1           0        7.049973   -1.987148    0.672499
     25          1           0        7.023901   -3.936982   -3.194555
     26          1           0        7.177777   -1.488031   -5.042800
     27          1           0        5.768684   -2.547286   -4.869960
     28          1           0        7.253068   -3.178564   -5.566746
     29          1           0        9.350517   -1.997402   -3.647891
     30          1           0        9.267612   -3.670722   -4.226881
     31          1           0        9.332406   -3.335577   -2.489966
 ---------------------------------------------------------------------
                    Distance matrix (angstroms):
                    1          2          3          4          5
     1  C    0.000000
     2  C    1.530709   0.000000
     3  S    2.757890   1.828553   0.000000
     4  C    4.203353   2.808251   1.833096   0.000000
     5  C    5.454554   4.203267   2.761227   1.535558   0.000000
     6  C    6.842382   5.474797   4.238059   2.666868   1.557910
     7  O    7.123618   5.700669   4.698681   3.070450   2.461888
     8  O    7.387544   5.973495   4.973407   3.298988   2.519214
     9  N    7.166007   5.674033   5.111197   3.326680   3.207057
    10  C    7.993610   6.737320   5.267273   3.980769   2.551241
    11  C    8.085360   6.968649   5.361667   4.428985   3.036352
    12  C    9.335296   7.995907   6.661743   5.190512   3.913572
    13  H    1.095199   2.174767   3.740490   4.982243   6.342683
    14  H    1.093938   2.178471   2.990602   4.529687   5.633011
    15  H    1.094067   2.180558   2.932432   4.541210   5.661894
    16  H    2.172571   1.095503   2.416546   2.912771   4.337913
    17  H    2.173724   1.094815   2.415065   2.973869   4.434708
    18  H    4.275624   2.841241   2.375625   1.088893   2.203640
    19  H    4.439424   2.992883   2.415486   1.093226   2.173794
    20  H    5.531321   4.428647   2.803293   2.111378   1.092584
    21  H    5.600497   4.490032   2.967539   2.164011   1.095214
    22  H    6.858607   5.371017   4.659029   2.913135   2.759795
[...]
 512,-0.00141772,0.00059415,-0.00003376,-0.00002846,0.00000857,0.000050
 78,0.00009197,0.00008345,-0.02218416,-0.05777183,0.06996679,-0.0000034
 9,-0.00000598,-0.00000309,0.00000533,0.00001804,0.00000556,-0.00000084
 ,0.00000008,-0.00001563,-0.00000054,0.00011408,-0.00002712,0.00002687,
 -0.00019157,0.00021822,0.00056700,-0.00083530,0.00046510,-0.00008257,0
 .00008440,-0.00018767,-0.00012650,0.00014895,0.00000984,-0.00003760,-0
 .00000425,-0.00001742,0.00157424,0.00915049,-0.00102605,-0.06319606,-0
 .05847714,0.01327689,0.00091428,0.00100734,0.00028562,0.00000372,-0.00
 000154,-0.00000204,0.00000140,0.00000207,-0.00000050,-0.00000263,0.000
 00104,0.00000017,0.00000066,-0.00000276,-0.00000681,0.00000035,0.00000
 206,0.00000612,0.00001923,-0.00001593,-0.00002939,-0.00000568,0.000021
 87,0.00004801,-0.00026869,-0.00015741,-0.00004069,0.00004072,0.0001522
 0,-0.00018427,-0.00008098,0.00008502,0.00002418,0.00001186,0.00000004,
 -0.00001789,0.00000284,0.00000561,0.00001557,0.00023060,0.00050836,-0.
 00189601,0.06343060,0.00000368,0.00000384,0.00001054,-0.00001307,-0.00
 000279,-0.00001530,-0.00000006,0.00001654,0.00001331,-0.00001372,-0.00
 001581,-0.00001341,-0.00006740,0.00013398,0.00026711,0.00042284,-0.001
 09884,-0.00061186,0.00024320,0.00037355,-0.00108535,-0.00000741,0.0001
 1180,0.00024210,-0.00004871,0.00000702,-0.00009996,-0.00209978,-0.0066
 4992,0.00302444,-0.05860058,-0.28358757,0.05441751,-0.00028248,0.00013
 942,-0.00036689,-0.00000527,0.00000206,0.00000198,0.00000101,-0.000000
 32,-0.00000120,-0.00000157,0.00000030,-0.00000221,0.00000062,0.0000000
 2,-0.00000192,0.00000106,0.00000309,0.00000521,-0.00000093,-0.00000253
 ,-0.00000830,-0.00000368,0.00001631,0.00001568,-0.00015399,-0.00002183
 ,0.00008593,0.00004369,0.00005769,-0.00012701,-0.00005036,0.00026123,-
 0.00000053,-0.00000380,-0.00000140,0.00001948,0.00000909,0.00003837,0.
 00001681,0.00078638,0.00107575,0.00101189,0.06429700,0.30830930,0.0000
 0600,0.00000184,0.00000533,0.00000695,-0.00000567,-0.00001251,-0.00001
 341,-0.00002312,-0.00000353,0.00009355,-0.00005097,0.00004275,-0.00009
 977,-0.00011010,-0.00024076,0.00093854,0.00301725,0.00091327,-0.000057
 12,-0.00065803,0.00043381,-0.00014814,-0.00025927,0.00046442,-0.000017
 79,-0.00035775,0.00014317,0.00822136,0.03101346,-0.00866066,0.01287887
 ,0.05235122,-0.05761921,0.00131530,-0.00011853,0.00099255,-0.00000384,
 0.00000224,0.00000193,-0.00000204,-0.00000175,-0.00000101,0.00000030,-
 0.00000032,-0.00000131,-0.00000020,0.00000337,0.00000389,0.00000124,-0
 .00000276,0.00000090,-0.00002363,0.00000733,0.00002831,0.00003250,-0.0
 0006087,-0.00005776,0.00021294,0.00000176,0.00006191,-0.00024014,-0.00
 008265,0.00011111,-0.00025978,-0.00035903,-0.00018843,-0.00000184,-0.0
 0001471,-0.00000027,0.00001005,-0.00007024,0.00002747,-0.00226907,0.00
 121536,-0.00601737,-0.01341979,-0.06124197,0.06462820,0.00000876,0.000
 00661,0.00000755,0.00001880,-0.00003571,-0.00002559,0.00006543,-0.0000
 2160,-0.00003163,0.00046310,-0.00025164,0.00040662,-0.00076176,0.00120
 920,0.00055892,-0.00124473,0.00060887,0.00021389,0.00035145,-0.0000900
 7,-0.00017727,0.00037811,-0.00021894,-0.00009936,0.00004414,-0.0000236
 3,-0.00010894,-0.00770413,-0.00110808,0.00031435,-0.30345208,-0.034030
 00,-0.03171717,0.00071994,0.00093755,-0.00276118,-0.00000858,0.0000045
 2,0.00000531,0.00000037,-0.00000105,-0.00000375,0.00000019,-0.00000385
 ,-0.00000230,-0.00000167,0.00000908,0.00001337,-0.00000051,0.00000971,
 0.00000925,-0.00010703,0.00011492,0.00021762,-0.00003383,0.00005494,0.
 00003035,0.00009457,-0.00006343,0.00178199,-0.00004289,0.00001934,-0.0
 0016506,-0.00001877,0.00004086,0.00002117,-0.00001031,0.00000514,0.000
 03949,-0.00005299,0.00001478,-0.00005765,0.00069067,0.00043206,-0.0001
 6063,-0.00642845,0.00000158,-0.00027284,0.33168197,0.00001125,0.000014
 39,0.00001469,-0.00000378,-0.00004723,-0.00002182,0.00001369,0.0000176
 4,0.00001151,0.00008080,-0.00021465,0.00012830,0.00006141,0.00052014,-
 0.00068437,-0.00100039,-0.00006910,0.00002928,0.00019496,-0.00006884,-
 0.00035599,0.00015221,-0.00002638,-0.00000336,0.00003112,-0.00001142,-
 0.00005420,0.00843328,-0.00078094,0.00039802,-0.03396760,-0.05148743,-
 0.00360161,0.00048686,-0.00008968,0.00184925,-0.00001168,0.00000428,0.
 00000512,-0.00000140,-0.00000328,-0.00000162,0.00000172,-0.00000301,-0
 .00000273,-0.00000164,0.00001142,0.00001646,-0.00000049,0.00000431,0.0
 0000218,-0.00004493,0.00006358,0.00009155,-0.00000607,0.00001314,-0.00
 001777,0.00067217,-0.00058679,-0.00087514,-0.00005604,-0.00013073,0.00
 014950,0.00006415,-0.00000533,-0.00000646,0.00000709,0.00000299,0.0000
 0337,-0.00001842,0.00001170,-0.00001593,0.00030060,0.00039019,-0.00053
 991,-0.03100905,-0.00238077,-0.00353552,0.03510840,0.05143242,0.000020
 53,0.00001546,0.00003086,0.00000077,-0.00003927,-0.00006164,0.00005473
 ,0.00000020,0.00001235,0.00033696,-0.00007076,0.00006044,0.00014888,-0
 .00040729,-0.00115352,-0.00158865,0.00009120,0.00099075,0.00046604,-0.
 00008951,-0.00002604,0.00053918,0.00007172,0.00014555,0.00007795,-0.00
 001783,0.00006114,-0.03084851,-0.00469971,-0.00161755,-0.02916271,-0.0
 0325264,-0.05046243,-0.00020691,0.00123209,-0.00629259,-0.00002058,0.0
 0000861,0.00000783,-0.00000100,-0.00000415,-0.00000472,-0.00000131,-0.
 00000190,-0.00000590,-0.00000149,0.00001200,0.00001622,-0.00000086,0.0
 0001109,0.00001761,-0.00007882,0.00005754,0.00013800,-0.00006983,0.000
 09159,0.00007508,0.00087038,-0.00111170,-0.00088977,0.00017123,0.00019
 858,-0.00019212,-0.00004813,-0.00002337,-0.00001567,-0.00002949,0.0000
 2895,0.00007700,-0.00001229,0.00001498,-0.00004020,0.00060394,0.000103
 21,0.00155824,0.00693660,-0.00010111,-0.00008052,0.03326544,0.00367725
 ,0.05529906,0.00001647,0.00001593,0.00002452,-0.00000193,-0.00004520,-
 0.00004320,0.00003856,0.00000696,-0.00000043,0.00029352,-0.00023014,0.
 00018782,-0.00033220,0.00067089,-0.00024213,-0.00141702,0.00063074,-0.
 00152497,0.00018585,-0.00001054,-0.00003915,0.00025950,-0.00035139,-0.
 00047012,0.00010100,-0.00003500,-0.00029223,0.00335628,-0.00633536,-0.
 00715375,-0.10466110,0.07501817,0.08117061,0.00077373,-0.00062847,-0.0
 0105406,-0.00001678,0.00000681,0.00000666,-0.00000133,-0.00000405,-0.0
 0000353,-0.00000028,-0.00000239,-0.00000492,-0.00000082,0.00001264,0.0
 0001532,-0.00000048,0.00000731,0.00001152,-0.00008316,0.00008416,0.000
 14816,-0.00002998,0.00004647,0.00002346,0.00027174,-0.00046360,0.00047
 832,0.00002445,0.00001309,-0.00008342,-0.00001274,0.00009975,-0.000023
 25,0.00001511,-0.00000493,-0.00003077,-0.00005570,-0.00002864,-0.00010
 279,0.00001048,0.00002392,0.00060069,0.00350789,-0.00517660,-0.0060485
 1,-0.01450180,0.01990861,0.02056261,0.11215739,-0.00000808,-0.00000747
 ,-0.00001334,0.00000316,0.00001776,0.00002547,0.00000077,-0.00000219,-
 0.00001890,0.00000183,0.00001555,0.00000503,0.00006889,0.00006947,0.00
 026233,0.00062500,-0.00095406,0.00158419,0.00001419,0.00033848,-0.0006
 0527,-0.00007619,0.00030733,0.00031270,-0.00004860,0.00009219,0.000093
 27,-0.00388577,0.00468770,0.00627945,0.07436789,-0.14258656,-0.1027707
 6,-0.00006582,0.00017929,0.00020921,0.00000869,-0.00000407,-0.00000402
 ,0.00000089,0.00000264,0.00000167,-0.00000099,0.00000098,0.00000262,0.
 00000066,-0.00000421,-0.00000759,-0.00000019,-0.00000161,-0.00000275,0
 .00001850,-0.00000475,-0.00001874,-0.00000153,0.00001293,0.00002786,-0
 .00019199,-0.00002582,-0.00005383,0.00001915,0.00005443,-0.00013548,0.
 00003053,0.00018180,0.00014509,0.00000673,0.00001709,-0.00000212,0.000
 01152,0.00007112,0.00002345,-0.00038683,0.00054326,-0.00056429,0.01560
 131,-0.01732673,-0.01992906,-0.00252200,0.00252600,0.00388207,-0.08322
 662,0.15155393,-0.00001571,-0.00002153,-0.00003584,0.00004724,0.000028
 45,0.00004929,0.00000943,-0.00004588,-0.00005743,0.00001930,0.00004839
 ,0.00011596,-0.00030694,-0.00011074,0.00026120,-0.00302641,0.00480041,
 -0.00244259,-0.00010879,-0.00038875,0.00028191,-0.00013807,-0.00129938
 ,-0.00138930,0.00028586,0.00002174,-0.00073162,0.01422206,-0.01986049,
 -0.02253559,0.07955336,-0.10173252,-0.15352957,0.00176865,-0.00100076,
 0.00114593,0.00001934,-0.00000722,-0.00000641,0.00000117,0.00000390,0.
 00000292,0.00000123,0.00000087,0.00000510,-0.00000358,-0.00000636,-0.0
 0000301,-0.00000242,-0.00000057,-0.00000768,-0.00000992,0.00000724,0.0
 0003220,0.00000016,0.00000556,0.00000378,0.00018533,-0.00008954,-0.000
 13114,0.00001905,0.00001715,-0.00001212,0.00000604,0.00006726,0.000009
 48,0.00005994,-0.00002442,-0.00014411,-0.00015220,-0.00013470,-0.00024
 164,0.00038484,0.00035686,0.00104982,-0.00429543,0.00428193,0.00473286
 ,-0.00151733,0.00283754,0.00230295,-0.08597523,0.11129995,0.17058888,-
 0.00000260,-0.00000096,-0.00000065,-0.00000473,-0.00000126,0.00000543,
 0.00003757,0.00002218,-0.00000262,-0.00000667,0.00009648,-0.00001836,-
 0.00000123,0.00013853,-0.00000811,0.00036406,-0.00330001,-0.00040735,0
 .00108299,0.00109738,-0.00052989,0.00014532,0.00038446,-0.00002562,-0.
 00007646,0.00015376,-0.00001993,-0.01409051,-0.03177403,0.00772441,0.0
 0164583,-0.00066886,0.00110741,-0.08019560,-0.08581077,0.01963795,0.00
 000056,-0.00000069,-0.00000030,0.00000155,0.00000112,0.00000009,-0.000
 00077,0.00000016,-0.00000002,-0.00000073,-0.00000066,-0.00000092,-0.00
 000140,0.00000403,0.00000174,0.00000386,0.00000316,-0.00000280,-0.0000
 6794,0.00008685,0.00007704,-0.00003175,0.00001869,-0.00001405,0.000320
 93,0.00016596,-0.00003504,0.00027183,0.00026483,0.00040592,0.00002370,
 0.00001685,0.00003364,-0.00000239,0.00008103,0.00001102,-0.00684303,0.
 00066580,-0.00041232,-0.00013785,0.00061955,-0.00078875,0.00025207,0.0
 0040091,0.00013709,-0.00002677,0.00009628,-0.00016659,0.09009553,0.000
 00672,0.00000950,0.00001668,-0.00001888,-0.00001335,-0.00002713,-0.000
 00429,0.00002753,0.00003181,-0.00002351,-0.00006943,-0.00005994,-0.000
 13007,-0.00012340,0.00024155,-0.00049508,-0.00088875,-0.00075274,0.002
 59519,-0.00055734,-0.00074695,-0.00009325,0.00009963,0.00010951,-0.000
 03007,0.00000252,-0.00005502,-0.00132922,0.00080699,0.00058135,0.00023
 356,0.00050796,-0.00004625,-0.08833791,-0.26399911,0.05375057,-0.00000
 952,0.00000350,0.00000365,0.00000063,-0.00000123,-0.00000177,-0.000000
 34,-0.00000089,-0.00000265,0.00000044,0.00000218,0.00000300,0.00000038
 ,0.00000409,0.00000539,-0.00000396,-0.00000009,-0.00000324,0.00001951,
 0.00002527,-0.00000317,0.00000120,0.00001967,0.00000124,-0.00007500,0.
 00006670,0.00002314,-0.00018951,0.00008262,0.00000967,-0.00002016,-0.0
 0006247,0.00007049,0.00002858,0.00001754,0.00001146,0.00046944,0.00113
 850,-0.00037059,-0.00026436,0.00023327,-0.00029528,0.00003530,0.000208
 17,-0.00013660,-0.00009620,-0.00014428,-0.00001592,0.09691234,0.286986
 21,0.00000445,0.00000281,0.00000732,-0.00000644,0.00000243,-0.00001416
 ,-0.00001130,-0.00000719,0.00000620,0.00001928,-0.00001332,-0.00001951
 ,-0.00006845,-0.00028413,0.00002833,0.00065457,0.00182656,0.00006781,-
 0.00092227,-0.00046264,0.00004160,0.00009006,-0.00057788,-0.00014709,0
 .00013851,-0.00012194,0.00009541,-0.00026099,-0.00186500,-0.00050922,-
 0.00000924,-0.00093599,0.00047774,0.02000788,0.05309619,-0.06089417,-0
 .00000391,0.00000194,0.00000144,-0.00000150,-0.00000145,-0.00000086,-0
 .00000026,0.00000013,-0.00000122,0.00000093,0.00000163,0.00000039,0.00
 000120,-0.00000272,0.00000220,-0.00000205,-0.00000634,0.00000009,0.000
 03480,-0.00003719,-0.00002975,0.00000594,0.00002758,0.00001163,-0.0001
 2062,-0.00002444,0.00001612,0.00026645,-0.00013976,-0.00035909,0.00005
 334,0.00016011,-0.00014945,-0.00003910,-0.00009530,-0.00002833,-0.0004
 2928,-0.00013160,0.00069966,-0.00017890,0.00022515,0.00024882,0.000183
 43,0.00007958,-0.00002685,0.00000264,-0.00015237,0.00000902,-0.0218941
 2,-0.05843824,0.06079689,0.00002151,0.00004623,0.00007461,-0.00014016,
 -0.00004355,-0.00009889,-0.00000124,0.00013551,0.00021585,-0.00059503,
 -0.00014402,-0.00029937,-0.00012172,0.00134848,0.00174925,-0.00673377,
 -0.00187614,-0.00224364,0.00099846,-0.00021868,-0.00011321,0.00056561,
 -0.00010056,-0.00059244,0.00001479,0.00005317,0.00005915,-0.01377987,0
 .02336974,0.02174757,0.00124077,0.00041227,0.00175998,-0.07958586,0.06
 258132,0.06131155,-0.00003748,0.00001268,0.00001004,0.00000040,-0.0000
 0533,-0.00000456,0.00000073,-0.00000222,-0.00000653,0.00000409,0.00000
 404,0.00000907,0.00000426,0.00000545,0.00000814,-0.00001003,-0.0000187
 5,0.00002432,0.00000347,0.00001702,-0.00001752,0.00001407,0.00004302,-
 0.00005029,0.00002963,-0.00004560,0.00002646,-0.00013113,0.00001831,-0
 .00010034,-0.00009284,0.00002406,0.00018615,0.00002401,0.00003735,0.00
 003474,0.00139948,-0.00051702,0.00015222,0.00001299,-0.00004295,-0.000
 12493,0.00034866,-0.00044151,0.00003660,0.00002903,-0.00021200,-0.0011
 2895,0.00400842,-0.00720928,-0.00890865,0.08950766,-0.00000917,-0.0000
 0674,-0.00001444,0.00000986,0.00001193,0.00002482,0.00000630,0.0000035
 3,-0.00001871,-0.00000783,-0.00000705,0.00005872,-0.00007175,0.0000806
 5,-0.00000057,-0.00108194,-0.00057668,0.00052061,0.00166026,0.00030675
 ,-0.00051226,-0.00037350,0.00025368,-0.00000920,-0.00005387,0.00001503
 ,-0.00012174,-0.00146372,-0.00019379,0.00068280,-0.00020186,-0.0002536
 2,-0.00040742,0.06385687,-0.16262774,-0.11374824,0.00000827,-0.0000039
 8,-0.00000338,0.00000110,0.00000238,0.00000167,0.00000050,0.00000018,0
 .00000287,-0.00000110,-0.00000308,-0.00000252,-0.00000156,0.00000074,-
 0.00000407,0.00000454,0.00000683,-0.00000079,-0.00001332,0.00003322,0.
 00002290,0.00002737,-0.00002955,0.00001590,0.00004075,0.00002934,-0.00
 000188,-0.00009297,0.00011603,0.00027461,0.00002778,-0.00005341,0.0000
 1756,0.00000310,0.00004728,-0.00001033,0.00043951,0.00066028,0.0002906
 0,0.00003539,-0.00001510,-0.00008139,-0.00015855,0.00016355,0.00029438
 ,0.00024423,0.00031225,0.00057973,0.01100346,-0.01806439,-0.01995680,-
 0.06981839,0.17375416,-0.00001063,-0.00000879,-0.00001462,0.00000744,0
 .00001846,0.00002504,0.00001074,-0.00001634,0.00000135,-0.00003187,0.0
 0001215,0.00004413,-0.00008330,0.00005493,0.00014081,-0.00135666,0.001
 04055,-0.00083469,-0.00006742,-0.00011475,0.00033201,0.00168314,-0.000
 73339,-0.00008284,0.00004897,0.00017088,0.00032300,-0.00145772,0.00188
 668,0.00010207,-0.00073766,0.00061956,0.00062887,0.06283259,-0.1144074
 8,-0.15862252,0.00000906,-0.00000403,-0.00000427,0.00000146,0.00000282
 ,0.00000200,0.00000068,0.00000088,0.00000311,-0.00000259,-0.00000562,-
 0.00000316,-0.00000077,0.00000012,-0.00000498,-0.00001704,-0.00000188,
 0.00004500,-0.00000432,0.00000532,-0.00000284,0.00007996,-0.00000202,0
 .00004481,0.00000892,-0.00000738,-0.00001579,-0.00012340,0.00014154,-0
 .00009894,-0.00011158,0.00007171,0.00019912,-0.00000883,-0.00000068,-0
 .00001355,0.00039225,0.00010376,-0.00003454,-0.00006656,0.00005095,-0.
 00001891,0.00009403,0.00014053,0.00015271,-0.00027819,-0.00003235,0.00
 026615,-0.00357086,0.00555206,0.00498071,-0.06798628,0.12598341,0.1706
 2368,-0.00000670,-0.00000432,-0.00000827,0.00001411,0.00000844,0.00000
 688,0.00003290,-0.00002297,0.00001563,-0.00000903,0.00001236,0.0000064
 5,0.00009562,-0.00018839,0.00012168,0.00019633,0.00009269,-0.00289631,
 0.00028024,-0.00003494,0.00071766,0.00051062,-0.00032536,0.00120330,0.
 00038070,-0.00001392,0.00070444,-0.00875621,0.00904303,-0.03102710,-0.
 00711421,-0.00035301,0.00127300,-0.06846594,0.01914199,-0.07107682,0.0
 0000437,-0.00000142,-0.00000193,0.00000056,0.00000139,-0.00000010,0.00
 000234,-0.00000145,0.00000265,-0.00000381,-0.00000113,0.00000820,-0.00
 000229,0.00000333,-0.00000089,-0.00003994,0.00000982,0.00010258,-0.000
 00573,0.00002001,0.00001010,0.00025141,-0.00011487,0.00005182,-0.00001
 152,0.00001612,-0.00005117,-0.00012254,0.00029318,-0.00023246,-0.00001
 310,0.00020931,0.00019112,-0.00006458,-0.00006989,-0.00007187,0.001310
 13,-0.00050105,0.00014793,0.00002130,0.00014267,0.00007399,-0.00074869
 ,0.00063378,-0.00215834,0.00010110,-0.00024937,0.00026457,0.00323618,-
 0.00197266,0.01139362,0.00300109,-0.00401978,0.01074645,0.07592530,0.0
 0000469,0.00000352,0.00000542,-0.00000543,-0.00000831,-0.00000472,-0.0
 0001656,0.00000283,-0.00001286,0.00003203,-0.00002484,0.00001620,-0.00
 001887,0.00003043,-0.00016512,0.00068763,0.00001212,0.00160709,-0.0003
 5626,0.00003413,-0.00071073,-0.00084620,0.00020863,-0.00023844,0.00006
 199,-0.00026230,-0.00037533,-0.00016724,-0.00143436,-0.00079051,0.0001
 9101,0.00052631,-0.00044636,0.02013707,-0.06582142,0.06374924,-0.00000
 322,0.00000147,0.00000147,-0.00000110,-0.00000122,-0.00000070,-0.00000
 106,-0.00000003,-0.00000156,0.00000242,0.00000346,-0.00000128,0.000000
 97,-0.00000251,0.00000193,0.00002564,0.00000702,-0.00004111,0.00000265
 ,-0.00001383,-0.00000195,-0.00008487,0.00001300,-0.00001604,-0.0000275
 8,-0.00001359,0.00000905,0.00032122,-0.00020855,0.00013244,0.00020827,
 -0.00003798,-0.00043749,-0.00003321,-0.00002829,-0.00000428,0.00023369
 ,0.00030213,-0.00050116,-0.00027005,0.00032009,-0.00035486,-0.00008431
 ,0.00052166,0.00016493,-0.00015055,0.00007755,0.00038181,0.00932345,-0
 .00631715,0.02783019,-0.00741262,0.00603732,-0.02052159,-0.02175359,0.
 06607271,0.00000694,0.00001127,0.00001761,-0.00001751,-0.00001958,-0.0
 0003127,0.00000005,0.00001740,0.00004389,-0.00003341,-0.00001462,-0.00
 004315,-0.00005389,0.00027567,0.00006316,-0.00073371,-0.00044159,-0.00
 109182,0.00016969,0.00015283,0.00031673,0.00367752,-0.00138574,-0.0016
 0960,0.00025156,0.00020353,0.00037007,-0.00056692,0.00029719,-0.000935
 65,-0.00089906,-0.00073987,0.00063000,-0.07469030,0.06392725,-0.272551
 12,-0.00001090,0.00000490,0.00000412,-0.00000023,-0.00000207,-0.000002
 68,0.00000107,-0.00000226,-0.00000183,-0.00000014,0.00000390,0.0000104
 4,0.00000015,0.00000448,0.00000475,-0.00001269,0.00000329,0.00004667,-
 0.00000512,0.00000751,0.00000087,0.00001239,-0.00003532,-0.00001478,0.
 00002999,0.00000987,-0.00000810,-0.00014737,0.00005928,-0.00009356,-0.
 00030585,-0.00001890,0.00008254,-0.00000424,0.00005647,0.00005260,-0.0
 0037732,-0.00019421,0.00038051,0.00012340,-0.00001299,0.00006153,-0.00
 006206,0.00028230,-0.00007627,0.00013834,0.00015651,0.00041062,-0.0012
 4345,0.00054393,-0.00531166,-0.00573010,0.00612318,-0.01816292,0.08048
 318,-0.06927365,0.29743831\\0.00000065,-0.00000135,0.00000068,0.000000
 15,0.00000021,-0.00000037,0.00000289,0.00000196,0.00000061,-0.00000459
 ,-0.00000309,0.00000024,-0.00000424,0.00000129,-0.00000993,0.00001410,
 -0.00003218,0.00004694,-0.00000008,0.00001314,0.00000616,-0.00001092,0
 .00001934,-0.00003246,0.00000039,-0.00000269,-0.00000126,0.00000332,0.
 00000153,-0.00001131,-0.00000176,0.00000064,0.00000116,-0.00000452,0.0
 0000480,-0.00000054,-0.00000043,0.00000105,-0.00000069,0.00000007,-0.0
 0000004,0.00000133,-0.00000052,-0.00000053,-0.00000028,0.00000019,-0.0
 0000107,-0.00000024,0.00000048,-0.00000027,0.00000107,0.00000356,-0.00
 000075,0.00000010,-0.00000123,0.00000299,-0.00000033,0.00000216,0.0000
 0131,0.00000106,-0.00000259,0.00000040,0.00000120,0.00000005,-0.000000
 26,-0.00001019,0.00000192,0.00000092,0.00000243,-0.00000054,-0.0000004
 8,0.00000154,0.00000049,-0.00000149,0.00000043,0.00000006,-0.00000067,
 -0.00000071,-0.00000044,-0.00000141,0.00000127,0.00000029,0.00000070,-
 0.00000095,0.00000097,-0.00000206,-0.00000022,0.00000014,-0.00000103,0
 .00000095,-0.00000001,-0.00000091,0.00000233\\\@


 LET US LEARN TO DREAM, GENTLEMEN, THEN PERHAPS WE SHALL
 DISCOVER THE TRUTH;  BUT LET US BEWARE OF PUBLISHING
 OUR DREAMS ABROAD BEFORE THEY HAVE BEEN SCRUTINIZED
 BY OUR VIGILANT INTELLECT ... LET US ALWAYS ALLOW
 THE FRUIT TO HANG UNTIL IT IS RIPE.  UNRIPE FRUIT
 BRINGS EVEN THE GROWER BUT LITTLE PROFIT; IT DAMAGES
 THE HEALTH OF THOSE WHO CONSUME IT; IT ENDANGERS
 PARTICULARLY THE YOUTH WHO CANNOT YET DISTINGUISH
 BETWEEN RIPE AND UNRIPE FRUIT.

                                  -- KEKULE, 1890
 Job cpu time:       0 days  5 hours  8 minutes 46.6 seconds.
 Elapsed time:       0 days  1 hours 17 minutes 12.1 seconds.
 File lengths (MBytes):  RWF=    450 Int=      0 D2E=      0 Chk=     17 Scr=      1
 Normal termination of Gaussian 16 at Mon May 22 17:48:44 2023.
### All Done ###
