### Starting Gaussian ###
 Entering Gaussian System, Link 0=g16
 Initial command:
 /cluster/software/gaussian/gaussian-16-A.03/avx2/g16/l1.exe "/local/scratch/cz9n3/Gau-3139.inp" -scrdir="/local/scratch/cz9n3/"
 Entering Link 1 = /cluster/software/gaussian/gaussian-16-A.03/avx2/g16/l1.exe PID=      3140.
  
 Copyright (c) 1988,1990,1992,1993,1995,1998,2003,2009,2016,
            Gaussian, Inc.  All Rights Reserved.
  
 This is part of the Gaussian(R) 16 program.  It is based on
 the Gaussian(R) 09 system (copyright 2009, Gaussian, Inc.),
 the Gaussian(R) 03 system (copyright 2003, Gaussian, Inc.),
 the Gaussian(R) 98 system (copyright 1998, Gaussian, Inc.),
 the Gaussian(R) 94 system (copyright 1995, Gaussian, Inc.),
 the Gaussian 92(TM) system (copyright 1992, Gaussian, Inc.),
 the Gaussian 90(TM) system (copyright 1990, Gaussian, Inc.),
 the Gaussian 88(TM) system (copyright 1988, Gaussian, Inc.),
 the Gaussian 86(TM) system (copyright 1986, Carnegie Mellon
 University), and the Gaussian 82(TM) system (copyright 1983,
 Carnegie Mellon University). Gaussian is a federally registered
 trademark of Gaussian, Inc.
  
 This software contains proprietary and confidential information,
 including trade secrets, belonging to Gaussian, Inc.
  
 This software is provided under written license and may be
 used, copied, transmitted, or stored only in accord with that
 written license.
  
 The following legend is applicable only to US Government
 contracts under FAR:
  
                    RESTRICTED RIGHTS LEGEND
  
 Use, reproduction and disclosure by the US Government is
 subject to restrictions as set forth in subparagraphs (a)
 and (c) of the Commercial Computer Software - Restricted
 Rights clause in FAR 52.227-19.
  
 Gaussian, Inc.
 340 Quinnipiac St., Bldg. 40, Wallingford CT 06492
  
  
 ---------------------------------------------------------------
 Warning -- This program may not be used in any manner that
 competes with the business of Gaussian, Inc. or will provide
 assistance to any competitor of Gaussian, Inc.  The licensee
 of this program is prohibited from giving any competitor of
 Gaussian, Inc. access to this program.  By using this program,
 the user acknowledges that Gaussian, Inc. is engaged in the
 business of creating and licensing software in the field of
 computational chemistry and represents and warrants to the
 licensee that it is not a competitor of Gaussian, Inc. and that
 it will not use this program in any manner prohibited above.
 ---------------------------------------------------------------
  

 Cite this work as:
 Gaussian 16, Revision A.03,
 M. J. Frisch, G. W. Trucks, H. B. Schlegel, G. E. Scuseria, 
 M. A. Robb, J. R. Cheeseman, G. Scalmani, V. Barone, 
 G. A. Petersson, H. Nakatsuji, X. Li, M. Caricato, A. V. Marenich, 
 J. Bloino, B. G. Janesko, R. Gomperts, B. Mennucci, H. P. Hratchian, 
 J. V. Ortiz, A. F. Izmaylov, J. L. Sonnenberg, D. Williams-Young, 
 F. Ding, F. Lipparini, F. Egidi, J. Goings, B. Peng, A. Petrone, 
 T. Henderson, D. Ranasinghe, V. G. Zakrzewski, J. Gao, N. Rega, 
 G. Zheng, W. Liang, M. Hada, M. Ehara, K. Toyota, R. Fukuda, 
 J. Hasegawa, M. Ishida, T. Nakajima, Y. Honda, O. Kitao, H. Nakai, 
 T. Vreven, K. Throssell, J. A. Montgomery, Jr., J. E. Peralta, 
 F. Ogliaro, M. J. Bearpark, J. J. Heyd, E. N. Brothers, K. N. Kudin, 
 V. N. Staroverov, T. A. Keith, R. Kobayashi, J. Normand, 
 K. Raghavachari, A. P. Rendell, J. C. Burant, S. S. Iyengar, 
 J. Tomasi, M. Cossi, J. M. Millam, M. Klene, C. Adamo, R. Cammi, 
 J. W. Ochterski, R. L. Martin, K. Morokuma, O. Farkas, 
 J. B. Foresman, and D. J. Fox, Gaussian, Inc., Wallingford CT, 2016.
 
 ******************************************
 Gaussian 16:  ES64L-G16RevA.03 25-Dec-2016
                29-May-2023 
 ******************************************
 %chk=CCSCqCrC1CCCdNCCC1C.chk
 %NProcShared=20
 Will use up to   20 processors via shared memory.
 -----------------------------
 # opt freq b3lyp/6-31g(2df,p)
 -----------------------------
 1/18=20,19=15,26=3,38=1/1,3;
 2/9=110,12=2,17=6,18=5,40=1/2;
 3/5=1,6=6,7=104,11=2,25=1,30=1,71=1,74=-5/1,2,3;
 4//1;
 5/5=2,38=5/2;
 6/7=2,8=2,9=2,10=2,28=1/1;
 7//1,2,3,16;
 1/18=20,19=15,26=3/3(2);
 2/9=110/2;
 99//99;
 2/9=110/2;
 3/5=1,6=6,7=104,11=2,25=1,30=1,71=1,74=-5/1,2,3;
 4/5=5,16=3,69=1/1;
 5/5=2,38=5/2;
 7//1,2,3,16;
 1/18=20,19=15,26=3/3(-5);
 2/9=110/2;
 6/7=2,8=2,9=2,10=2,19=2,28=1/1;
 99/9=1/99;
 -------------------
 Title Card Required
 -------------------
 Symbolic Z-matrix:
 Charge =  0 Multiplicity = 1
 C                     0.97271  -0.05608   0.06977 
 C                     2.4908   -0.07763   0.08367 
 S                     3.02481  -0.54913   1.75226 
 C                     4.87701  -0.46302   1.61252 
 C                     5.27788   0.82767   0.92845 
 C                     5.45232  -0.67075   3.06214 
 C                     6.41436  -1.89415   3.09254 
 C                     6.79857  -2.33596   4.50389 
 C                     5.59054  -2.55849   5.37686 
 N                     4.82418  -1.70042   5.96049 
 C                     4.86828  -0.24561   5.94114 
 C                     6.12275   0.39999   5.38154 
 C                     6.12162   0.54141   3.831 
 C                     5.51932   1.92689   3.57251 
 H                     0.60913   0.18992  -0.93221 
 H                     0.5805    0.70123   0.7591 
 H                     0.55495  -1.02885   0.34979 
 H                     2.85521   0.9193   -0.17882 
 H                     2.87221  -0.80387  -0.63891 
 H                     5.17344  -1.30184   0.97139 
 H                     4.6732    1.66104   1.30041 
 H                     5.11022   0.82321  -0.14921 
 H                     6.34492   1.01716   1.07783 
 H                     4.59062  -1.00125   3.64316 
 H                     7.32698  -1.65365   2.53268 
 H                     5.95164  -2.75037   2.58386 
 H                     7.51093  -1.65363   4.95905 
 H                     7.34984  -3.28333   4.46018 
 H                     5.29315  -3.61333   5.48659 
 H                     4.74402   0.09703   6.97349 
 H                     3.98634   0.14048   5.40924 
 H                     7.02574  -0.06839   5.77105 
 H                     6.20009   1.40328   5.82069 
 H                     7.17023   0.58983   3.50506 
 H                     4.42689   1.89091   3.59807 
 H                     5.88339   2.35135   2.63959 
 H                     5.85591   2.6746    4.29579 
 

 GradGradGradGradGradGradGradGradGradGradGradGradGradGradGradGradGradGrad
 Berny optimization.
 Initialization pass.
                           ----------------------------
                           !    Initial Parameters    !
                           ! (Angstroms and Degrees)  !
 --------------------------                            --------------------------
 ! Name  Definition              Value          Derivative Info.                !
 --------------------------------------------------------------------------------
 ! R1    R(1,2)                  1.5183         estimate D2E/DX2                !
 ! R2    R(1,15)                 1.0939         estimate D2E/DX2                !
 ! R3    R(1,16)                 1.0966         estimate D2E/DX2                !
 ! R4    R(1,17)                 1.0951         estimate D2E/DX2                !
 ! R5    R(2,3)                  1.8143         estimate D2E/DX2                !
 ! R6    R(2,18)                 1.0934         estimate D2E/DX2                !
 ! R7    R(2,19)                 1.0932         estimate D2E/DX2                !
 ! R8    R(3,4)                  1.8595         estimate D2E/DX2                !
 ! R9    R(4,5)                  1.5148         estimate D2E/DX2                !
 ! R10   R(4,6)                  1.5734         estimate D2E/DX2                !
 ! R11   R(4,20)                 1.0966         estimate D2E/DX2                !
 ! R12   R(5,21)                 1.0948         estimate D2E/DX2                !
 ! R13   R(5,22)                 1.0906         estimate D2E/DX2                !
 ! R14   R(5,23)                 1.094          estimate D2E/DX2                !
 ! R15   R(6,7)                  1.5566         estimate D2E/DX2                !
 ! R16   R(6,13)                 1.5838         estimate D2E/DX2                !
 ! R17   R(6,24)                 1.0906         estimate D2E/DX2                !
 ! R18   R(7,8)                  1.528          estimate D2E/DX2                !
 ! R19   R(7,25)                 1.0973         estimate D2E/DX2                !
 ! R20   R(7,26)                 1.0982         estimate D2E/DX2                !
 ! R21   R(8,9)                  1.507          estimate D2E/DX2                !
 ! R22   R(8,27)                 1.0864         estimate D2E/DX2                !
 ! R23   R(8,28)                 1.097          estimate D2E/DX2                !
 ! R24   R(9,10)                 1.29           estimate D2E/DX2                !
 ! R25   R(9,29)                 1.1014         estimate D2E/DX2                !
 ! R26   R(10,11)                1.4556         estimate D2E/DX2                !
 ! R27   R(11,12)                1.5178         estimate D2E/DX2                !
 ! R28   R(11,30)                1.0948         estimate D2E/DX2                !
 ! R29   R(11,31)                1.0999         estimate D2E/DX2                !
 ! R30   R(12,13)                1.557          estimate D2E/DX2                !
 ! R31   R(12,32)                1.0893         estimate D2E/DX2                !
 ! R32   R(12,33)                1.0979         estimate D2E/DX2                !
 ! R33   R(13,14)                1.5327         estimate D2E/DX2                !
 ! R34   R(13,34)                1.0992         estimate D2E/DX2                !
 ! R35   R(14,35)                1.0933         estimate D2E/DX2                !
 ! R36   R(14,36)                1.0877         estimate D2E/DX2                !
 ! R37   R(14,37)                1.0934         estimate D2E/DX2                !
 ! A1    A(2,1,15)             110.1142         estimate D2E/DX2                !
 ! A2    A(2,1,16)             111.202          estimate D2E/DX2                !
 ! A3    A(2,1,17)             111.4988         estimate D2E/DX2                !
 ! A4    A(15,1,16)            107.5537         estimate D2E/DX2                !
 ! A5    A(15,1,17)            107.8895         estimate D2E/DX2                !
 ! A6    A(16,1,17)            108.4382         estimate D2E/DX2                !
 ! A7    A(1,2,3)              107.8425         estimate D2E/DX2                !
 ! A8    A(1,2,18)             108.5474         estimate D2E/DX2                !
 ! A9    A(1,2,19)             110.6238         estimate D2E/DX2                !
 ! A10   A(3,2,18)             111.0779         estimate D2E/DX2                !
 ! A11   A(3,2,19)             109.4246         estimate D2E/DX2                !
 ! A12   A(18,2,19)            109.3147         estimate D2E/DX2                !
 ! A13   A(2,3,4)              102.2416         estimate D2E/DX2                !
 ! A14   A(3,4,5)              109.6945         estimate D2E/DX2                !
 ! A15   A(3,4,6)              106.7904         estimate D2E/DX2                !
 ! A16   A(3,4,20)             106.1275         estimate D2E/DX2                !
 ! A17   A(5,4,6)              115.5823         estimate D2E/DX2                !
 ! A18   A(5,4,20)             108.4336         estimate D2E/DX2                !
 ! A19   A(6,4,20)             109.8056         estimate D2E/DX2                !
 ! A20   A(4,5,21)             110.4272         estimate D2E/DX2                !
 ! A21   A(4,5,22)             113.7071         estimate D2E/DX2                !
 ! A22   A(4,5,23)             110.1236         estimate D2E/DX2                !
 ! A23   A(21,5,22)            104.7099         estimate D2E/DX2                !
 ! A24   A(21,5,23)            111.1303         estimate D2E/DX2                !
 ! A25   A(22,5,23)            106.5931         estimate D2E/DX2                !
 ! A26   A(4,6,7)              110.3489         estimate D2E/DX2                !
 ! A27   A(4,6,13)             120.0489         estimate D2E/DX2                !
 ! A28   A(4,6,24)             104.002          estimate D2E/DX2                !
 ! A29   A(7,6,13)             109.3205         estimate D2E/DX2                !
 ! A30   A(7,6,24)             103.8713         estimate D2E/DX2                !
 ! A31   A(13,6,24)            107.8913         estimate D2E/DX2                !
 ! A32   A(6,7,8)              113.621          estimate D2E/DX2                !
 ! A33   A(6,7,25)             109.3765         estimate D2E/DX2                !
 ! A34   A(6,7,26)             110.0788         estimate D2E/DX2                !
 ! A35   A(8,7,25)             108.996          estimate D2E/DX2                !
 ! A36   A(8,7,26)             107.9604         estimate D2E/DX2                !
 ! A37   A(25,7,26)            106.5576         estimate D2E/DX2                !
 ! A38   A(7,8,9)              112.0986         estimate D2E/DX2                !
 ! A39   A(7,8,27)             111.7321         estimate D2E/DX2                !
 ! A40   A(7,8,28)             109.8328         estimate D2E/DX2                !
 ! A41   A(9,8,27)             112.067          estimate D2E/DX2                !
 ! A42   A(9,8,28)             107.362          estimate D2E/DX2                !
 ! A43   A(27,8,28)            103.2733         estimate D2E/DX2                !
 ! A44   A(8,9,10)             129.7972         estimate D2E/DX2                !
 ! A45   A(8,9,29)             114.5555         estimate D2E/DX2                !
 ! A46   A(10,9,29)            115.5653         estimate D2E/DX2                !
 ! A47   A(9,10,11)            129.8494         estimate D2E/DX2                !
 ! A48   A(10,11,12)           117.0693         estimate D2E/DX2                !
 ! A49   A(10,11,30)           107.267          estimate D2E/DX2                !
 ! A50   A(10,11,31)           109.4487         estimate D2E/DX2                !
 ! A51   A(12,11,30)           107.9599         estimate D2E/DX2                !
 ! A52   A(12,11,31)           109.5799         estimate D2E/DX2                !
 ! A53   A(30,11,31)           104.7815         estimate D2E/DX2                !
 ! A54   A(11,12,13)           113.9042         estimate D2E/DX2                !
 ! A55   A(11,12,32)           111.7422         estimate D2E/DX2                !
 ! A56   A(11,12,33)           107.4244         estimate D2E/DX2                !
 ! A57   A(13,12,32)           113.3141         estimate D2E/DX2                !
 ! A58   A(13,12,33)           108.3838         estimate D2E/DX2                !
 ! A59   A(32,12,33)           101.0409         estimate D2E/DX2                !
 ! A60   A(6,13,12)            114.4711         estimate D2E/DX2                !
 ! A61   A(6,13,14)            116.353          estimate D2E/DX2                !
 ! A62   A(6,13,34)            107.0326         estimate D2E/DX2                !
 ! A63   A(12,13,14)           104.4979         estimate D2E/DX2                !
 ! A64   A(12,13,34)           107.3746         estimate D2E/DX2                !
 ! A65   A(14,13,34)           106.5626         estimate D2E/DX2                !
 ! A66   A(13,14,35)           111.0362         estimate D2E/DX2                !
 ! A67   A(13,14,36)           111.4618         estimate D2E/DX2                !
 ! A68   A(13,14,37)           112.6829         estimate D2E/DX2                !
 ! A69   A(35,14,36)           111.5518         estimate D2E/DX2                !
 ! A70   A(35,14,37)           108.3385         estimate D2E/DX2                !
 ! A71   A(36,14,37)           101.3893         estimate D2E/DX2                !
 ! D1    D(15,1,2,3)          -177.9777         estimate D2E/DX2                !
 ! D2    D(15,1,2,18)           61.5911         estimate D2E/DX2                !
 ! D3    D(15,1,2,19)          -58.3453         estimate D2E/DX2                !
 ! D4    D(16,1,2,3)            62.9066         estimate D2E/DX2                !
 ! D5    D(16,1,2,18)          -57.5246         estimate D2E/DX2                !
 ! D6    D(16,1,2,19)         -177.461          estimate D2E/DX2                !
 ! D7    D(17,1,2,3)           -58.2519         estimate D2E/DX2                !
 ! D8    D(17,1,2,18)         -178.6831         estimate D2E/DX2                !
 ! D9    D(17,1,2,19)           61.3805         estimate D2E/DX2                !
 ! D10   D(1,2,3,4)           -177.9129         estimate D2E/DX2                !
 ! D11   D(18,2,3,4)           -59.0848         estimate D2E/DX2                !
 ! D12   D(19,2,3,4)            61.6979         estimate D2E/DX2                !
 ! D13   D(2,3,4,5)             46.7587         estimate D2E/DX2                !
 ! D14   D(2,3,4,6)            172.7076         estimate D2E/DX2                !
 ! D15   D(2,3,4,20)           -70.1848         estimate D2E/DX2                !
 ! D16   D(3,4,5,21)            41.7655         estimate D2E/DX2                !
 ! D17   D(3,4,5,22)           -75.5882         estimate D2E/DX2                !
 ! D18   D(3,4,5,23)           164.8693         estimate D2E/DX2                !
 ! D19   D(6,4,5,21)           -79.0002         estimate D2E/DX2                !
 ! D20   D(6,4,5,22)           163.6461         estimate D2E/DX2                !
 ! D21   D(6,4,5,23)            44.1036         estimate D2E/DX2                !
 ! D22   D(20,4,5,21)          157.2518         estimate D2E/DX2                !
 ! D23   D(20,4,5,22)           39.8981         estimate D2E/DX2                !
 ! D24   D(20,4,5,23)          -79.6444         estimate D2E/DX2                !
 ! D25   D(3,4,6,7)            122.1226         estimate D2E/DX2                !
 ! D26   D(3,4,6,13)          -109.3993         estimate D2E/DX2                !
 ! D27   D(3,4,6,24)            11.2669         estimate D2E/DX2                !
 ! D28   D(5,4,6,7)           -115.5523         estimate D2E/DX2                !
 ! D29   D(5,4,6,13)            12.9258         estimate D2E/DX2                !
 ! D30   D(5,4,6,24)           133.5921         estimate D2E/DX2                !
 ! D31   D(20,4,6,7)             7.474          estimate D2E/DX2                !
 ! D32   D(20,4,6,13)          135.9521         estimate D2E/DX2                !
 ! D33   D(20,4,6,24)         -103.3816         estimate D2E/DX2                !
 ! D34   D(4,6,7,8)           -168.5029         estimate D2E/DX2                !
 ! D35   D(4,6,7,25)            69.4642         estimate D2E/DX2                !
 ! D36   D(4,6,7,26)           -47.2919         estimate D2E/DX2                !
 ! D37   D(13,6,7,8)            57.3924         estimate D2E/DX2                !
 ! D38   D(13,6,7,25)          -64.6405         estimate D2E/DX2                !
 ! D39   D(13,6,7,26)          178.6035         estimate D2E/DX2                !
 ! D40   D(24,6,7,8)           -57.5623         estimate D2E/DX2                !
 ! D41   D(24,6,7,25)         -179.5952         estimate D2E/DX2                !
 ! D42   D(24,6,7,26)           63.6487         estimate D2E/DX2                !
 ! D43   D(4,6,13,12)          156.4758         estimate D2E/DX2                !
 ! D44   D(4,6,13,14)           34.3073         estimate D2E/DX2                !
 ! D45   D(4,6,13,34)          -84.6711         estimate D2E/DX2                !
 ! D46   D(7,6,13,12)          -74.5832         estimate D2E/DX2                !
 ! D47   D(7,6,13,14)          163.2483         estimate D2E/DX2                !
 ! D48   D(7,6,13,34)           44.2699         estimate D2E/DX2                !
 ! D49   D(24,6,13,12)          37.7591         estimate D2E/DX2                !
 ! D50   D(24,6,13,14)         -84.4094         estimate D2E/DX2                !
 ! D51   D(24,6,13,34)         156.6122         estimate D2E/DX2                !
 ! D52   D(6,7,8,9)             52.3285         estimate D2E/DX2                !
 ! D53   D(6,7,8,27)           -74.4229         estimate D2E/DX2                !
 ! D54   D(6,7,8,28)           171.5914         estimate D2E/DX2                !
 ! D55   D(25,7,8,9)           174.5722         estimate D2E/DX2                !
 ! D56   D(25,7,8,27)           47.8208         estimate D2E/DX2                !
 ! D57   D(25,7,8,28)          -66.165          estimate D2E/DX2                !
 ! D58   D(26,7,8,9)           -70.0604         estimate D2E/DX2                !
 ! D59   D(26,7,8,27)          163.1882         estimate D2E/DX2                !
 ! D60   D(26,7,8,28)           49.2025         estimate D2E/DX2                !
 ! D61   D(7,8,9,10)           -76.6295         estimate D2E/DX2                !
 ! D62   D(7,8,9,29)            99.8869         estimate D2E/DX2                !
 ! D63   D(27,8,9,10)           49.941          estimate D2E/DX2                !
 ! D64   D(27,8,9,29)         -133.5426         estimate D2E/DX2                !
 ! D65   D(28,8,9,10)          162.6666         estimate D2E/DX2                !
 ! D66   D(28,8,9,29)          -20.817          estimate D2E/DX2                !
 ! D67   D(8,9,10,11)            1.2708         estimate D2E/DX2                !
 ! D68   D(29,9,10,11)        -175.2168         estimate D2E/DX2                !
 ! D69   D(9,10,11,12)         -12.8656         estimate D2E/DX2                !
 ! D70   D(9,10,11,30)        -134.2971         estimate D2E/DX2                !
 ! D71   D(9,10,11,31)         112.5553         estimate D2E/DX2                !
 ! D72   D(10,11,12,13)         84.3321         estimate D2E/DX2                !
 ! D73   D(10,11,12,32)        -45.6703         estimate D2E/DX2                !
 ! D74   D(10,11,12,33)       -155.6238         estimate D2E/DX2                !
 ! D75   D(30,11,12,13)       -154.599          estimate D2E/DX2                !
 ! D76   D(30,11,12,32)         75.3986         estimate D2E/DX2                !
 ! D77   D(30,11,12,33)        -34.5548         estimate D2E/DX2                !
 ! D78   D(31,11,12,13)        -41.0235         estimate D2E/DX2                !
 ! D79   D(31,11,12,32)       -171.0258         estimate D2E/DX2                !
 ! D80   D(31,11,12,33)         79.0207         estimate D2E/DX2                !
 ! D81   D(11,12,13,6)         -37.0974         estimate D2E/DX2                !
 ! D82   D(11,12,13,14)         91.3238         estimate D2E/DX2                !
 ! D83   D(11,12,13,34)       -155.7576         estimate D2E/DX2                !
 ! D84   D(32,12,13,6)          92.1171         estimate D2E/DX2                !
 ! D85   D(32,12,13,14)       -139.4618         estimate D2E/DX2                !
 ! D86   D(32,12,13,34)        -26.5431         estimate D2E/DX2                !
 ! D87   D(33,12,13,6)        -156.5998         estimate D2E/DX2                !
 ! D88   D(33,12,13,14)        -28.1786         estimate D2E/DX2                !
 ! D89   D(33,12,13,34)         84.7401         estimate D2E/DX2                !
 ! D90   D(6,13,14,35)          44.608          estimate D2E/DX2                !
 ! D91   D(6,13,14,36)         -80.4281         estimate D2E/DX2                !
 ! D92   D(6,13,14,37)         166.3502         estimate D2E/DX2                !
 ! D93   D(12,13,14,35)        -82.6623         estimate D2E/DX2                !
 ! D94   D(12,13,14,36)        152.3015         estimate D2E/DX2                !
 ! D95   D(12,13,14,37)         39.0798         estimate D2E/DX2                !
 ! D96   D(34,13,14,35)        163.8412         estimate D2E/DX2                !
 ! D97   D(34,13,14,36)         38.8051         estimate D2E/DX2                !
 ! D98   D(34,13,14,37)        -74.4166         estimate D2E/DX2                !
 --------------------------------------------------------------------------------
 Trust Radius=3.00D-01 FncErr=1.00D-07 GrdErr=1.00D-06 EigMax=2.50D+02 EigMin=1.00D-04
 Number of steps in this run=    216 maximum allowed number of steps=    222.
 GradGradGradGradGradGradGradGradGradGradGradGradGradGradGradGradGradGrad

                          Input orientation:                          
 ---------------------------------------------------------------------
 Center     Atomic      Atomic             Coordinates (Angstroms)
 Number     Number       Type             X           Y           Z
 ---------------------------------------------------------------------
      1          6           0        0.972710   -0.056080    0.069770
      2          6           0        2.490800   -0.077630    0.083670
      3         16           0        3.024810   -0.549130    1.752260
      4          6           0        4.877010   -0.463020    1.612520
      5          6           0        5.277880    0.827670    0.928450
      6          6           0        5.452320   -0.670750    3.062140
      7          6           0        6.414360   -1.894150    3.092540
      8          6           0        6.798570   -2.335960    4.503890
      9          6           0        5.590540   -2.558490    5.376860
     10          7           0        4.824180   -1.700420    5.960490
     11          6           0        4.868280   -0.245610    5.941140
     12          6           0        6.122750    0.399990    5.381540
     13          6           0        6.121620    0.541410    3.831000
     14          6           0        5.519320    1.926890    3.572510
     15          1           0        0.609130    0.189920   -0.932210
     16          1           0        0.580500    0.701230    0.759100
     17          1           0        0.554950   -1.028850    0.349790
     18          1           0        2.855210    0.919300   -0.178820
     19          1           0        2.872210   -0.803870   -0.638910
     20          1           0        5.173440   -1.301840    0.971390
     21          1           0        4.673200    1.661040    1.300410
     22          1           0        5.110220    0.823210   -0.149210
     23          1           0        6.344920    1.017160    1.077830
     24          1           0        4.590620   -1.001250    3.643160
     25          1           0        7.326980   -1.653650    2.532680
     26          1           0        5.951640   -2.750370    2.583860
     27          1           0        7.510930   -1.653630    4.959050
     28          1           0        7.349840   -3.283330    4.460180
     29          1           0        5.293150   -3.613330    5.486590
     30          1           0        4.744020    0.097030    6.973490
     31          1           0        3.986340    0.140480    5.409240
     32          1           0        7.025740   -0.068390    5.771050
     33          1           0        6.200090    1.403280    5.820690
     34          1           0        7.170230    0.589830    3.505060
     35          1           0        4.426890    1.890910    3.598070
     36          1           0        5.883390    2.351350    2.639590
     37          1           0        5.855910    2.674600    4.295790
 ---------------------------------------------------------------------
                    Distance matrix (angstroms):
                    1          2          3          4          5
     1  C    0.000000
     2  C    1.518307   0.000000
     3  S    2.699071   1.814296   0.000000
     4  C    4.217729   2.860053   1.859459   0.000000
     5  C    4.478039   3.049760   2.765966   1.514770   0.000000
     6  C    5.422085   4.241895   2.761047   1.573382   2.613106
     7  C    6.490547   5.267577   3.885161   2.569443   3.658302
     8  C    7.668110   6.572312   5.000549   3.944657   5.010471
     9  C    7.466700   6.616715   4.874241   4.366964   5.599302
    10  N    7.227604   6.528026   4.719364   4.520928   5.649647
    11  C    7.048714   6.323811   4.586635   4.334085   5.142642
    12  C    7.412544   6.441010   4.865155   4.062286   4.552661
    13  C    6.404305   5.254384   3.885958   2.734883   3.036221
    14  C    6.072316   5.036074   3.958101   3.156864   2.873609
    15  H    1.093924   2.155059   3.686202   5.011665   5.066163
    16  H    1.096596   2.170731   2.919661   4.532527   4.702132
    17  H    1.095087   2.173282   2.880497   4.538155   5.107600
    18  H    2.134706   1.093419   2.431897   3.034367   2.665290
    19  H    2.160907   1.093170   2.409538   3.033865   3.302391
    20  H    4.473362   3.079496   2.406853   1.096603   2.132502
    21  H    4.261056   3.044060   2.793959   2.156521   1.094759
    22  H    4.235575   2.779767   3.138127   2.193734   1.090633
    23  H    5.570338   4.128094   3.732459   2.152112   1.093981
    24  H    5.172208   4.234653   2.496333   2.120191   3.344686
    25  H    6.999636   5.645363   4.509732   2.875178   3.595735
    26  H    6.194319   5.037053   3.755443   2.707453   3.999588
    27  H    8.318987   7.173201   5.623939   4.422030   5.233460
    28  H    8.388005   7.282899   5.789177   4.709374   5.802280
    29  H    7.788592   7.038884   5.336657   5.010593   6.363910
    30  H    7.868136   7.251009   5.534840   5.391785   6.112393
    31  H    6.134374   5.535875   3.843645   3.946212   4.713575
    32  H    8.315282   7.274067   5.691153   4.697462   5.225774
    33  H    7.907485   6.990374   5.517828   4.789813   5.011568
    34  H    7.115312   5.835107   4.642633   3.154213   3.205694
    35  H    5.307639   4.469295   3.365507   3.112234   2.996921
    36  H    6.042721   4.893091   4.167927   3.160435   2.369861
    37  H    7.011526   6.053155   4.987696   4.242976   3.883844
                    6          7          8          9         10
     6  C    0.000000
     7  C    1.556648   0.000000
     8  C    2.581464   1.527980   0.000000
     9  C    2.990083   2.517567   1.506961   0.000000
    10  N    3.139301   3.285018   2.534524   1.290045   0.000000
    11  C    2.968247   3.636285   3.187675   2.487868   1.455607
    12  C    2.641132   3.253865   2.951682   3.005973   2.536373
    13  C    1.583806   2.561830   3.031551   3.504441   3.353190
    14  C    2.648150   3.953709   4.547069   4.835223   4.398073
    15  H    6.336566   7.364961   8.616288   8.495444   8.297551
    16  H    5.560661   6.798151   7.868441   7.553144   7.129600
    17  H    5.609751   6.527182   7.612350   7.277939   7.082181
    18  H    4.447141   5.593286   6.933583   7.102298   6.959231
    19  H    4.513586   5.259207   6.649210   6.830629   6.940178
    20  H    2.201655   2.527843   4.023557   4.600142   5.017167
    21  H    3.024560   4.345428   5.545763   5.938299   5.747917
    22  H    3.558331   4.426485   5.872156   6.496465   6.616567
    23  H    2.753772   3.541130   4.815298   5.642342   5.791223
    24  H    1.090569   2.103920   2.719807   2.535853   2.431750
    25  H    2.181919   1.097342   2.151844   3.453016   4.244535
    26  H    2.191550   1.098170   2.139051   2.822775   3.711494
    27  H    2.966849   2.178113   1.086371   2.163616   2.867699
    28  H    3.518618   2.162263   1.096959   2.112068   3.336989
    29  H    3.816028   3.153437   2.205371   1.101439   2.025769
    30  H    4.048436   4.670825   4.029831   3.212104   2.064805
    31  H    2.883760   3.924551   3.855003   3.139896   2.096370
    32  H    3.190091   3.298727   2.607523   2.900997   2.747049
    33  H    3.531339   4.285062   4.009246   4.032885   3.397886
    34  H    2.176340   2.629005   3.113846   3.988856   4.096136
    35  H    2.810841   4.304913   4.930700   4.931058   4.317003
    36  H    3.081795   4.302483   5.126797   5.628937   5.344824
    37  H    3.588334   4.757431   5.102708   5.350174   4.793380
                   11         12         13         14         15
    11  C    0.000000
    12  C    1.517777   0.000000
    13  C    2.577393   1.556976   0.000000
    14  C    3.279332   2.442978   1.532690   0.000000
    15  H    8.097715   8.384961   7.293782   6.886184   0.000000
    16  H    6.792283   7.223173   6.337675   5.814590   1.767141
    17  H    7.105032   7.639404   6.750730   6.615685   1.769706
    18  H    6.547013   6.470248   5.185643   4.710116   2.478804
    19  H    6.898769   6.947021   5.687578   5.674531   2.489011
    20  H    5.089908   4.821497   3.531853   4.160548   5.165459
    21  H    5.020931   4.510772   3.123360   2.439064   4.864715
    22  H    6.188156   5.638575   4.116359   3.903418   4.612370
    23  H    5.237064   4.353410   2.802882   2.780765   6.133830
    24  H    2.434913   2.707926   2.181523   3.072699   6.181032
    25  H    4.432311   3.712629   2.820783   4.143567   7.780342
    26  H    4.326525   4.216759   3.524212   4.800114   7.039209
    27  H    3.151289   2.514537   2.832116   4.325405   9.259615
    28  H    4.192747   3.990175   4.066083   5.593313   9.304757
    29  H    3.424714   4.099513   4.548539   5.865909   8.809412
    30  H    1.094801   2.127671   3.459841   3.939054   8.922221
    31  H    1.099910   2.152292   2.685332   2.985777   7.184844
    32  H    2.171398   1.089261   2.225552   3.329267   9.282958
    33  H    2.122985   1.097918   2.169757   2.406643   8.850578
    34  H    3.454189   2.157413   1.099165   2.125508   7.930783
    35  H    3.201487   2.877421   2.178880   1.093321   6.163773
    36  H    4.321444   3.373928   2.179930   1.087682   6.726615
    37  H    3.494312   2.534543   2.199348   1.093388   7.812446
                   16         17         18         19         20
    16  H    0.000000
    17  H    1.778023   0.000000
    18  H    2.470132   3.060378   0.000000
    19  H    3.077612   2.529395   1.783616   0.000000
    20  H    5.015222   4.668122   3.410372   2.852490   0.000000
    21  H    4.238448   5.009907   2.458330   3.616671   3.022772
    22  H    4.621501   4.942632   2.257251   2.809962   2.403243
    23  H    5.781863   6.183846   3.710367   4.280545   2.600280
    24  H    5.224682   5.209000   4.616025   4.618226   2.751070
    25  H    7.362475   7.142533   5.828296   5.534084   2.683120
    26  H    6.640214   6.089250   5.539563   4.863949   2.303018
    27  H    8.438946   8.367872   7.395499   7.319629   4.635628
    28  H    8.683241   8.255211   7.706109   7.224791   4.564502
    29  H    7.948186   7.450959   7.654094   7.160710   5.073889
    30  H    7.504572   7.917658   7.443069   7.890749   6.177900
    31  H    5.791199   6.224131   5.754340   6.221993   4.814977
    32  H    8.200797   8.496097   7.332790   7.673352   5.290477
    33  H    7.595549   8.228828   6.885970   7.594256   5.646893
    34  H    7.139835   7.505850   5.683214   6.130894   3.739662
    35  H    4.926439   5.836801   4.204652   5.256507   4.201242
    36  H    5.863427   6.712765   4.377679   5.456297   4.078323
    37  H    6.650738   7.575397   5.666340   6.734499   5.227760
                   21         22         23         24         25
    21  H    0.000000
    22  H    1.730417   0.000000
    23  H    1.805207   1.751493   0.000000
    24  H    3.547264   4.240367   3.705734   0.000000
    25  H    4.421335   4.270995   3.195975   3.024311   0.000000
    26  H    4.768877   4.576913   4.076405   2.456402   1.759822
    27  H    5.694330   6.163803   4.853511   3.268849   2.433333
    28  H    6.449445   6.567042   5.562766   3.672697   2.524210
    29  H    6.762205   7.174858   6.479570   3.273338   4.086856
    30  H    5.885149   7.168981   6.178052   3.510107   5.427463
    31  H    4.434677   5.711882   5.009249   2.188091   4.759556
    32  H    5.339662   6.285988   4.865002   3.365702   3.618126
    33  H    4.778155   6.096229   4.760755   3.621297   4.628792
    34  H    3.499019   4.201404   2.599075   3.033973   2.450162
    35  H    2.322230   3.955886   3.285405   2.897142   4.702072
    36  H    1.932483   3.272676   2.105271   3.730728   4.258569
    37  H    3.376153   4.872548   3.652602   3.941923   4.899628
                   26         27         28         29         30
    26  H    0.000000
    27  H    3.045612   0.000000
    28  H    2.399914   1.711941   0.000000
    29  H    3.099056   3.006205   2.322152   0.000000
    30  H    5.369812   3.844291   4.953167   4.034747   0.000000
    31  H    4.494685   3.980482   4.892476   3.975528   1.738633
    32  H    4.301731   1.846006   3.487013   3.955930   2.584467
    33  H    5.271774   3.435902   5.013704   5.108869   2.270545
    34  H    3.672943   2.695047   3.993230   5.011631   4.261379
    35  H    4.989485   4.891557   6.004967   5.883330   3.835627
    36  H    5.102481   4.905981   6.100381   6.635601   5.016255
    37  H    5.689479   4.681087   6.144573   6.424388   3.879464
                   31         32         33         34         35
    31  H    0.000000
    32  H    3.067977   0.000000
    33  H    2.581597   1.688187   0.000000
    34  H    3.736974   2.364073   2.639131   0.000000
    35  H    2.557035   3.913403   2.884798   3.037659   0.000000
    36  H    4.019665   4.118998   3.334446   2.346902   1.803353
    37  H    3.340184   3.326994   2.014953   2.588234   1.772874
                   36         37
    36  H    0.000000
    37  H    1.687674   0.000000
 Stoichiometry    C12H23NS
 Framework group  C1[X(C12H23NS)]
 Deg. of freedom   105
 Full point group                 C1      NOp   1
 Largest Abelian subgroup         C1      NOp   1
 Largest concise Abelian subgroup C1      NOp   1
                         Standard orientation:                         
 ---------------------------------------------------------------------
 Center     Atomic      Atomic             Coordinates (Angstroms)
 Number     Number       Type             X           Y           Z
 ---------------------------------------------------------------------
      1          6           0        4.615556   -0.918237   -0.938814
      2          6           0        3.707115   -0.305131    0.111944
      3         16           0        1.992716   -0.680873   -0.347755
      4          6           0        1.028205    0.184893    0.985571
      5          6           0        1.565711    1.588364    1.175005
      6          6           0       -0.490073    0.087220    0.584543
      7          6           0       -1.302676   -0.618486    1.709179
      8          6           0       -2.720874   -1.003295    1.290419
      9          6           0       -2.737904   -1.799265    0.010937
     10          7           0       -2.590566   -1.405329   -1.208621
     11          6           0       -2.336834   -0.071688   -1.733799
     12          6           0       -2.517080    1.093052   -0.777484
     13          6           0       -1.269332    1.381137    0.108128
     14          6           0       -0.459347    2.407056   -0.692217
     15          1           0        5.663552   -0.744046   -0.677984
     16          1           0        4.441086   -0.469966   -1.924276
     17          1           0        4.464057   -1.999856   -1.018587
     18          1           0        3.880600    0.774197    0.134721
     19          1           0        3.919782   -0.726416    1.098003
     20          1           0        1.206269   -0.381958    1.907260
     21          1           0        1.780125    2.049492    0.205528
     22          1           0        2.512471    1.626148    1.715095
     23          1           0        0.854409    2.189539    1.748968
     24          1           0       -0.500613   -0.631279   -0.235817
     25          1           0       -1.355136    0.037841    2.587041
     26          1           0       -0.785259   -1.531832    2.031757
     27          1           0       -3.374685   -0.137104    1.240963
     28          1           0       -3.183139   -1.623696    2.068064
     29          1           0       -2.841034   -2.887026    0.149900
     30          1           0       -3.014601    0.078581   -2.580345
     31          1           0       -1.328544   -0.036305   -2.171864
     32          1           0       -3.440557    1.006956   -0.206286
     33          1           0       -2.726153    1.985423   -1.381958
     34          1           0       -1.621015    1.896599    1.012994
     35          1           0        0.157002    1.915693   -1.449863
     36          1           0        0.138382    3.039060   -0.039268
     37          1           0       -1.091289    3.147507   -1.190090
 ---------------------------------------------------------------------
 Rotational constants (GHZ):           0.9492654           0.3478489           0.3280366
 Standard basis: 6-31G(2df,p) (6D, 7F)
 There are   553 symmetry adapted cartesian basis functions of A   symmetry.
 There are   511 symmetry adapted basis functions of A   symmetry.
   511 basis functions,   801 primitive gaussians,   553 cartesian basis functions
    59 alpha electrons       59 beta electrons
       nuclear repulsion energy      1091.6221937576 Hartrees.
 NAtoms=   37 NActive=   37 NUniq=   37 SFac= 1.00D+00 NAtFMM=   60 NAOKFM=F Big=F
 Integral buffers will be    131072 words long.
 Raffenetti 2 integral format.
 Two-electron integral symmetry is turned on.
 One-electron integrals computed using PRISM.
 PrsmSu:  requested number of processors reduced to:  12 ShMem   1 Linda.
 NBasis=   511 RedAO= T EigKep=  3.26D-04  NBF=   511
 NBsUse=   511 1.00D-06 EigRej= -1.00D+00 NBFU=   511
 ExpMin= 1.17D-01 ExpMax= 2.19D+04 ExpMxC= 3.30D+03 IAcc=3 IRadAn=         5 AccDes= 0.00D+00
 Harris functional with IExCor=  402 and IRadAn=       5 diagonalized for initial guess.
 HarFok:  IExCor=  402 AccDes= 0.00D+00 IRadAn=         5 IDoV= 1 UseB2=F ITyADJ=14
 ICtDFT=  3500011 ScaDFX=  1.000000  1.000000  1.000000  1.000000
 FoFCou: FMM=F IPFlag=           0 FMFlag=      100000 FMFlg1=           0
         NFxFlg=           0 DoJE=T BraDBF=F KetDBF=T FulRan=T
         wScrn=  0.000000 ICntrl=       500 IOpCl=  0 I1Cent=   200000004 NGrid=           0
         NMat0=    1 NMatS0=      1 NMatT0=    0 NMatD0=    1 NMtDS0=    0 NMtDT0=    0
 Petite list used in FoFCou.
 Requested convergence on RMS density matrix=1.00D-08 within 128 cycles.
 Requested convergence on MAX density matrix=1.00D-06.
 Requested convergence on             energy=1.00D-06.
 No special actions if energy rises.
 Integral accuracy reduced to 1.0D-05 until final iterations.
 Initial convergence to 1.0D-05 achieved.  Increase integral accuracy.
 SCF Done:  E(RB3LYP) =  -924.054990778     A.U. after   13 cycles
            NFock= 13  Conv=0.80D-08     -V/T= 2.0062

 **********************************************************************

            Population analysis using the SCF density.

 **********************************************************************

 Orbital symmetries:
       Occupied  (A) (A) (A) (A) (A) (A) (A) (A) (A) (A) (A) (A)
                 (A) (A) (A) (A) (A) (A) (A) (A) (A) (A) (A) (A)
                 (A) (A) (A) (A) (A) (A) (A) (A) (A) (A) (A) (A)
                 (A) (A) (A) (A) (A) (A) (A) (A) (A) (A) (A) (A)
                 (A) (A) (A) (A) (A) (A) (A) (A) (A) (A) (A)
       Virtual   (A) (A) (A) (A) (A) (A) (A) (A) (A) (A) (A) (A)
                 (A) (A) (A) (A) (A) (A) (A) (A) (A) (A) (A) (A)
                 (A) (A) (A) (A) (A) (A) (A) (A) (A) (A) (A) (A)
                 (A) (A) (A) (A) (A) (A) (A) (A) (A) (A) (A) (A)
                 (A) (A) (A) (A) (A) (A) (A) (A) (A) (A) (A) (A)
                 (A) (A) (A) (A) (A) (A) (A) (A) (A) (A) (A) (A)
                 (A) (A) (A) (A) (A) (A) (A) (A) (A) (A) (A) (A)
                 (A) (A) (A) (A) (A) (A) (A) (A) (A) (A) (A) (A)
                 (A) (A) (A) (A) (A) (A) (A) (A) (A) (A) (A) (A)
                 (A) (A) (A) (A) (A) (A) (A) (A) (A) (A) (A) (A)
                 (A) (A) (A) (A) (A) (A) (A) (A) (A) (A) (A) (A)
                 (A) (A) (A) (A) (A) (A) (A) (A) (A) (A) (A) (A)
                 (A) (A) (A) (A) (A) (A) (A) (A) (A) (A) (A) (A)
                 (A) (A) (A) (A) (A) (A) (A) (A) (A) (A) (A) (A)
                 (A) (A) (A) (A) (A) (A) (A) (A) (A) (A) (A) (A)
                 (A) (A) (A) (A) (A) (A) (A) (A) (A) (A) (A) (A)
                 (A) (A) (A) (A) (A) (A) (A) (A) (A) (A) (A) (A)
                 (A) (A) (A) (A) (A) (A) (A) (A) (A) (A) (A) (A)
                 (A) (A) (A) (A) (A) (A) (A) (A) (A) (A) (A) (A)
                 (A) (A) (A) (A) (A) (A) (A) (A) (A) (A) (A) (A)
                 (A) (A) (A) (A) (A) (A) (A) (A) (A) (A) (A) (A)
                 (A) (A) (A) (A) (A) (A) (A) (A) (A) (A) (A) (A)
                 (A) (A) (A) (A) (A) (A) (A) (A) (A) (A) (A) (A)
                 (A) (A) (A) (A) (A) (A) (A) (A) (A) (A) (A) (A)
                 (A) (A) (A) (A) (A) (A) (A) (A) (A) (A) (A) (A)
                 (A) (A) (A) (A) (A) (A) (A) (A) (A) (A) (A) (A)
                 (A) (A) (A) (A) (A) (A) (A) (A) (A) (A) (A) (A)
                 (A) (A) (A) (A) (A) (A) (A) (A) (A) (A) (A) (A)
                 (A) (A) (A) (A) (A) (A) (A) (A) (A) (A) (A) (A)
                 (A) (A) (A) (A) (A) (A) (A) (A) (A) (A) (A) (A)
                 (A) (A) (A) (A) (A) (A) (A) (A) (A) (A) (A) (A)
                 (A) (A) (A) (A) (A) (A) (A) (A) (A) (A) (A) (A)
                 (A) (A) (A) (A) (A) (A) (A) (A) (A) (A) (A) (A)
                 (A) (A) (A) (A) (A) (A) (A) (A) (A) (A) (A) (A)
                 (A) (A) (A) (A) (A) (A) (A) (A) (A) (A) (A) (A)
                 (A) (A) (A) (A) (A) (A) (A) (A) (A) (A) (A) (A)
                 (A) (A) (A) (A) (A) (A) (A) (A) (A) (A) (A) (A)
                 (A) (A) (A) (A) (A) (A) (A) (A)
 The electronic state is 1-A.
 Alpha  occ. eigenvalues --  -88.85401 -14.30873 -10.21870 -10.21494 -10.20632
 Alpha  occ. eigenvalues --  -10.20198 -10.19198 -10.19055 -10.18702 -10.18218
 Alpha  occ. eigenvalues --  -10.17982 -10.17412 -10.17163 -10.16416  -7.91766
 Alpha  occ. eigenvalues --   -5.88237  -5.87906  -5.87291  -0.89837  -0.83180
 Alpha  occ. eigenvalues --   -0.79875  -0.78605  -0.76217  -0.71948  -0.69641
 Alpha  occ. eigenvalues --   -0.68083  -0.64799  -0.61728  -0.59330  -0.57217
 Alpha  occ. eigenvalues --   -0.55219  -0.52808  -0.48360  -0.46649  -0.46109
 Alpha  occ. eigenvalues --   -0.45477  -0.44450  -0.43960  -0.42602  -0.41743
 Alpha  occ. eigenvalues --   -0.41377  -0.40183  -0.39948  -0.38783  -0.37614
 Alpha  occ. eigenvalues --   -0.36795  -0.36639  -0.36267  -0.35406  -0.35211
 Alpha  occ. eigenvalues --   -0.33239  -0.31821  -0.31173  -0.30546  -0.29577
 Alpha  occ. eigenvalues --   -0.29119  -0.27236  -0.21546  -0.21369
 Alpha virt. eigenvalues --   -0.00017   0.03824   0.07608   0.08610   0.09038
 Alpha virt. eigenvalues --    0.09939   0.10840   0.11866   0.11968   0.13032
 Alpha virt. eigenvalues --    0.13646   0.14171   0.14890   0.15779   0.16142
 Alpha virt. eigenvalues --    0.16693   0.16979   0.17490   0.17719   0.18382
 Alpha virt. eigenvalues --    0.18838   0.19182   0.19704   0.20403   0.20819
 Alpha virt. eigenvalues --    0.21716   0.22177   0.24174   0.24480   0.24944
 Alpha virt. eigenvalues --    0.25501   0.26377   0.26912   0.27457   0.29338
 Alpha virt. eigenvalues --    0.30925   0.32068   0.33033   0.36579   0.37544
 Alpha virt. eigenvalues --    0.38295   0.40453   0.41467   0.42582   0.43749
 Alpha virt. eigenvalues --    0.44693   0.45915   0.47433   0.48002   0.49720
 Alpha virt. eigenvalues --    0.50784   0.51624   0.52542   0.53141   0.53432
 Alpha virt. eigenvalues --    0.54264   0.54672   0.55118   0.56659   0.57107
 Alpha virt. eigenvalues --    0.57615   0.57976   0.58954   0.59701   0.60761
 Alpha virt. eigenvalues --    0.61339   0.62108   0.63937   0.65680   0.67314
 Alpha virt. eigenvalues --    0.67426   0.68078   0.68406   0.69169   0.70026
 Alpha virt. eigenvalues --    0.70861   0.73015   0.73512   0.74057   0.74357
 Alpha virt. eigenvalues --    0.74743   0.75095   0.75422   0.75818   0.76244
 Alpha virt. eigenvalues --    0.76726   0.77077   0.77806   0.77972   0.79490
 Alpha virt. eigenvalues --    0.79663   0.80515   0.81176   0.82151   0.82783
 Alpha virt. eigenvalues --    0.83012   0.84994   0.85628   0.85975   0.86431
 Alpha virt. eigenvalues --    0.87572   0.88156   0.89238   0.89518   0.90089
 Alpha virt. eigenvalues --    0.91273   0.91577   0.93580   0.94401   0.95149
 Alpha virt. eigenvalues --    0.96376   0.96916   0.98777   1.01125   1.02528
 Alpha virt. eigenvalues --    1.04170   1.06251   1.09117   1.09719   1.12700
 Alpha virt. eigenvalues --    1.14254   1.15303   1.16398   1.19142   1.20373
 Alpha virt. eigenvalues --    1.21475   1.23521   1.24779   1.26098   1.27726
 Alpha virt. eigenvalues --    1.29866   1.30335   1.31611   1.33960   1.34365
 Alpha virt. eigenvalues --    1.34737   1.36903   1.37853   1.39083   1.39552
 Alpha virt. eigenvalues --    1.41500   1.43386   1.44528   1.46130   1.47357
 Alpha virt. eigenvalues --    1.48420   1.49218   1.50258   1.51085   1.52311
 Alpha virt. eigenvalues --    1.53198   1.53799   1.55751   1.56978   1.57444
 Alpha virt. eigenvalues --    1.57922   1.58731   1.59947   1.61298   1.62600
 Alpha virt. eigenvalues --    1.64014   1.65600   1.66328   1.67926   1.69144
 Alpha virt. eigenvalues --    1.71049   1.72228   1.73822   1.74725   1.76014
 Alpha virt. eigenvalues --    1.76685   1.78165   1.79315   1.81327   1.82327
 Alpha virt. eigenvalues --    1.82855   1.83305   1.85567   1.86380   1.89032
 Alpha virt. eigenvalues --    1.89521   1.90688   1.92278   1.92826   1.93246
 Alpha virt. eigenvalues --    1.94910   1.95685   1.97479   1.99098   2.00330
 Alpha virt. eigenvalues --    2.02545   2.03065   2.03729   2.05632   2.07724
 Alpha virt. eigenvalues --    2.09383   2.10768   2.13907   2.15268   2.19489
 Alpha virt. eigenvalues --    2.22826   2.23396   2.24470   2.26525   2.28281
 Alpha virt. eigenvalues --    2.30047   2.30825   2.31228   2.32547   2.35171
 Alpha virt. eigenvalues --    2.35200   2.37201   2.38916   2.39457   2.40386
 Alpha virt. eigenvalues --    2.42016   2.42685   2.44098   2.45380   2.46345
 Alpha virt. eigenvalues --    2.47632   2.48419   2.49514   2.51828   2.52292
 Alpha virt. eigenvalues --    2.54965   2.55471   2.56875   2.57446   2.59742
 Alpha virt. eigenvalues --    2.60727   2.64439   2.66868   2.67803   2.69572
 Alpha virt. eigenvalues --    2.71857   2.72440   2.72893   2.74106   2.75169
 Alpha virt. eigenvalues --    2.76396   2.77580   2.78943   2.80356   2.81405
 Alpha virt. eigenvalues --    2.81697   2.82958   2.83952   2.84727   2.85844
 Alpha virt. eigenvalues --    2.87253   2.88245   2.89079   2.89154   2.89517
 Alpha virt. eigenvalues --    2.90844   2.91993   2.92679   2.93579   2.94941
 Alpha virt. eigenvalues --    2.95697   2.96393   2.98062   2.98924   3.00203
 Alpha virt. eigenvalues --    3.01016   3.01998   3.03720   3.05246   3.05418
 Alpha virt. eigenvalues --    3.07608   3.08263   3.10437   3.12585   3.14840
 Alpha virt. eigenvalues --    3.16485   3.19075   3.21267   3.22015   3.23713
 Alpha virt. eigenvalues --    3.24497   3.26875   3.28181   3.28399   3.29156
 Alpha virt. eigenvalues --    3.30744   3.32504   3.34079   3.35169   3.35994
 Alpha virt. eigenvalues --    3.37207   3.39471   3.39979   3.41901   3.41955
 Alpha virt. eigenvalues --    3.44542   3.45896   3.47219   3.47957   3.48185
 Alpha virt. eigenvalues --    3.49997   3.51727   3.53213   3.55325   3.55389
 Alpha virt. eigenvalues --    3.56854   3.57682   3.58859   3.60279   3.60944
 Alpha virt. eigenvalues --    3.61641   3.62386   3.64337   3.66735   3.67449
 Alpha virt. eigenvalues --    3.67694   3.69154   3.70644   3.71521   3.73737
 Alpha virt. eigenvalues --    3.75995   3.77599   3.78835   3.80111   3.83422
 Alpha virt. eigenvalues --    3.83836   3.85538   3.86609   3.87860   3.89874
 Alpha virt. eigenvalues --    3.92358   3.94011   3.95862   3.97382   3.99134
 Alpha virt. eigenvalues --    4.01791   4.02680   4.04456   4.07117   4.09507
 Alpha virt. eigenvalues --    4.11668   4.14032   4.14497   4.16879   4.19959
 Alpha virt. eigenvalues --    4.22713   4.24405   4.26056   4.29134   4.31386
 Alpha virt. eigenvalues --    4.35296   4.37760   4.39457   4.40144   4.41807
 Alpha virt. eigenvalues --    4.43288   4.44262   4.45357   4.46092   4.47557
 Alpha virt. eigenvalues --    4.48320   4.49293   4.51692   4.52278   4.53255
 Alpha virt. eigenvalues --    4.53945   4.55597   4.56826   4.58623   4.59334
 Alpha virt. eigenvalues --    4.61883   4.61971   4.63319   4.63957   4.64830
 Alpha virt. eigenvalues --    4.65593   4.66323   4.67379   4.69214   4.70210
 Alpha virt. eigenvalues --    4.70992   4.72106   4.73263   4.73939   4.74167
 Alpha virt. eigenvalues --    4.76175   4.76974   4.77517   4.78031   4.79015
 Alpha virt. eigenvalues --    4.79873   4.81099   4.81934   4.83305   4.83754
 Alpha virt. eigenvalues --    4.84764   4.85990   4.86605   4.87700   4.89391
 Alpha virt. eigenvalues --    4.90034   4.90963   4.91586   4.93064   4.94437
 Alpha virt. eigenvalues --    4.96249   4.97720   4.99751   5.01386   5.02597
 Alpha virt. eigenvalues --    5.03786   5.09259   5.11089   5.15381   5.15801
 Alpha virt. eigenvalues --    5.17603   5.23253   5.24343   5.29182   5.32896
 Alpha virt. eigenvalues --    5.33448   5.35376   5.37368   5.40627   5.42191
 Alpha virt. eigenvalues --    5.46966   5.50123   5.50895   5.54237   5.54883
 Alpha virt. eigenvalues --    5.62622   5.66410   5.75106   5.86773   6.04872
 Alpha virt. eigenvalues --    6.17993   6.75425   6.96329  10.46343  11.22976
 Alpha virt. eigenvalues --   11.29991  11.35571  11.52634  11.71781  11.95975
 Alpha virt. eigenvalues --   12.00321  12.33309  12.43743  12.53061  12.88904
 Alpha virt. eigenvalues --   13.10592  15.31137
          Condensed to atoms (all electrons):
               1          2          3          4          5          6
     1  C    4.936880   0.413867  -0.041569   0.001237   0.000305  -0.000030
     2  C    0.413867   4.806674   0.300919  -0.012070  -0.004460   0.000864
     3  S   -0.041569   0.300919  15.879435   0.275479  -0.057965  -0.022788
     4  C    0.001237  -0.012070   0.275479   4.748306   0.389983   0.403284
     5  C    0.000305  -0.004460  -0.057965   0.389983   5.057342  -0.022225
     6  C   -0.000030   0.000864  -0.022788   0.403284  -0.022225   4.776782
     7  C    0.000000  -0.000035   0.001448  -0.023707   0.001496   0.385497
     8  C   -0.000000   0.000000  -0.000222   0.002611  -0.000132  -0.039525
     9  C   -0.000000   0.000000  -0.000061   0.000352  -0.000002  -0.002900
    10  N    0.000000  -0.000000  -0.000051   0.000294  -0.000003  -0.001727
    11  C    0.000000   0.000001  -0.000491  -0.000034   0.000010  -0.003565
    12  C   -0.000000  -0.000000  -0.000107   0.002941   0.000163  -0.034644
    13  C    0.000000  -0.000029   0.000826  -0.021714  -0.009387   0.414242
    14  C    0.000001   0.000002  -0.002518  -0.008654  -0.009266  -0.025897
    15  H    0.371904  -0.025063   0.003882  -0.000066   0.000007   0.000000
    16  H    0.382565  -0.029146   0.001132   0.000048  -0.000020   0.000003
    17  H    0.382001  -0.028428  -0.000209   0.000031   0.000009  -0.000000
    18  H   -0.030442   0.374545  -0.051714  -0.003088   0.004574   0.000043
    19  H   -0.032306   0.375003  -0.052199  -0.000585  -0.001535   0.000046
    20  H   -0.000020  -0.001257  -0.056278   0.366804  -0.053166  -0.040376
    21  H   -0.000079  -0.001731  -0.002888  -0.023426   0.380027  -0.003919
    22  H    0.000048   0.000853  -0.003644  -0.017564   0.362826   0.003776
    23  H   -0.000007   0.000225   0.006924  -0.025756   0.367203  -0.008780
    24  H   -0.000002   0.000216  -0.009113  -0.044782   0.005312   0.350970
    25  H    0.000000   0.000004  -0.000085  -0.002429   0.000332  -0.029467
    26  H    0.000000  -0.000010   0.001589  -0.004341  -0.000008  -0.027687
    27  H   -0.000000   0.000000  -0.000003   0.000060   0.000004  -0.005255
    28  H    0.000000  -0.000000   0.000004  -0.000067   0.000001   0.004212
    29  H   -0.000000  -0.000000  -0.000005  -0.000017   0.000000   0.000036
    30  H   -0.000000   0.000000   0.000004  -0.000004  -0.000000   0.000411
    31  H   -0.000000  -0.000001   0.001320  -0.000331   0.000002   0.002525
    32  H    0.000000  -0.000000   0.000007  -0.000118   0.000006   0.001147
    33  H    0.000000  -0.000000   0.000003  -0.000048  -0.000006   0.003551
    34  H   -0.000000   0.000002  -0.000173  -0.000962   0.000294  -0.048344
    35  H   -0.000003  -0.000002   0.004841  -0.001139  -0.002697  -0.007055
    36  H    0.000000   0.000011   0.000096   0.000019  -0.007024   0.000365
    37  H   -0.000000  -0.000000   0.000053   0.000263   0.000453   0.002940
               7          8          9         10         11         12
     1  C    0.000000  -0.000000  -0.000000   0.000000   0.000000  -0.000000
     2  C   -0.000035   0.000000   0.000000  -0.000000   0.000001  -0.000000
     3  S    0.001448  -0.000222  -0.000061  -0.000051  -0.000491  -0.000107
     4  C   -0.023707   0.002611   0.000352   0.000294  -0.000034   0.002941
     5  C    0.001496  -0.000132  -0.000002  -0.000003   0.000010   0.000163
     6  C    0.385497  -0.039525  -0.002900  -0.001727  -0.003565  -0.034644
     7  C    4.925402   0.379586  -0.030019  -0.006005   0.001164  -0.002044
     8  C    0.379586   5.070683   0.363958  -0.055246  -0.014009   0.010337
     9  C   -0.030019   0.363958   4.715726   0.713413  -0.106501  -0.001394
    10  N   -0.006005  -0.055246   0.713413   6.217913   0.429649  -0.050653
    11  C    0.001164  -0.014009  -0.106501   0.429649   4.823068   0.357039
    12  C   -0.002044   0.010337  -0.001394  -0.050653   0.357039   5.005997
    13  C   -0.029154  -0.000040  -0.002218  -0.000859  -0.018939   0.407667
    14  C    0.003184   0.000023   0.000106  -0.000103  -0.003489  -0.037953
    15  H   -0.000000   0.000000   0.000000  -0.000000   0.000000   0.000000
    16  H    0.000000   0.000000   0.000000   0.000000  -0.000000  -0.000000
    17  H   -0.000000  -0.000000  -0.000000  -0.000000  -0.000000   0.000000
    18  H   -0.000004   0.000000   0.000000  -0.000000   0.000000   0.000000
    19  H    0.000009   0.000000  -0.000000  -0.000000  -0.000000  -0.000000
    20  H   -0.009523   0.000476   0.000002  -0.000004   0.000001  -0.000109
    21  H   -0.000052   0.000005   0.000000   0.000000  -0.000006   0.000016
    22  H   -0.000021   0.000002   0.000000   0.000000   0.000000  -0.000002
    23  H    0.000569  -0.000032  -0.000001  -0.000000  -0.000000  -0.000035
    24  H   -0.041921  -0.008845   0.011589   0.000311   0.005526  -0.012453
    25  H    0.352924  -0.028939   0.003173  -0.000078   0.000008  -0.000414
    26  H    0.363026  -0.034381  -0.003119   0.000231  -0.000081   0.000020
    27  H   -0.026279   0.366322  -0.025195  -0.005547  -0.000765  -0.001305
    28  H   -0.025460   0.344744  -0.020106   0.003817   0.000158   0.000019
    29  H    0.003222  -0.087508   0.365930  -0.026154   0.007090  -0.000619
    30  H   -0.000142  -0.000066   0.001825  -0.023144   0.366091  -0.040210
    31  H    0.000378   0.000392  -0.000561  -0.026341   0.366155  -0.042445
    32  H    0.000018  -0.004619   0.000951  -0.007254  -0.031793   0.359447
    33  H    0.000108  -0.000132  -0.000105   0.003664  -0.023440   0.348030
    34  H   -0.007559  -0.000921   0.000160  -0.000149   0.003852  -0.037243
    35  H    0.000132  -0.000002  -0.000004   0.000058   0.000523  -0.001354
    36  H   -0.000067   0.000012  -0.000002  -0.000000   0.000048   0.004374
    37  H   -0.000120   0.000002  -0.000005  -0.000007   0.000055  -0.013923
              13         14         15         16         17         18
     1  C    0.000000   0.000001   0.371904   0.382565   0.382001  -0.030442
     2  C   -0.000029   0.000002  -0.025063  -0.029146  -0.028428   0.374545
     3  S    0.000826  -0.002518   0.003882   0.001132  -0.000209  -0.051714
     4  C   -0.021714  -0.008654  -0.000066   0.000048   0.000031  -0.003088
     5  C   -0.009387  -0.009266   0.000007  -0.000020   0.000009   0.004574
     6  C    0.414242  -0.025897   0.000000   0.000003  -0.000000   0.000043
     7  C   -0.029154   0.003184  -0.000000   0.000000  -0.000000  -0.000004
     8  C   -0.000040   0.000023   0.000000   0.000000  -0.000000   0.000000
     9  C   -0.002218   0.000106   0.000000   0.000000  -0.000000   0.000000
    10  N   -0.000859  -0.000103  -0.000000   0.000000  -0.000000  -0.000000
    11  C   -0.018939  -0.003489   0.000000  -0.000000  -0.000000   0.000000
    12  C    0.407667  -0.037953   0.000000  -0.000000   0.000000   0.000000
    13  C    4.666265   0.390615  -0.000000  -0.000000   0.000000   0.000016
    14  C    0.390615   5.064235   0.000000  -0.000001   0.000000  -0.000000
    15  H   -0.000000   0.000000   0.602909  -0.031811  -0.031199  -0.001977
    16  H   -0.000000  -0.000001  -0.031811   0.575362  -0.031293  -0.005284
    17  H    0.000000   0.000000  -0.031199  -0.031293   0.573832   0.005395
    18  H    0.000016  -0.000000  -0.001977  -0.005284   0.005395   0.629765
    19  H   -0.000003  -0.000002  -0.002772   0.005432  -0.004200  -0.045803
    20  H    0.002578  -0.000225   0.000002   0.000007  -0.000011  -0.000429
    21  H   -0.000273  -0.006254   0.000005   0.000023  -0.000001   0.002528
    22  H    0.000133   0.000762   0.000001   0.000012  -0.000000   0.001104
    23  H    0.002144  -0.004823  -0.000000  -0.000000   0.000000  -0.000309
    24  H   -0.035817   0.000013   0.000000   0.000000   0.000001   0.000012
    25  H   -0.007958   0.000111   0.000000  -0.000000   0.000000   0.000000
    26  H    0.003141  -0.000160  -0.000000  -0.000000   0.000000   0.000001
    27  H    0.001670  -0.000072   0.000000   0.000000  -0.000000  -0.000000
    28  H    0.000052  -0.000002  -0.000000   0.000000   0.000000  -0.000000
    29  H    0.000070   0.000001  -0.000000   0.000000  -0.000000  -0.000000
    30  H    0.004415  -0.000069   0.000000   0.000000  -0.000000  -0.000000
    31  H   -0.010109   0.001068  -0.000000   0.000000  -0.000000  -0.000000
    32  H   -0.032824   0.005871  -0.000000  -0.000000   0.000000   0.000000
    33  H   -0.031567  -0.019804  -0.000000   0.000000   0.000000  -0.000000
    34  H    0.352519  -0.044999   0.000000  -0.000000  -0.000000  -0.000000
    35  H   -0.024257   0.376145  -0.000000   0.000002  -0.000000  -0.000047
    36  H   -0.022562   0.374121   0.000000  -0.000000  -0.000000  -0.000021
    37  H   -0.021829   0.363679  -0.000000   0.000000  -0.000000   0.000000
              19         20         21         22         23         24
     1  C   -0.032306  -0.000020  -0.000079   0.000048  -0.000007  -0.000002
     2  C    0.375003  -0.001257  -0.001731   0.000853   0.000225   0.000216
     3  S   -0.052199  -0.056278  -0.002888  -0.003644   0.006924  -0.009113
     4  C   -0.000585   0.366804  -0.023426  -0.017564  -0.025756  -0.044782
     5  C   -0.001535  -0.053166   0.380027   0.362826   0.367203   0.005312
     6  C    0.000046  -0.040376  -0.003919   0.003776  -0.008780   0.350970
     7  C    0.000009  -0.009523  -0.000052  -0.000021   0.000569  -0.041921
     8  C    0.000000   0.000476   0.000005   0.000002  -0.000032  -0.008845
     9  C   -0.000000   0.000002   0.000000   0.000000  -0.000001   0.011589
    10  N   -0.000000  -0.000004   0.000000   0.000000  -0.000000   0.000311
    11  C   -0.000000   0.000001  -0.000006   0.000000  -0.000000   0.005526
    12  C   -0.000000  -0.000109   0.000016  -0.000002  -0.000035  -0.012453
    13  C   -0.000003   0.002578  -0.000273   0.000133   0.002144  -0.035817
    14  C   -0.000002  -0.000225  -0.006254   0.000762  -0.004823   0.000013
    15  H   -0.002772   0.000002   0.000005   0.000001  -0.000000   0.000000
    16  H    0.005432   0.000007   0.000023   0.000012  -0.000000   0.000000
    17  H   -0.004200  -0.000011  -0.000001  -0.000000   0.000000   0.000001
    18  H   -0.045803  -0.000429   0.002528   0.001104  -0.000309   0.000012
    19  H    0.635584   0.004371   0.000332   0.001286   0.000004   0.000004
    20  H    0.004371   0.676707   0.006192  -0.007746   0.001082   0.004891
    21  H    0.000332   0.006192   0.570069  -0.036194  -0.032725   0.000146
    22  H    0.001286  -0.007746  -0.036194   0.620567  -0.033228  -0.000178
    23  H    0.000004   0.001082  -0.032725  -0.033228   0.610273   0.000032
    24  H    0.000004   0.004891   0.000146  -0.000178   0.000032   0.637628
    25  H   -0.000000   0.002582   0.000009  -0.000061   0.000620   0.006831
    26  H   -0.000004   0.004705  -0.000001  -0.000002  -0.000001  -0.003122
    27  H   -0.000000   0.000006  -0.000000   0.000000  -0.000002   0.000377
    28  H    0.000000  -0.000022  -0.000000  -0.000000   0.000001  -0.000035
    29  H    0.000000  -0.000001  -0.000000   0.000000  -0.000000  -0.000205
    30  H    0.000000   0.000000   0.000000  -0.000000  -0.000000   0.000093
    31  H    0.000000   0.000010  -0.000001  -0.000000   0.000001  -0.001803
    32  H    0.000000   0.000002  -0.000002  -0.000000   0.000004  -0.000007
    33  H    0.000000   0.000002   0.000008  -0.000000   0.000005   0.000069
    34  H   -0.000000   0.000013   0.000242  -0.000019   0.001844   0.006683
    35  H    0.000004   0.000041   0.002961   0.000051   0.000181   0.001719
    36  H    0.000000   0.000042   0.000116   0.000672   0.000866  -0.000232
    37  H    0.000000   0.000007   0.000400  -0.000031   0.000170  -0.000051
              25         26         27         28         29         30
     1  C    0.000000   0.000000  -0.000000   0.000000  -0.000000  -0.000000
     2  C    0.000004  -0.000010   0.000000  -0.000000  -0.000000   0.000000
     3  S   -0.000085   0.001589  -0.000003   0.000004  -0.000005   0.000004
     4  C   -0.002429  -0.004341   0.000060  -0.000067  -0.000017  -0.000004
     5  C    0.000332  -0.000008   0.000004   0.000001   0.000000  -0.000000
     6  C   -0.029467  -0.027687  -0.005255   0.004212   0.000036   0.000411
     7  C    0.352924   0.363026  -0.026279  -0.025460   0.003222  -0.000142
     8  C   -0.028939  -0.034381   0.366322   0.344744  -0.087508  -0.000066
     9  C    0.003173  -0.003119  -0.025195  -0.020106   0.365930   0.001825
    10  N   -0.000078   0.000231  -0.005547   0.003817  -0.026154  -0.023144
    11  C    0.000008  -0.000081  -0.000765   0.000158   0.007090   0.366091
    12  C   -0.000414   0.000020  -0.001305   0.000019  -0.000619  -0.040210
    13  C   -0.007958   0.003141   0.001670   0.000052   0.000070   0.004415
    14  C    0.000111  -0.000160  -0.000072  -0.000002   0.000001  -0.000069
    15  H    0.000000  -0.000000   0.000000  -0.000000  -0.000000   0.000000
    16  H   -0.000000  -0.000000   0.000000   0.000000   0.000000   0.000000
    17  H    0.000000   0.000000  -0.000000   0.000000  -0.000000  -0.000000
    18  H    0.000000   0.000001  -0.000000  -0.000000  -0.000000  -0.000000
    19  H   -0.000000  -0.000004  -0.000000   0.000000   0.000000   0.000000
    20  H    0.002582   0.004705   0.000006  -0.000022  -0.000001   0.000000
    21  H    0.000009  -0.000001  -0.000000  -0.000000  -0.000000   0.000000
    22  H   -0.000061  -0.000002   0.000000  -0.000000   0.000000  -0.000000
    23  H    0.000620  -0.000001  -0.000002   0.000001  -0.000000  -0.000000
    24  H    0.006831  -0.003122   0.000377  -0.000035  -0.000205   0.000093
    25  H    0.649294  -0.040532  -0.005520  -0.001025  -0.000251   0.000003
    26  H   -0.040532   0.635774   0.005881  -0.007108   0.001010   0.000001
    27  H   -0.005520   0.005881   0.611058  -0.039727   0.004715   0.000122
    28  H   -0.001025  -0.007108  -0.039727   0.652870  -0.005139   0.000014
    29  H   -0.000251   0.001010   0.004715  -0.005139   0.637761  -0.000162
    30  H    0.000003   0.000001   0.000122   0.000014  -0.000162   0.629483
    31  H   -0.000016  -0.000027  -0.000188   0.000001  -0.000209  -0.039057
    32  H   -0.000042  -0.000030  -0.001070   0.000340  -0.000118  -0.001234
    33  H   -0.000021   0.000009   0.000370  -0.000016   0.000013  -0.006292
    34  H    0.006796   0.000054   0.000697  -0.000137  -0.000002  -0.000198
    35  H    0.000007   0.000001   0.000002   0.000000   0.000000  -0.000129
    36  H   -0.000020   0.000003  -0.000000  -0.000000  -0.000000   0.000006
    37  H   -0.000002   0.000002   0.000006  -0.000000   0.000000  -0.000063
              31         32         33         34         35         36
     1  C   -0.000000   0.000000   0.000000  -0.000000  -0.000003   0.000000
     2  C   -0.000001  -0.000000  -0.000000   0.000002  -0.000002   0.000011
     3  S    0.001320   0.000007   0.000003  -0.000173   0.004841   0.000096
     4  C   -0.000331  -0.000118  -0.000048  -0.000962  -0.001139   0.000019
     5  C    0.000002   0.000006  -0.000006   0.000294  -0.002697  -0.007024
     6  C    0.002525   0.001147   0.003551  -0.048344  -0.007055   0.000365
     7  C    0.000378   0.000018   0.000108  -0.007559   0.000132  -0.000067
     8  C    0.000392  -0.004619  -0.000132  -0.000921  -0.000002   0.000012
     9  C   -0.000561   0.000951  -0.000105   0.000160  -0.000004  -0.000002
    10  N   -0.026341  -0.007254   0.003664  -0.000149   0.000058  -0.000000
    11  C    0.366155  -0.031793  -0.023440   0.003852   0.000523   0.000048
    12  C   -0.042445   0.359447   0.348030  -0.037243  -0.001354   0.004374
    13  C   -0.010109  -0.032824  -0.031567   0.352519  -0.024257  -0.022562
    14  C    0.001068   0.005871  -0.019804  -0.044999   0.376145   0.374121
    15  H   -0.000000  -0.000000  -0.000000   0.000000  -0.000000   0.000000
    16  H    0.000000  -0.000000   0.000000  -0.000000   0.000002  -0.000000
    17  H   -0.000000   0.000000   0.000000  -0.000000  -0.000000  -0.000000
    18  H   -0.000000   0.000000  -0.000000  -0.000000  -0.000047  -0.000021
    19  H    0.000000   0.000000   0.000000  -0.000000   0.000004   0.000000
    20  H    0.000010   0.000002   0.000002   0.000013   0.000041   0.000042
    21  H   -0.000001  -0.000002   0.000008   0.000242   0.002961   0.000116
    22  H   -0.000000  -0.000000  -0.000000  -0.000019   0.000051   0.000672
    23  H    0.000001   0.000004   0.000005   0.001844   0.000181   0.000866
    24  H   -0.001803  -0.000007   0.000069   0.006683   0.001719  -0.000232
    25  H   -0.000016  -0.000042  -0.000021   0.006796   0.000007  -0.000020
    26  H   -0.000027  -0.000030   0.000009   0.000054   0.000001   0.000003
    27  H   -0.000188  -0.001070   0.000370   0.000697   0.000002  -0.000000
    28  H    0.000001   0.000340  -0.000016  -0.000137   0.000000  -0.000000
    29  H   -0.000209  -0.000118   0.000013  -0.000002   0.000000  -0.000000
    30  H   -0.039057  -0.001234  -0.006292  -0.000198  -0.000129   0.000006
    31  H    0.610183   0.006013   0.000121   0.000099   0.002621  -0.000144
    32  H    0.006013   0.656116  -0.040041  -0.008775  -0.000136  -0.000362
    33  H    0.000121  -0.040041   0.668645   0.002228   0.000998   0.000602
    34  H    0.000099  -0.008775   0.002228   0.711114   0.006178  -0.008613
    35  H    0.002621  -0.000136   0.000998   0.006178   0.571658  -0.031456
    36  H   -0.000144  -0.000362   0.000602  -0.008613  -0.031456   0.608771
    37  H    0.000331   0.000824   0.006432  -0.000460  -0.031909  -0.035986
              37
     1  C   -0.000000
     2  C   -0.000000
     3  S    0.000053
     4  C    0.000263
     5  C    0.000453
     6  C    0.002940
     7  C   -0.000120
     8  C    0.000002
     9  C   -0.000005
    10  N   -0.000007
    11  C    0.000055
    12  C   -0.013923
    13  C   -0.021829
    14  C    0.363679
    15  H   -0.000000
    16  H    0.000000
    17  H   -0.000000
    18  H    0.000000
    19  H    0.000000
    20  H    0.000007
    21  H    0.000400
    22  H   -0.000031
    23  H    0.000170
    24  H   -0.000051
    25  H   -0.000002
    26  H    0.000002
    27  H    0.000006
    28  H   -0.000000
    29  H    0.000000
    30  H   -0.000063
    31  H    0.000331
    32  H    0.000824
    33  H    0.006432
    34  H   -0.000460
    35  H   -0.031909
    36  H   -0.035986
    37  H    0.625330
 Mulliken charges:
               1
     1  C   -0.384350
     2  C   -0.170953
     3  S   -0.175880
     4  C   -0.000808
     5  C   -0.402451
     6  C   -0.026510
     7  C   -0.216052
     8  C   -0.264536
     9  C    0.015005
    10  N   -0.166026
    11  C   -0.157323
    12  C   -0.219143
    13  C    0.023185
    14  C   -0.415645
    15  H    0.114178
    16  H    0.132969
    17  H    0.134071
    18  H    0.121135
    19  H    0.117335
    20  H    0.098643
    21  H    0.144473
    22  H    0.106597
    23  H    0.113555
    24  H    0.126141
    25  H    0.094168
    26  H    0.105168
    27  H    0.119637
    28  H    0.092612
    29  H    0.100542
    30  H    0.108302
    31  H    0.130014
    32  H    0.097679
    33  H    0.086613
    34  H    0.065781
    35  H    0.132065
    36  H    0.116367
    37  H    0.103441
 Sum of Mulliken charges =  -0.00000
 Mulliken charges with hydrogens summed into heavy atoms:
               1
     1  C   -0.003131
     2  C    0.067517
     3  S   -0.175880
     4  C    0.097835
     5  C   -0.037826
     6  C    0.099630
     7  C   -0.016716
     8  C   -0.052286
     9  C    0.115547
    10  N   -0.166026
    11  C    0.080993
    12  C   -0.034851
    13  C    0.088966
    14  C   -0.063772
 Electronic spatial extent (au):  <R**2>=           3880.9923
 Charge=             -0.0000 electrons
 Dipole moment (field-independent basis, Debye):
    X=              0.6644    Y=              1.9670    Z=              2.3459  Tot=              3.1327
 Quadrupole moment (field-independent basis, Debye-Ang):
   XX=            -90.4292   YY=            -98.5339   ZZ=            -96.3604
   XY=             -2.0320   XZ=             -2.3291   YZ=             -4.3260
 Traceless Quadrupole moment (field-independent basis, Debye-Ang):
   XX=              4.6786   YY=             -3.4261   ZZ=             -1.2526
   XY=             -2.0320   XZ=             -2.3291   YZ=             -4.3260
 Octapole moment (field-independent basis, Debye-Ang**2):
  XXX=             33.8815  YYY=              0.2915  ZZZ=              0.6237  XYY=              1.3477
  XXY=              7.3185  XXZ=             11.5751  XZZ=              2.6663  YZZ=              4.9685
  YYZ=              9.2397  XYZ=             11.1435
 Hexadecapole moment (field-independent basis, Debye-Ang**3):
 XXXX=          -3392.7697 YYYY=          -1007.5646 ZZZZ=           -761.5321 XXXY=            -32.1188
 XXXZ=            -24.6323 YYYX=              3.4893 YYYZ=            -14.1639 ZZZX=              3.2876
 ZZZY=            -10.9303 XXYY=           -762.4715 XXZZ=           -715.2542 YYZZ=           -306.9860
 XXYZ=            -32.3642 YYXZ=            -21.9288 ZZXY=            -17.6181
 N-N= 1.091622193758D+03 E-N=-4.346832145627D+03  KE= 9.184042345781D+02
 PrsmSu:  requested number of processors reduced to:  13 ShMem   1 Linda.
 Calling FoFJK, ICntrl=      2127 FMM=F ISym2X=0 I1Cent= 0 IOpClX= 0 NMat=1 NMatS=1 NMatT=0.
 ***** Axes restored to original set *****
 -------------------------------------------------------------------
 Center     Atomic                   Forces (Hartrees/Bohr)
 Number     Number              X              Y              Z
 -------------------------------------------------------------------
      1        6          -0.008051936   -0.000290761   -0.001940592
      2        6          -0.002751262    0.000833898   -0.001600270
      3       16           0.006455016   -0.000728199    0.005021736
      4        6          -0.001351580    0.002876946    0.002783226
      5        6          -0.000014524    0.008005667   -0.010842658
      6        6           0.002138037   -0.007297042    0.004768875
      7        6          -0.001143799    0.006705127   -0.008350437
      8        6           0.009701029   -0.010569213    0.003348229
      9        6          -0.018991014    0.027867897    0.017040560
     10        7          -0.003612546   -0.026007429   -0.007000332
     11        6           0.014576086   -0.010003622    0.004312238
     12        6           0.006354634    0.007185271    0.000794827
     13        6           0.004310095    0.005270925   -0.000231919
     14        6           0.002832693    0.011310515   -0.006758058
     15        1          -0.000594080   -0.000039096   -0.000832344
     16        1           0.000626851   -0.001920199   -0.000219375
     17        1          -0.000308239    0.000934399    0.000216765
     18        1           0.002754369   -0.001805825    0.000575989
     19        1           0.001134613    0.000459730   -0.001421276
     20        1           0.001522914   -0.000529310    0.003967550
     21        1           0.006654924   -0.002033155   -0.001278215
     22        1           0.000540960   -0.006894296   -0.003058811
     23        1          -0.000381086    0.002916809   -0.000519479
     24        1          -0.001388438    0.003134088    0.002340208
     25        1           0.000613165   -0.000769179   -0.001169474
     26        1          -0.002100403    0.003030863   -0.000912230
     27        1          -0.001227627    0.003435058   -0.000105430
     28        1          -0.001714588   -0.001412672   -0.003921233
     29        1           0.000757430    0.004392543    0.002975089
     30        1          -0.002312158   -0.003565840    0.002826619
     31        1          -0.000821310   -0.005373105    0.000959715
     32        1          -0.001985096   -0.006419800   -0.000025425
     33        1          -0.002769886    0.000515493   -0.004007574
     34        1           0.000037951   -0.001204637   -0.000430256
     35        1          -0.000534785    0.003960737   -0.002981479
     36        1          -0.007804456   -0.000906692   -0.001668828
     37        1          -0.001151955   -0.005065899    0.007344072
 -------------------------------------------------------------------
 Cartesian Forces:  Max     0.027867897 RMS     0.006097752

 GradGradGradGradGradGradGradGradGradGradGradGradGradGradGradGradGradGrad
 Berny optimization.
 FormGI is forming the generalized inverse of G from B-inverse, IUseBI=4.
 Internal  Forces:  Max     0.029221867 RMS     0.005883490
 Search for a local minimum.
 Step number   1 out of a maximum of  216
 All quantities printed in internal units (Hartrees-Bohrs-Radians)
 Mixed Optimization -- RFO/linear search
 Second derivative matrix not updated -- first step.
 ITU=  0
     Eigenvalues ---    0.00230   0.00230   0.00230   0.00303   0.00334
     Eigenvalues ---    0.00417   0.00524   0.00571   0.00858   0.01172
     Eigenvalues ---    0.01437   0.01642   0.02394   0.02817   0.03091
     Eigenvalues ---    0.03622   0.03868   0.04114   0.04243   0.04438
     Eigenvalues ---    0.04727   0.04761   0.04976   0.05191   0.05260
     Eigenvalues ---    0.05311   0.05396   0.05517   0.05517   0.05548
     Eigenvalues ---    0.05620   0.05643   0.05730   0.05955   0.05981
     Eigenvalues ---    0.07337   0.07669   0.07935   0.08473   0.08675
     Eigenvalues ---    0.09334   0.09527   0.10698   0.12051   0.12293
     Eigenvalues ---    0.13363   0.13450   0.13541   0.15985   0.16000
     Eigenvalues ---    0.16000   0.16000   0.16000   0.16000   0.16000
     Eigenvalues ---    0.16000   0.16000   0.16000   0.16597   0.17326
     Eigenvalues ---    0.17571   0.18661   0.18873   0.19543   0.21766
     Eigenvalues ---    0.21942   0.22024   0.22421   0.24450   0.25000
     Eigenvalues ---    0.25022   0.25755   0.26310   0.26657   0.28993
     Eigenvalues ---    0.29176   0.29723   0.30530   0.30876   0.31276
     Eigenvalues ---    0.33523   0.33692   0.33775   0.33885   0.33913
     Eigenvalues ---    0.33978   0.34021   0.34061   0.34061   0.34231
     Eigenvalues ---    0.34264   0.34268   0.34357   0.34363   0.34421
     Eigenvalues ---    0.34424   0.34432   0.34449   0.34740   0.34747
[...]
 ,-0.00113450,0.00078860,0.00142614,-0.00162583,-0.00218641,0.00296426,
 -0.00482343,-0.02010844,-0.00745854,-0.05671978,-0.04389491,-0.0192561
 5,-0.00455680,-0.01166461,-0.00775927,-0.00004346,-0.00156286,-0.00061
 796,-0.00000843,0.00000031,-0.00000467,-0.00000263,0.00000302,-0.00000
 243,-0.00000061,-0.00000093,0.00000148,0.00000502,-0.00000256,0.000007
 93,0.00000940,0.00002115,0.00002592,-0.00011521,0.00001558,-0.00029946
 ,0.00003099,0.00003066,-0.00000315,0.00002326,0.00003549,-0.00002283,0
 .00000567,0.00000936,0.00000670,0.00015624,0.00015543,0.00021085,-0.00
 000132,-0.00009892,-0.00014017,0.00002939,-0.00005355,0.00002872,0.000
 89182,0.00020409,0.00031869,0.00043639,0.00032875,0.00019355,-0.000009
 51,-0.00015233,-0.00051606,0.00089481,0.00037044,-0.00018093,0.0001833
 2,0.00040772,-0.00077623,0.00573042,0.02532636,0.01162247,0.06162001,0
 .00000612,-0.00001986,-0.00002874,-0.00005243,0.00007864,0.00001449,-0
 .00001810,-0.00002984,-0.00007435,0.00010301,0.00018366,0.00026541,-0.
 00001319,0.00001422,-0.00006148,0.00105943,0.00065231,0.00088610,0.000
 18385,-0.00005248,0.00040534,0.00099485,-0.00002950,0.00007797,-0.0002
 3742,0.00125232,0.00062199,-0.00240624,-0.00041922,0.00317876,-0.00277
 224,-0.01690696,-0.00687640,-0.04579252,-0.24458555,-0.09258890,0.0017
 1059,0.00295232,0.00227199,0.00109195,0.00054044,0.00170623,-0.0000144
 0,0.00000082,-0.00000646,-0.00000131,0.00000448,-0.00000014,0.00000179
 ,-0.00000049,0.00000281,0.00000090,-0.00000295,-0.00000637,0.00001295,
 0.00000313,0.00002407,0.00000117,0.00002648,0.00008795,0.00001096,0.00
 000277,-0.00000909,0.00000276,0.00001508,-0.00002517,-0.00002531,-0.00
 000807,0.00002708,0.00006476,0.00003430,0.00012636,0.00001640,0.000085
 28,-0.00005857,-0.00003449,0.00000135,-0.00007811,-0.00040586,-0.00035
 651,-0.00052020,-0.00031790,-0.00010826,-0.00006405,-0.00004903,-0.000
 17917,-0.00016839,0.00061686,0.00014499,0.00045073,-0.00031622,0.00085
 679,-0.00015205,-0.00244975,-0.01421311,-0.00633337,0.04868307,0.26869
 793,0.00002347,-0.00003234,-0.00006981,-0.00013946,0.00014023,0.000035
 06,0.00013931,-0.00012195,-0.00010192,-0.00041071,-0.00184341,-0.00015
 277,-0.00015600,-0.00008560,0.00005518,-0.00133112,0.00377824,-0.00426
 318,-0.00038090,0.00064880,0.00009740,-0.00010699,-0.00017567,0.000264
 19,0.00119629,-0.00065263,-0.00137539,0.00282863,0.00241144,-0.0022013
 6,0.00457970,0.02118602,0.00683360,-0.01969487,-0.09204852,-0.08612561
 ,-0.00892146,-0.02595515,-0.01632412,0.00063235,-0.00192212,0.00076135
 ,-0.00003485,0.00000068,-0.00001857,-0.00000477,0.00000619,0.00000255,
 -0.00000288,0.00000179,0.00000838,0.00000818,-0.00001152,-0.00000250,0
 .00001846,0.00002696,0.00002569,-0.00022440,0.00004852,-0.00061790,0.0
 0004107,0.00005529,-0.00000134,0.00003836,0.00005856,-0.00005171,0.000
 01499,-0.00000490,0.00002201,-0.00015414,-0.00002236,0.00002110,0.0001
 0584,-0.00007799,0.00011201,0.00003511,-0.00009744,-0.00003586,-0.0001
 9607,-0.00008929,0.00006045,-0.00003878,-0.00008153,0.00005433,-0.0001
 7426,0.00030605,0.00029596,-0.00053892,0.00038231,0.00091241,-0.000318
 13,-0.00058844,0.00079885,-0.00046204,-0.00364318,-0.00185474,0.022906
 73,0.09692845,0.10153748,0.00001373,0.00000323,-0.00003122,0.00011476,
 -0.00000771,0.00009798,0.00005248,0.00012296,-0.00007965,-0.00046218,-
 0.00052954,0.00117505,0.00040085,-0.00069991,0.00028374,-0.01087598,-0
 .00655013,0.00535282,0.00041893,0.00057653,-0.00031622,-0.00003684,0.0
 0007750,-0.00003313,-0.00002179,0.00010256,0.00000629,0.00020151,0.000
 08858,0.00005933,-0.00067683,-0.00000640,-0.00217268,0.00811429,0.0061
 8904,-0.00938017,-0.18311405,-0.07184654,0.09952512,-0.02090868,-0.007
 20872,0.01317748,-0.00001215,-0.00000075,-0.00000350,-0.00000264,0.000
 00141,0.00000941,0.00001920,0.00000491,0.00000592,-0.00001574,-0.00001
 151,-0.00013044,-0.00001524,-0.00001546,-0.00003990,0.00018367,0.00011
 531,-0.00015456,-0.00028594,0.00093074,-0.00034130,0.00035605,0.000588
 71,0.00024865,0.00026604,-0.00021880,-0.00009700,0.00010399,-0.0019993
 9,-0.00161113,0.00052763,-0.00050832,-0.00009057,0.00013510,-0.0000405
 6,-0.00017440,0.00003171,0.00002986,0.00003446,-0.00002416,-0.00000436
 ,0.00002225,0.00000430,0.00002452,0.00001481,0.00029747,0.00013350,-0.
 00055216,0.00012570,0.00002042,-0.00032595,0.00140054,0.00001066,0.000
 27393,0.00028559,0.00004261,0.00069925,0.20429044,0.00000796,-0.000007
 49,-0.00003496,-0.00001494,0.00008028,0.00004018,0.00019768,0.00007384
 ,-0.00015283,0.00037796,0.00035304,0.00127115,-0.00018483,0.00050930,0
 .00007913,-0.02293450,-0.01438015,0.01308623,-0.00105649,0.00136320,0.
 00098268,-0.00001665,-0.00004594,-0.00017993,-0.00020297,0.00027749,0.
 00015371,0.00034616,-0.00004425,-0.00032987,0.00144006,0.00084075,0.00
 125755,-0.00555125,-0.00361978,0.00576098,-0.07243288,-0.08453352,0.05
 052088,0.02049082,0.00744072,-0.01312659,-0.00001288,-0.00000060,-0.00
 000256,0.00000082,0.00000304,-0.00000160,0.00000919,-0.00000382,0.0000
 0253,-0.00000776,-0.00000038,-0.00004562,-0.00000315,0.00000507,0.0000
 2220,0.00007962,0.00001803,0.00006036,0.00016489,0.00033865,0.00034210
 ,0.00035310,0.00011030,0.00008843,0.00032734,-0.00018034,-0.00033253,-
 0.00152592,-0.00421443,-0.00324873,0.00093579,-0.00015601,-0.00038592,
 0.00031193,0.00031645,-0.00023892,0.00002987,-0.00005723,0.00006721,0.
 00004815,-0.00003266,0.00002026,0.00003247,-0.00000709,-0.00002198,-0.
 00043268,-0.00017401,0.00048942,-0.00005775,0.00002723,0.00002981,-0.0
 0015019,-0.00000599,-0.00009930,0.00037446,0.00041628,-0.00005695,0.07
 672781,0.09641090,0.00000530,-0.00000802,0.00000113,0.00001486,0.00002
 390,-0.00004130,0.00002305,0.00003919,-0.00009843,-0.00017560,0.000428
 35,0.00064323,-0.00073014,0.00004896,-0.00164306,-0.01188382,-0.007203
 91,0.00803164,-0.00030589,0.00075498,0.00034497,-0.00005047,0.00011072
 ,-0.00009027,0.00004404,-0.00003408,-0.00029862,0.00025744,0.00016379,
 0.00052031,-0.00485933,-0.00093325,-0.00369487,0.02117478,0.01429592,-
 0.02172412,0.10015056,0.05035716,-0.11609603,0.00264631,0.00068161,-0.
 00137539,0.00000062,0.00000058,0.00000261,0.00000234,0.00000011,-0.000
 00172,-0.00000019,-0.00000150,0.00000199,-0.00003619,-0.00001374,-0.00
 000092,-0.00000998,-0.00000994,0.00000621,0.00022092,0.00010802,0.0001
 9545,-0.00030260,-0.00001123,-0.00137995,-0.00024048,-0.00018333,-0.00
 001853,0.00004426,0.00012318,-0.00036681,-0.00150243,-0.00290818,-0.00
 118105,0.00019003,0.00029879,0.00015621,-0.00007398,0.00012956,0.00003
 001,-0.00000615,-0.00000902,-0.00004706,-0.00004563,0.00000160,0.00008
 014,-0.00001524,0.00009568,0.00010169,0.00105802,0.00079882,-0.0013615
 5,-0.00001759,-0.00018627,0.00019200,-0.00017842,0.00032521,0.00150933
 ,0.00037580,-0.00067225,0.00067466,-0.10545266,-0.05559139,0.13584907,
 0.00000688,0.00000147,0.00001205,0.00017859,0.00017313,-0.00006691,-0.
 00015370,-0.00022033,-0.00007014,-0.00011719,0.00007846,0.00002591,0.0
 0000468,-0.00000111,-0.00003230,0.00066980,-0.00140112,-0.00073870,0.0
 0027749,0.00008774,-0.00014024,-0.00006019,0.00004990,-0.00002795,-0.0
 0027559,-0.00005570,0.00016396,0.00049564,-0.00001850,-0.00012394,-0.0
 0090492,0.00041435,0.00053974,0.00037165,-0.00060935,0.00068727,-0.019
 46934,-0.00831073,0.01174916,-0.21368437,-0.07363847,0.10075048,0.0000
 0084,-0.00000005,0.00000184,-0.00000128,0.00000102,-0.00000277,0.00000
 357,-0.00000034,0.00000356,-0.00002905,-0.00002811,-0.00008075,0.00000
 479,0.00000407,0.00002447,0.00004818,0.00001024,0.00005035,-0.00012110
 ,0.00006078,-0.00002745,0.00006572,0.00002624,0.00002958,0.00006557,-0
 .00008458,-0.00004402,0.00060627,0.00083399,0.00026083,0.00012779,-0.0
 0014479,-0.00011571,0.00001556,0.00008616,-0.00001311,0.00003531,-0.00
 001633,0.00001217,0.00001828,0.00001689,-0.00003009,0.00002827,-0.0000
 4310,-0.00004738,0.00038356,-0.00019260,-0.00009229,0.00076111,-0.0000
 3132,-0.00099880,0.00022341,0.00013566,-0.00023209,-0.00006363,0.00005
 114,-0.00005516,-0.00257615,0.00405987,-0.00011573,0.23421048,-0.00000
 202,0.00001123,0.00001357,0.00009155,-0.00002136,-0.00004253,-0.000245
 83,-0.00000099,-0.00033288,-0.00007917,-0.00015026,-0.00006219,0.00004
 878,-0.00011864,-0.00001329,0.00068585,0.00227083,-0.00021761,0.000066
 25,0.00001563,0.00018860,0.00001975,-0.00002219,0.00001702,0.00004162,
 -0.00009944,-0.00006849,-0.00000997,-0.00005325,-0.00002875,-0.0001446
 9,-0.00010331,0.00060198,-0.00065669,0.00069581,-0.00013907,0.01952051
 ,0.00887487,-0.01312271,-0.07438375,-0.07982690,0.04450297,0.00000459,
 -0.00000237,0.00000121,-0.00000507,-0.00000407,0.00000705,-0.00000195,
 0.00000859,0.00000074,-0.00000891,-0.00001580,-0.00002092,0.00000295,-
 0.00000602,-0.00001323,0.00000717,0.00000343,-0.00004091,0.00007172,-0
 .00001950,0.00000644,-0.00006693,0.00001994,0.00001214,-0.00006045,0.0
 0006202,0.00004659,-0.00044021,-0.00021783,0.00024470,-0.00016037,-0.0
 0000187,0.00006210,-0.00008336,0.00000888,0.00004094,-0.00000719,0.000
 01113,-0.00001496,0.00000345,0.00000209,-0.00000069,-0.00000689,0.0000
 0213,-0.00000304,-0.00006237,0.00004969,-0.00002384,0.00046367,-0.0003
 9274,0.00071452,-0.00021979,0.00004130,-0.00005180,0.00002673,-0.00003
 848,0.00021428,0.00415128,-0.00311319,-0.00056413,0.07903856,0.0854738
 5,-0.00004572,0.00001317,-0.00001460,-0.00051603,0.00000323,0.00000770
 ,0.00044896,-0.00026483,-0.00045534,0.00048578,0.00012226,-0.00007554,
 0.00006762,0.00033611,0.00003790,0.00043595,0.00067574,0.00011830,-0.0
 0014496,-0.00015067,0.00004000,0.00001080,0.00001951,-0.00000719,-0.00
 002020,0.00001781,0.00005640,-0.00006818,-0.00014261,-0.00008657,-0.00
 012924,0.00071103,-0.00017520,-0.00027306,-0.00043487,0.00000690,0.002
 45002,0.00035335,-0.00205541,0.10046156,0.04413363,-0.10695684,0.00002
 073,-0.00000174,0.00001256,0.00000969,-0.00000814,-0.00001880,-0.00000
 361,-0.00001921,-0.00001963,0.00006027,0.00008313,0.00019363,0.0000273
 0,0.00006355,0.00010996,-0.00013503,-0.00003947,0.00001950,-0.00019009
 ,-0.00020058,0.00025994,0.00002526,-0.00011180,-0.00007048,-0.00010311
 ,-0.00015040,-0.00003542,-0.00010018,-0.00048328,0.00003476,-0.0000994
 1,0.00008083,0.00001656,0.00000130,-0.00005732,-0.00002230,-0.00002715
 ,0.00002159,-0.00001338,-0.00000625,-0.00000994,-0.00001977,0.00000454
 ,-0.00003169,-0.00000860,-0.00002065,-0.00011855,0.00007714,-0.0005057
 5,0.00075135,-0.00073940,0.00018658,-0.00000451,0.00001134,-0.00001288
 ,-0.00004311,0.00004686,0.00044369,-0.00069503,0.00073147,-0.11218062,
 -0.04922072,0.11396787,-0.00003734,-0.00003365,-0.00000676,-0.00031737
 ,0.00003193,-0.00015694,-0.00040734,-0.00144154,-0.00123359,0.00088305
 ,0.00063423,0.00024060,-0.00005840,0.00083544,0.00012879,0.00031317,-0
 .00068128,-0.00010329,-0.00007181,-0.00008328,-0.00002333,-0.00010296,
 -0.00003986,-0.00002306,-0.00008310,-0.00009152,0.00002152,0.00029971,
 0.00002656,-0.00006746,-0.00079544,-0.00000459,0.00057255,-0.00347450,
 0.00358276,0.00127715,-0.00714134,0.00625745,-0.02117114,-0.06946155,0
 .02819802,-0.07088693,0.00000438,0.00001611,0.00000868,-0.00000342,0.0
 0000448,-0.00001970,-0.00000973,-0.00000492,-0.00000878,0.00004120,0.0
 0001581,0.00012372,0.00002167,0.00002462,0.00008640,-0.00025073,-0.000
 04801,0.00009493,-0.00048375,-0.00026733,0.00067628,0.00004980,-0.0002
 3546,-0.00012125,-0.00005798,-0.00023040,-0.00006928,0.00004579,0.0000
 4308,0.00011813,-0.00003493,0.00000383,-0.00001100,0.00002761,-0.00001
 440,0.00004043,0.00009632,-0.00004698,0.00002625,0.00004997,0.00003370
 ,0.00004122,0.00000882,0.00000821,-0.00001349,0.00023174,-0.00005616,-
 0.00009641,0.00040515,-0.00013063,-0.00035855,-0.00056895,0.00070409,-
 0.00142383,0.00015940,0.00018926,0.00047721,0.00072591,-0.00092817,-0.
 00028749,0.00809023,-0.00855662,0.02423201,0.07578579,-0.00011579,0.00
 006930,0.00004464,-0.00028948,0.00072864,-0.00062936,-0.00068655,-0.00
 179733,-0.00074298,0.00039805,-0.00123504,-0.00037000,-0.00010700,-0.0
 0011060,-0.00022269,-0.00014813,0.00064129,0.00097147,0.00009240,0.000
 06505,-0.00015502,-0.00000372,0.00011671,0.00001612,-0.00008414,0.0000
 8301,0.00006933,0.00006898,-0.00004208,-0.00006074,0.00027784,0.000426
 58,-0.00018453,0.00292463,-0.00315327,-0.00207386,0.00491679,-0.007437
 98,0.02129432,0.02768154,-0.07813214,0.08009364,0.00006027,-0.00001271
 ,0.00003385,0.00000263,-0.00002616,-0.00003055,0.00000526,-0.00000623,
 -0.00001974,-0.00000199,-0.00000196,0.00007980,0.00012597,0.00012302,0
 .00037648,-0.00005045,0.00006899,0.00002430,0.00031135,0.00031134,-0.0
 0025446,-0.00002625,0.00011365,0.00003069,-0.00013732,0.00009267,0.000
 16197,0.00004384,-0.00009638,-0.00001693,0.00000131,0.00001994,0.00001
 803,-0.00002221,-0.00006969,-0.00008135,-0.00007869,0.00007371,-0.0000
 3847,-0.00003082,-0.00002321,-0.00006950,0.00000444,-0.00005043,-0.000
 01580,-0.00003487,-0.00006879,0.00007191,-0.00009978,-0.00003523,-0.00
 014330,0.00069126,-0.00003804,0.00141581,0.00010180,0.00041200,0.00014
 297,-0.00048405,0.00106309,-0.00037922,0.00351753,-0.00448225,0.010735
 69,-0.03185564,0.08322615,0.00004184,-0.00001918,-0.00001856,0.0000262
 5,-0.00095800,0.00014786,-0.00125660,-0.00070072,-0.00206440,-0.000120
 45,0.00010586,-0.00009348,0.00029291,-0.00042541,-0.00044932,-0.000206
 20,0.00011784,0.00024432,0.00001642,0.00012493,0.00012122,-0.00000010,
 -0.00002804,0.00001510,0.00008594,-0.00002061,-0.00007573,-0.00009542,
 0.00014597,0.00002821,0.00023364,-0.00030508,0.00005714,0.00055863,-0.
 00091089,0.00042507,0.00155950,-0.00212196,0.00523337,-0.07097930,0.08
 185818,-0.26016108,-0.00003444,0.00002224,-0.00000129,-0.00001217,0.00
 001691,0.00002697,-0.00002379,0.00000790,0.00000399,0.00002947,-0.0000
 0409,0.00001551,-0.00009327,-0.00012408,-0.00031119,-0.00001686,0.0000
 6849,0.00002298,0.00037804,-0.00018071,-0.00025936,0.00001645,-0.00007
 021,-0.00000112,-0.00000093,0.00001146,-0.00002766,-0.00003699,0.00000
 776,-0.00002209,-0.00000022,-0.00000550,0.00000459,-0.00001979,0.00005
 883,0.00000107,0.00001175,0.00000314,0.00001838,0.00000677,0.00001834,
 0.00001836,-0.00000621,0.00003464,0.00002167,-0.00009695,0.00004224,0.
 00002430,-0.00024099,0.00002471,0.00018391,0.00029765,0.00010467,0.000
 25343,0.00026650,0.00019491,0.00020974,-0.00048306,0.00029829,0.000487
 64,-0.00490071,0.00418027,-0.01367951,0.07836726,-0.08692541,0.2835684
 2,0.00005466,-0.00003070,-0.00000618,0.00037378,-0.00019553,0.00017993
 ,-0.00049761,0.00015033,-0.00022682,-0.00048329,0.00016352,-0.00024061
 ,0.00011236,-0.00001323,0.00004831,-0.00362330,0.00256244,-0.00046881,
 0.00098447,0.00101857,0.00073048,0.00007311,-0.00004849,0.00002553,-0.
 00011267,-0.00000319,0.00009580,0.00006089,0.00005483,0.00000699,-0.00
 000004,-0.00005945,-0.00008563,0.00096305,0.00079295,0.00092188,0.0078
 0334,0.01935402,0.01172089,-0.08209727,-0.07613907,-0.04987324,-0.0000
 3186,0.00000848,-0.00001052,-0.00000387,0.00001547,0.00001483,-0.00000
 498,0.00000737,0.00001631,-0.00003563,-0.00004490,-0.00012537,-0.00005
 668,-0.00007088,-0.00017183,0.00004934,0.00000031,0.00002076,-0.000023
 92,-0.00003295,-0.00000070,-0.00002780,-0.00003812,0.00003157,0.000066
 40,0.00002078,-0.00004046,0.00011741,0.00026124,-0.00010786,0.00001097
 ,-0.00008046,-0.00001473,-0.00030114,0.00045360,0.00010300,-0.00002061
 ,0.00000320,-0.00002935,-0.00002717,-0.00000832,-0.00003201,0.00001440
 ,-0.00000329,-0.00000711,0.00004948,-0.00003509,-0.00000729,-0.0001085
 6,-0.00006754,-0.00003602,0.00014019,-0.00012769,0.00031432,-0.0002303
 5,0.00006200,-0.00039904,0.00095846,-0.00080296,0.00008166,-0.00923718
 ,-0.01904218,-0.01478995,-0.00387908,-0.00696897,-0.00356459,0.0889707
 1,0.00000313,-0.00001819,-0.00003220,0.00002881,0.00031159,0.00004004,
 -0.00006806,-0.00019653,0.00001302,0.00029266,-0.00009318,0.00051483,-
 0.00010148,-0.00003851,-0.00007021,0.00501158,-0.00191241,0.00062433,-
 0.00115831,-0.00061460,-0.00116534,-0.00016389,0.00000292,-0.00007000,
 0.00023914,0.00006565,-0.00014182,-0.00001640,0.00023571,0.00005344,-0
 .00004301,-0.00022962,0.00038713,-0.00165610,0.00002541,-0.00160688,-0
 .00891758,-0.01917827,-0.01126448,-0.07431728,-0.19933062,-0.10285510,
 -0.00001437,-0.00000289,-0.00001075,-0.00000155,0.00000150,-0.00000189
 ,0.00000370,0.00000201,0.00000644,-0.00000955,-0.00002409,-0.00003370,
 0.00003219,0.00002336,0.00007101,-0.00004687,-0.00002897,-0.00009207,0
 .00002992,0.00002441,-0.00001533,0.00002594,0.00005584,-0.00005369,-0.
 00002663,-0.00001068,0.00003498,0.00014753,0.00042123,0.00014181,0.000
 10475,-0.00003562,-0.00000116,0.00036230,-0.00052012,-0.00010250,0.000
 07599,-0.00000236,0.00008569,0.00004945,-0.00000639,0.00010470,-0.0000
 3516,0.00003646,0.00003262,0.00002949,-0.00003686,0.00006386,-0.000136
 38,-0.00013901,-0.00003422,-0.00001236,0.00064059,0.00006853,0.0009243
 0,0.00057484,0.00117424,0.00019001,0.00092922,-0.00007665,-0.00385067,
 -0.00886095,-0.00593350,0.00414087,0.00918437,0.00535230,0.07888389,0.
 21874478,0.00006119,-0.00005509,-0.00007262,0.00000407,-0.00053684,0.0
 0047468,-0.00013025,0.00034825,-0.00069289,-0.00016845,0.00053469,0.00
 025695,0.00004156,0.00000838,0.00002027,0.00107497,0.00037425,0.000559
 24,-0.00043461,-0.00015875,0.00007790,0.00002218,-0.00009311,-0.000033
 74,0.00005275,-0.00001185,-0.00003285,0.00001305,-0.00000738,-0.000009
 38,-0.00001893,-0.00001602,0.00006159,-0.00057046,0.00156855,0.0003736
 7,-0.00142290,-0.00257956,-0.00327963,-0.04953697,-0.10439356,-0.11640
 942,-0.00005352,0.00001218,-0.00001781,-0.00000140,0.00001974,0.000020
 86,-0.00000896,0.00000068,0.00000955,0.00001794,0.00001550,-0.00000599
 ,-0.00007299,-0.00008251,-0.00025003,0.00000614,0.00000331,-0.00003478
 ,-0.00012433,-0.00012283,0.00002254,0.00000764,-0.00002883,-0.00002433
 ,0.00005375,-0.00003829,-0.00003839,-0.00019016,-0.00013806,-0.0000010
 2,-0.00000165,0.00003822,0.00000085,0.00009742,-0.00008310,0.00001916,
 0.00002091,0.00000166,0.00003579,0.00001389,-0.00002076,0.00005278,-0.
 00000918,-0.00000299,-0.00000677,-0.00002608,-0.00001025,0.00001213,0.
 00007462,-0.00000718,-0.00000549,0.00015086,0.00024133,0.00001289,-0.0
 0028216,0.00049657,0.00036752,0.00003951,-0.00002840,-0.00014008,0.005
 82550,0.01312666,0.00870517,-0.01045083,-0.02316710,-0.01396848,0.0559
 2587,0.11479250,0.12394015\\0.00000040,0.00000122,-0.00000181,0.000000
 81,-0.00000084,-0.00000210,-0.00000363,0.00000390,0.00000083,0.0000099
 4,-0.00000382,0.00000947,-0.00000179,0.00000364,-0.00000040,-0.0000041
 2,-0.00000157,-0.00000670,0.00000584,0.00000328,-0.00000350,-0.0000029
 3,-0.00000078,-0.00000381,-0.00000171,0.00000396,0.00000667,0.00000114
 ,-0.00000475,-0.00000232,-0.00000144,-0.00000269,-0.00000243,-0.000002
 14,-0.00000001,0.00000168,-0.00000064,0.00000161,-0.00000097,-0.000001
 67,-0.00000083,0.00000304,0.00000067,0.00000025,-0.00000113,0.00000033
 ,-0.00000029,0.00000009,0.00000065,-0.00000075,-0.00000130,0.00000155,
 0.00000139,0.00000050,0.00000142,0.00000060,-0.00000104,-0.00000124,-0
 .00000086,0.,0.00000020,0.00000138,-0.00000004,0.00000028,0.00000079,0
 .00000108,0.00000091,0.00000248,0.00000125,-0.00000100,-0.00000019,-0.
 00000196,-0.00000034,0.00000238,0.00000108,0.00000239,0.00000122,-0.00
 000203,0.00000148,0.00000064,-0.00000040,-0.00000054,-0.00000029,-0.00
 000032,0.00000137,-0.00000165,-0.00000139,-0.00000168,-0.00000146,0.00
 000157,-0.00000111,-0.00000348,0.00000077,-0.00000163,-0.00000164,0.00
 000114,-0.00000070,0.00000037,-0.00000033,0.00000007,0.00000005,0.0000
 0052,-0.00000090,-0.00000151,-0.00000016,0.00000067,-0.00000044,0.0000
 0228,-0.00000090,-0.00000129,0.00000218\\\@


 IT IS DOUBTED WHETHER A MAN EVER BRINGS HIS FACULTIES TO BEAR WITH THEIR FULL FORCE
 ON A SUBJECT UNTIL HE WRITES UPON IT.

                          -- CICERO
 Job cpu time:       0 days 10 hours 37 minutes 28.5 seconds.
 Elapsed time:       0 days  2 hours 39 minutes 22.2 seconds.
 File lengths (MBytes):  RWF=    714 Int=      0 D2E=      0 Chk=     22 Scr=      1
 Normal termination of Gaussian 16 at Mon May 29 07:44:15 2023.
### All Done ###
