### Starting Gaussian ###
 Entering Gaussian System, Link 0=g16
 Initial command:
 /cluster/software/gaussian/gaussian-16-A.03/avx2/g16/l1.exe "/local/scratch/ks29c/Gau-22637.inp" -scrdir="/local/scratch/ks29c/"
 Entering Link 1 = /cluster/software/gaussian/gaussian-16-A.03/avx2/g16/l1.exe PID=     22658.
  
 Copyright (c) 1988,1990,1992,1993,1995,1998,2003,2009,2016,
            Gaussian, Inc.  All Rights Reserved.
  
 This is part of the Gaussian(R) 16 program.  It is based on
 the Gaussian(R) 09 system (copyright 2009, Gaussian, Inc.),
 the Gaussian(R) 03 system (copyright 2003, Gaussian, Inc.),
 the Gaussian(R) 98 system (copyright 1998, Gaussian, Inc.),
 the Gaussian(R) 94 system (copyright 1995, Gaussian, Inc.),
 the Gaussian 92(TM) system (copyright 1992, Gaussian, Inc.),
 the Gaussian 90(TM) system (copyright 1990, Gaussian, Inc.),
 the Gaussian 88(TM) system (copyright 1988, Gaussian, Inc.),
 the Gaussian 86(TM) system (copyright 1986, Carnegie Mellon
 University), and the Gaussian 82(TM) system (copyright 1983,
 Carnegie Mellon University). Gaussian is a federally registered
 trademark of Gaussian, Inc.
  
 This software contains proprietary and confidential information,
 including trade secrets, belonging to Gaussian, Inc.
  
 This software is provided under written license and may be
 used, copied, transmitted, or stored only in accord with that
 written license.
  
 The following legend is applicable only to US Government
 contracts under FAR:
  
                    RESTRICTED RIGHTS LEGEND
  
 Use, reproduction and disclosure by the US Government is
 subject to restrictions as set forth in subparagraphs (a)
 and (c) of the Commercial Computer Software - Restricted
 Rights clause in FAR 52.227-19.
  
 Gaussian, Inc.
 340 Quinnipiac St., Bldg. 40, Wallingford CT 06492
  
  
 ---------------------------------------------------------------
 Warning -- This program may not be used in any manner that
 competes with the business of Gaussian, Inc. or will provide
 assistance to any competitor of Gaussian, Inc.  The licensee
 of this program is prohibited from giving any competitor of
 Gaussian, Inc. access to this program.  By using this program,
 the user acknowledges that Gaussian, Inc. is engaged in the
 business of creating and licensing software in the field of
 computational chemistry and represents and warrants to the
 licensee that it is not a competitor of Gaussian, Inc. and that
 it will not use this program in any manner prohibited above.
 ---------------------------------------------------------------
  

 Cite this work as:
 Gaussian 16, Revision A.03,
 M. J. Frisch, G. W. Trucks, H. B. Schlegel, G. E. Scuseria, 
 M. A. Robb, J. R. Cheeseman, G. Scalmani, V. Barone, 
 G. A. Petersson, H. Nakatsuji, X. Li, M. Caricato, A. V. Marenich, 
 J. Bloino, B. G. Janesko, R. Gomperts, B. Mennucci, H. P. Hratchian, 
 J. V. Ortiz, A. F. Izmaylov, J. L. Sonnenberg, D. Williams-Young, 
 F. Ding, F. Lipparini, F. Egidi, J. Goings, B. Peng, A. Petrone, 
 T. Henderson, D. Ranasinghe, V. G. Zakrzewski, J. Gao, N. Rega, 
 G. Zheng, W. Liang, M. Hada, M. Ehara, K. Toyota, R. Fukuda, 
 J. Hasegawa, M. Ishida, T. Nakajima, Y. Honda, O. Kitao, H. Nakai, 
 T. Vreven, K. Throssell, J. A. Montgomery, Jr., J. E. Peralta, 
 F. Ogliaro, M. J. Bearpark, J. J. Heyd, E. N. Brothers, K. N. Kudin, 
 V. N. Staroverov, T. A. Keith, R. Kobayashi, J. Normand, 
 K. Raghavachari, A. P. Rendell, J. C. Burant, S. S. Iyengar, 
 J. Tomasi, M. Cossi, J. M. Millam, M. Klene, C. Adamo, R. Cammi, 
 J. W. Ochterski, R. L. Martin, K. Morokuma, O. Farkas, 
 J. B. Foresman, and D. J. Fox, Gaussian, Inc., Wallingford CT, 2016.
 
 ******************************************
 Gaussian 16:  ES64L-G16RevA.03 25-Dec-2016
                27-May-2023 
 ******************************************
 %chk=CdC1CCCCCCqCrCCCCC1C.chk
 %NProcShared=20
 Will use up to   20 processors via shared memory.
 -----------------------------
 # opt freq b3lyp/6-31g(2df,p)
 -----------------------------
 1/18=20,19=15,26=3,38=1/1,3;
 2/9=110,12=2,17=6,18=5,40=1/2;
 3/5=1,6=6,7=104,11=2,25=1,30=1,71=1,74=-5/1,2,3;
 4//1;
 5/5=2,38=5/2;
 6/7=2,8=2,9=2,10=2,28=1/1;
 7//1,2,3,16;
 1/18=20,19=15,26=3/3(2);
 2/9=110/2;
 99//99;
 2/9=110/2;
 3/5=1,6=6,7=104,11=2,25=1,30=1,71=1,74=-5/1,2,3;
 4/5=5,16=3,69=1/1;
 5/5=2,38=5/2;
 7//1,2,3,16;
 1/18=20,19=15,26=3/3(-5);
 2/9=110/2;
 6/7=2,8=2,9=2,10=2,19=2,28=1/1;
 99/9=1/99;
 -------------------
 Title Card Required
 -------------------
 Symbolic Z-matrix:
 Charge =  0 Multiplicity = 1
 C                     1.06484   0.04947   0.02849 
 C                     2.41962   0.05793   0.02051 
 C                     3.225    -1.22365   0.02719 
 C                     2.87877  -2.151     1.19744 
 C                     4.11297  -2.5282    2.03535 
 C                     3.88743  -2.27281   3.52676 
 C                     4.85069  -1.21938   4.10243 
 C                     4.20341   0.0609    4.7035 
 C                     2.67632   0.06088   4.63587 
 C                     4.85114   1.34229   4.10555 
 C                     3.88812   2.3964    3.53165 
 C                     4.11176   2.64909   2.04042 
 C                     2.87379   2.26905   1.20616 
 C                     3.22964   1.34506   0.02414 
 C                     3.08887   2.08101  -1.30451 
 H                     0.50305  -0.87662   0.03981 
 H                     0.49454   0.9706    0.04286 
 H                     4.29237  -0.97766   0.04952 
 H                     3.07716  -1.74642  -0.92478 
 H                     2.43371  -3.07133   0.79984 
 H                     2.09927  -1.6996    1.82161 
 H                     5.00822  -2.00757   1.68227 
 H                     4.31816  -3.59564   1.89866 
 H                     4.00763  -3.20471   4.08947 
 H                     2.83931  -2.02994   3.67655 
 H                     5.60913  -0.9528    3.35715 
 H                     5.43792  -1.70351   4.89611 
 H                     4.46256   0.05997   5.77299 
 H                     2.35017   0.06107   3.58776 
 H                     2.24399   0.92878   5.13966 
 H                     2.24429  -0.8075    5.13908 
 H                     5.61016   1.07698   3.36029 
 H                     5.43785   1.82544   4.90009 
 H                     4.00914   3.32881   4.09295 
 H                     2.84006   2.15427   3.68273 
 H                     5.00749   2.1294    1.68703 
 H                     4.31736   3.71598   1.8998 
 H                     2.40994   3.19557   0.84475 
 H                     2.11041   1.79529   1.83361 
 H                     4.28781   1.07049   0.10245 
 H                     2.05757   2.40636  -1.47538 
 H                     3.38845   1.43534  -2.13644 
 H                     3.73196   2.96691  -1.31419 
 

 GradGradGradGradGradGradGradGradGradGradGradGradGradGradGradGradGradGrad
 Berny optimization.
 Initialization pass.
                           ----------------------------
                           !    Initial Parameters    !
                           ! (Angstroms and Degrees)  !
 --------------------------                            --------------------------
 ! Name  Definition              Value          Derivative Info.                !
 --------------------------------------------------------------------------------
 ! R1    R(1,2)                  1.3548         estimate D2E/DX2                !
 ! R2    R(1,16)                 1.0832         estimate D2E/DX2                !
 ! R3    R(1,17)                 1.0835         estimate D2E/DX2                !
 ! R4    R(2,3)                  1.5136         estimate D2E/DX2                !
 ! R5    R(2,14)                 1.5208         estimate D2E/DX2                !
 ! R6    R(3,4)                  1.5328         estimate D2E/DX2                !
 ! R7    R(3,18)                 1.0956         estimate D2E/DX2                !
 ! R8    R(3,19)                 1.0961         estimate D2E/DX2                !
 ! R9    R(4,5)                  1.5387         estimate D2E/DX2                !
 ! R10   R(4,20)                 1.0969         estimate D2E/DX2                !
 ! R11   R(4,21)                 1.0959         estimate D2E/DX2                !
 ! R12   R(5,6)                  1.5298         estimate D2E/DX2                !
 ! R13   R(5,22)                 1.0942         estimate D2E/DX2                !
 ! R14   R(5,23)                 1.0955         estimate D2E/DX2                !
 ! R15   R(6,7)                  1.5391         estimate D2E/DX2                !
 ! R16   R(6,24)                 1.0952         estimate D2E/DX2                !
 ! R17   R(6,25)                 1.0863         estimate D2E/DX2                !
 ! R18   R(7,8)                  1.5554         estimate D2E/DX2                !
 ! R19   R(7,26)                 1.0962         estimate D2E/DX2                !
 ! R20   R(7,27)                 1.0996         estimate D2E/DX2                !
 ! R21   R(8,9)                  1.5286         estimate D2E/DX2                !
 ! R22   R(8,10)                 1.5553         estimate D2E/DX2                !
 ! R23   R(8,28)                 1.1004         estimate D2E/DX2                !
 ! R24   R(9,29)                 1.0977         estimate D2E/DX2                !
 ! R25   R(9,30)                 1.0927         estimate D2E/DX2                !
 ! R26   R(9,31)                 1.0927         estimate D2E/DX2                !
 ! R27   R(10,11)                1.5388         estimate D2E/DX2                !
 ! R28   R(10,32)                1.0963         estimate D2E/DX2                !
 ! R29   R(10,33)                1.0995         estimate D2E/DX2                !
 ! R30   R(11,12)                1.5289         estimate D2E/DX2                !
 ! R31   R(11,34)                1.095          estimate D2E/DX2                !
 ! R32   R(11,35)                1.0862         estimate D2E/DX2                !
 ! R33   R(12,13)                1.5405         estimate D2E/DX2                !
 ! R34   R(12,36)                1.0942         estimate D2E/DX2                !
 ! R35   R(12,37)                1.0956         estimate D2E/DX2                !
 ! R36   R(13,14)                1.5419         estimate D2E/DX2                !
 ! R37   R(13,38)                1.0974         estimate D2E/DX2                !
 ! R38   R(13,39)                1.0959         estimate D2E/DX2                !
 ! R39   R(14,15)                1.5254         estimate D2E/DX2                !
 ! R40   R(14,40)                1.096          estimate D2E/DX2                !
 ! R41   R(15,41)                1.0948         estimate D2E/DX2                !
 ! R42   R(15,42)                1.0949         estimate D2E/DX2                !
 ! R43   R(15,43)                1.0947         estimate D2E/DX2                !
 ! A1    A(2,1,16)             121.6015         estimate D2E/DX2                !
 ! A2    A(2,1,17)             121.4067         estimate D2E/DX2                !
 ! A3    A(16,1,17)            116.9819         estimate D2E/DX2                !
 ! A4    A(1,2,3)              121.7859         estimate D2E/DX2                !
 ! A5    A(1,2,14)             122.5392         estimate D2E/DX2                !
 ! A6    A(3,2,14)             115.6695         estimate D2E/DX2                !
 ! A7    A(2,3,4)              113.2935         estimate D2E/DX2                !
 ! A8    A(2,3,18)             109.1695         estimate D2E/DX2                !
 ! A9    A(2,3,19)             109.1608         estimate D2E/DX2                !
 ! A10   A(4,3,18)             109.8985         estimate D2E/DX2                !
 ! A11   A(4,3,19)             110.1258         estimate D2E/DX2                !
 ! A12   A(18,3,19)            104.8446         estimate D2E/DX2                !
 ! A13   A(3,4,5)              112.5131         estimate D2E/DX2                !
 ! A14   A(3,4,20)             108.8164         estimate D2E/DX2                !
 ! A15   A(3,4,21)             110.2621         estimate D2E/DX2                !
 ! A16   A(5,4,20)             108.4911         estimate D2E/DX2                !
 ! A17   A(5,4,21)             111.1832         estimate D2E/DX2                !
 ! A18   A(20,4,21)            105.2747         estimate D2E/DX2                !
 ! A19   A(4,5,6)              111.8206         estimate D2E/DX2                !
 ! A20   A(4,5,22)             111.3408         estimate D2E/DX2                !
 ! A21   A(4,5,23)             108.7318         estimate D2E/DX2                !
 ! A22   A(6,5,22)             110.8413         estimate D2E/DX2                !
 ! A23   A(6,5,23)             108.1741         estimate D2E/DX2                !
 ! A24   A(22,5,23)            105.6708         estimate D2E/DX2                !
 ! A25   A(5,6,7)              112.7441         estimate D2E/DX2                !
 ! A26   A(5,6,24)             110.0386         estimate D2E/DX2                !
 ! A27   A(5,6,25)             108.3008         estimate D2E/DX2                !
 ! A28   A(7,6,24)             108.7541         estimate D2E/DX2                !
 ! A29   A(7,6,25)             113.532          estimate D2E/DX2                !
 ! A30   A(24,6,25)            103.0197         estimate D2E/DX2                !
 ! A31   A(6,7,8)              116.5799         estimate D2E/DX2                !
 ! A32   A(6,7,26)             110.191          estimate D2E/DX2                !
 ! A33   A(6,7,27)             107.6286         estimate D2E/DX2                !
 ! A34   A(8,7,26)             110.5159         estimate D2E/DX2                !
 ! A35   A(8,7,27)             107.8005         estimate D2E/DX2                !
 ! A36   A(26,7,27)            103.1967         estimate D2E/DX2                !
 ! A37   A(7,8,9)              113.4923         estimate D2E/DX2                !
 ! A38   A(7,8,10)             110.8706         estimate D2E/DX2                !
 ! A39   A(7,8,28)             106.0734         estimate D2E/DX2                !
 ! A40   A(9,8,10)             113.5189         estimate D2E/DX2                !
 ! A41   A(9,8,28)             106.1567         estimate D2E/DX2                !
 ! A42   A(10,8,28)            106.0372         estimate D2E/DX2                !
 ! A43   A(8,9,29)             109.8208         estimate D2E/DX2                !
 ! A44   A(8,9,30)             112.0157         estimate D2E/DX2                !
 ! A45   A(8,9,31)             112.0016         estimate D2E/DX2                !
 ! A46   A(29,9,30)            108.8164         estimate D2E/DX2                !
 ! A47   A(29,9,31)            108.8074         estimate D2E/DX2                !
 ! A48   A(30,9,31)            105.2165         estimate D2E/DX2                !
 ! A49   A(8,10,11)            116.559          estimate D2E/DX2                !
 ! A50   A(8,10,32)            110.5054         estimate D2E/DX2                !
 ! A51   A(8,10,33)            107.8443         estimate D2E/DX2                !
 ! A52   A(11,10,32)           110.2141         estimate D2E/DX2                !
 ! A53   A(11,10,33)           107.6039         estimate D2E/DX2                !
 ! A54   A(32,10,33)           103.1872         estimate D2E/DX2                !
 ! A55   A(10,11,12)           112.6704         estimate D2E/DX2                !
 ! A56   A(10,11,34)           108.8416         estimate D2E/DX2                !
 ! A57   A(10,11,35)           113.5323         estimate D2E/DX2                !
 ! A58   A(12,11,34)           110.0631         estimate D2E/DX2                !
 ! A59   A(12,11,35)           108.2782         estimate D2E/DX2                !
 ! A60   A(34,11,35)           103.0115         estimate D2E/DX2                !
 ! A61   A(11,12,13)           111.7088         estimate D2E/DX2                !
 ! A62   A(11,12,36)           110.8697         estimate D2E/DX2                !
 ! A63   A(11,12,37)           108.2751         estimate D2E/DX2                !
 ! A64   A(13,12,36)           111.4561         estimate D2E/DX2                !
 ! A65   A(13,12,37)           108.7566         estimate D2E/DX2                !
 ! A66   A(36,12,37)           105.5115         estimate D2E/DX2                !
 ! A67   A(12,13,14)           112.1807         estimate D2E/DX2                !
 ! A68   A(12,13,38)           108.0447         estimate D2E/DX2                !
 ! A69   A(12,13,39)           110.879          estimate D2E/DX2                !
 ! A70   A(14,13,38)           110.5502         estimate D2E/DX2                !
 ! A71   A(14,13,39)           109.9147         estimate D2E/DX2                !
 ! A72   A(38,13,39)           105.0186         estimate D2E/DX2                !
 ! A73   A(2,14,13)            112.7105         estimate D2E/DX2                !
 ! A74   A(2,14,15)            110.9227         estimate D2E/DX2                !
 ! A75   A(2,14,40)            107.6007         estimate D2E/DX2                !
 ! A76   A(13,14,15)           110.9348         estimate D2E/DX2                !
 ! A77   A(13,14,40)           108.5518         estimate D2E/DX2                !
 ! A78   A(15,14,40)           105.7954         estimate D2E/DX2                !
 ! A79   A(14,15,41)           111.4847         estimate D2E/DX2                !
 ! A80   A(14,15,42)           110.6141         estimate D2E/DX2                !
 ! A81   A(14,15,43)           110.1159         estimate D2E/DX2                !
 ! A82   A(41,15,42)           108.3249         estimate D2E/DX2                !
 ! A83   A(41,15,43)           108.149          estimate D2E/DX2                !
 ! A84   A(42,15,43)           108.0451         estimate D2E/DX2                !
 ! D1    D(16,1,2,3)            -0.0112         estimate D2E/DX2                !
 ! D2    D(16,1,2,14)         -179.1271         estimate D2E/DX2                !
 ! D3    D(17,1,2,3)           178.8091         estimate D2E/DX2                !
 ! D4    D(17,1,2,14)           -0.3068         estimate D2E/DX2                !
 ! D5    D(1,2,3,4)            -55.479          estimate D2E/DX2                !
 ! D6    D(1,2,3,18)          -178.2977         estimate D2E/DX2                !
 ! D7    D(1,2,3,19)            67.6267         estimate D2E/DX2                !
 ! D8    D(14,2,3,4)           123.694          estimate D2E/DX2                !
 ! D9    D(14,2,3,18)            0.8753         estimate D2E/DX2                !
 ! D10   D(14,2,3,19)         -113.2003         estimate D2E/DX2                !
 ! D11   D(1,2,14,13)           55.613          estimate D2E/DX2                !
 ! D12   D(1,2,14,15)          -69.4648         estimate D2E/DX2                !
 ! D13   D(1,2,14,40)          175.2571         estimate D2E/DX2                !
 ! D14   D(3,2,14,13)         -123.5532         estimate D2E/DX2                !
 ! D15   D(3,2,14,15)          111.369          estimate D2E/DX2                !
 ! D16   D(3,2,14,40)           -3.9091         estimate D2E/DX2                !
 ! D17   D(2,3,4,5)           -124.889          estimate D2E/DX2                !
 ! D18   D(2,3,4,20)           114.8501         estimate D2E/DX2                !
 ! D19   D(2,3,4,21)            -0.1406         estimate D2E/DX2                !
 ! D20   D(18,3,4,5)            -2.4744         estimate D2E/DX2                !
 ! D21   D(18,3,4,20)         -122.7353         estimate D2E/DX2                !
 ! D22   D(18,3,4,21)          122.274          estimate D2E/DX2                !
 ! D23   D(19,3,4,5)           112.539          estimate D2E/DX2                !
 ! D24   D(19,3,4,20)           -7.7219         estimate D2E/DX2                !
 ! D25   D(19,3,4,21)         -122.7126         estimate D2E/DX2                !
 ! D26   D(3,4,5,6)            128.5362         estimate D2E/DX2                !
 ! D27   D(3,4,5,22)             3.9333         estimate D2E/DX2                !
 ! D28   D(3,4,5,23)          -112.0878         estimate D2E/DX2                !
 ! D29   D(20,4,5,6)          -111.0154         estimate D2E/DX2                !
 ! D30   D(20,4,5,22)          124.3818         estimate D2E/DX2                !
 ! D31   D(20,4,5,23)            8.3607         estimate D2E/DX2                !
 ! D32   D(21,4,5,6)             4.295          estimate D2E/DX2                !
 ! D33   D(21,4,5,22)         -120.3079         estimate D2E/DX2                !
 ! D34   D(21,4,5,23)          123.671          estimate D2E/DX2                !
 ! D35   D(4,5,6,7)           -117.4126         estimate D2E/DX2                !
 ! D36   D(4,5,6,24)           120.9877         estimate D2E/DX2                !
 ! D37   D(4,5,6,25)             9.074          estimate D2E/DX2                !
 ! D38   D(22,5,6,7)             7.468          estimate D2E/DX2                !
 ! D39   D(22,5,6,24)         -114.1317         estimate D2E/DX2                !
 ! D40   D(22,5,6,25)          133.9547         estimate D2E/DX2                !
 ! D41   D(23,5,6,7)           122.8829         estimate D2E/DX2                !
 ! D42   D(23,5,6,24)            1.2832         estimate D2E/DX2                !
 ! D43   D(23,5,6,25)         -110.6304         estimate D2E/DX2                !
 ! D44   D(5,6,7,8)            119.2098         estimate D2E/DX2                !
 ! D45   D(5,6,7,26)            -7.7703         estimate D2E/DX2                !
 ! D46   D(5,6,7,27)          -119.6147         estimate D2E/DX2                !
 ! D47   D(24,6,7,8)          -118.4656         estimate D2E/DX2                !
 ! D48   D(24,6,7,26)          114.5542         estimate D2E/DX2                !
 ! D49   D(24,6,7,27)            2.7099         estimate D2E/DX2                !
 ! D50   D(25,6,7,8)            -4.4266         estimate D2E/DX2                !
 ! D51   D(25,6,7,26)         -131.4068         estimate D2E/DX2                !
 ! D52   D(25,6,7,27)          116.7488         estimate D2E/DX2                !
 ! D53   D(6,7,8,9)              0.5548         estimate D2E/DX2                !
 ! D54   D(6,7,8,10)          -128.5981         estimate D2E/DX2                !
 ! D55   D(6,7,8,28)           116.7222         estimate D2E/DX2                !
 ! D56   D(26,7,8,9)           127.3744         estimate D2E/DX2                !
 ! D57   D(26,7,8,10)           -1.7785         estimate D2E/DX2                !
 ! D58   D(26,7,8,28)         -116.4582         estimate D2E/DX2                !
 ! D59   D(27,7,8,9)          -120.5298         estimate D2E/DX2                !
 ! D60   D(27,7,8,10)          110.3173         estimate D2E/DX2                !
 ! D61   D(27,7,8,28)           -4.3624         estimate D2E/DX2                !
 ! D62   D(7,8,9,29)           -63.8418         estimate D2E/DX2                !
 ! D63   D(7,8,9,30)           175.1237         estimate D2E/DX2                !
 ! D64   D(7,8,9,31)            57.1719         estimate D2E/DX2                !
 ! D65   D(10,8,9,29)           63.9513         estimate D2E/DX2                !
 ! D66   D(10,8,9,30)          -57.0832         estimate D2E/DX2                !
 ! D67   D(10,8,9,31)         -175.035          estimate D2E/DX2                !
 ! D68   D(28,8,9,29)         -179.9602         estimate D2E/DX2                !
 ! D69   D(28,8,9,30)           59.0053         estimate D2E/DX2                !
 ! D70   D(28,8,9,31)          -58.9465         estimate D2E/DX2                !
 ! D71   D(7,8,10,11)          128.5501         estimate D2E/DX2                !
 ! D72   D(7,8,10,32)            1.7253         estimate D2E/DX2                !
 ! D73   D(7,8,10,33)         -110.3775         estimate D2E/DX2                !
 ! D74   D(9,8,10,11)           -0.5886         estimate D2E/DX2                !
 ! D75   D(9,8,10,32)         -127.4134         estimate D2E/DX2                !
 ! D76   D(9,8,10,33)          120.4838         estimate D2E/DX2                !
 ! D77   D(28,8,10,11)        -116.7475         estimate D2E/DX2                !
 ! D78   D(28,8,10,32)         116.4277         estimate D2E/DX2                !
 ! D79   D(28,8,10,33)           4.3249         estimate D2E/DX2                !
 ! D80   D(8,10,11,12)        -118.9661         estimate D2E/DX2                !
 ! D81   D(8,10,11,34)         118.6653         estimate D2E/DX2                !
 ! D82   D(8,10,11,35)           4.5812         estimate D2E/DX2                !
 ! D83   D(32,10,11,12)          8.0027         estimate D2E/DX2                !
 ! D84   D(32,10,11,34)       -114.3659         estimate D2E/DX2                !
 ! D85   D(32,10,11,35)        131.5501         estimate D2E/DX2                !
 ! D86   D(33,10,11,12)        119.8344         estimate D2E/DX2                !
 ! D87   D(33,10,11,34)         -2.5343         estimate D2E/DX2                !
 ! D88   D(33,10,11,35)       -116.6183         estimate D2E/DX2                !
 ! D89   D(10,11,12,13)        117.3116         estimate D2E/DX2                !
 ! D90   D(10,11,12,36)         -7.6582         estimate D2E/DX2                !
 ! D91   D(10,11,12,37)       -122.9556         estimate D2E/DX2                !
 ! D92   D(34,11,12,13)       -121.0095         estimate D2E/DX2                !
 ! D93   D(34,11,12,36)        114.0207         estimate D2E/DX2                !
 ! D94   D(34,11,12,37)         -1.2767         estimate D2E/DX2                !
 ! D95   D(35,11,12,13)         -9.1051         estimate D2E/DX2                !
 ! D96   D(35,11,12,36)       -134.075          estimate D2E/DX2                !
 ! D97   D(35,11,12,37)        110.6276         estimate D2E/DX2                !
 ! D98   D(11,12,13,14)       -129.1146         estimate D2E/DX2                !
 ! D99   D(11,12,13,38)        108.7778         estimate D2E/DX2                !
 ! D100  D(11,12,13,39)         -5.8019         estimate D2E/DX2                !
 ! D101  D(36,12,13,14)         -4.4713         estimate D2E/DX2                !
 ! D102  D(36,12,13,38)       -126.579          estimate D2E/DX2                !
 ! D103  D(36,12,13,39)        118.8413         estimate D2E/DX2                !
 ! D104  D(37,12,13,14)        111.4366         estimate D2E/DX2                !
 ! D105  D(37,12,13,38)        -10.671          estimate D2E/DX2                !
 ! D106  D(37,12,13,39)       -125.2507         estimate D2E/DX2                !
 ! D107  D(12,13,14,2)         125.199          estimate D2E/DX2                !
 ! D108  D(12,13,14,15)       -109.7298         estimate D2E/DX2                !
 ! D109  D(12,13,14,40)          6.1065         estimate D2E/DX2                !
 ! D110  D(38,13,14,2)        -114.1314         estimate D2E/DX2                !
 ! D111  D(38,13,14,15)         10.9397         estimate D2E/DX2                !
 ! D112  D(38,13,14,40)        126.7761         estimate D2E/DX2                !
 ! D113  D(39,13,14,2)           1.3463         estimate D2E/DX2                !
 ! D114  D(39,13,14,15)        126.4175         estimate D2E/DX2                !
 ! D115  D(39,13,14,40)       -117.7462         estimate D2E/DX2                !
 ! D116  D(2,14,15,41)          63.9734         estimate D2E/DX2                !
 ! D117  D(2,14,15,42)         -56.6274         estimate D2E/DX2                !
 ! D118  D(2,14,15,43)        -175.983          estimate D2E/DX2                !
 ! D119  D(13,14,15,41)        -62.0985         estimate D2E/DX2                !
 ! D120  D(13,14,15,42)        177.3007         estimate D2E/DX2                !
 ! D121  D(13,14,15,43)         57.945          estimate D2E/DX2                !
 ! D122  D(40,14,15,41)       -179.63           estimate D2E/DX2                !
 ! D123  D(40,14,15,42)         59.7692         estimate D2E/DX2                !
 ! D124  D(40,14,15,43)        -59.5864         estimate D2E/DX2                !
 --------------------------------------------------------------------------------
 Trust Radius=3.00D-01 FncErr=1.00D-07 GrdErr=1.00D-06 EigMax=2.50D+02 EigMin=1.00D-04
 Number of steps in this run=    258 maximum allowed number of steps=    258.
 GradGradGradGradGradGradGradGradGradGradGradGradGradGradGradGradGradGrad

                          Input orientation:                          
 ---------------------------------------------------------------------
 Center     Atomic      Atomic             Coordinates (Angstroms)
 Number     Number       Type             X           Y           Z
 ---------------------------------------------------------------------
      1          6           0        1.064840    0.049470    0.028490
      2          6           0        2.419620    0.057930    0.020510
      3          6           0        3.225000   -1.223650    0.027190
      4          6           0        2.878770   -2.151000    1.197440
      5          6           0        4.112970   -2.528200    2.035350
      6          6           0        3.887430   -2.272810    3.526760
      7          6           0        4.850690   -1.219380    4.102430
      8          6           0        4.203410    0.060900    4.703500
      9          6           0        2.676320    0.060880    4.635870
     10          6           0        4.851140    1.342290    4.105550
     11          6           0        3.888120    2.396400    3.531650
     12          6           0        4.111760    2.649090    2.040420
     13          6           0        2.873790    2.269050    1.206160
     14          6           0        3.229640    1.345060    0.024140
     15          6           0        3.088870    2.081010   -1.304510
     16          1           0        0.503050   -0.876620    0.039810
     17          1           0        0.494540    0.970600    0.042860
     18          1           0        4.292370   -0.977660    0.049520
     19          1           0        3.077160   -1.746420   -0.924780
     20          1           0        2.433710   -3.071330    0.799840
     21          1           0        2.099270   -1.699600    1.821610
     22          1           0        5.008220   -2.007570    1.682270
     23          1           0        4.318160   -3.595640    1.898660
     24          1           0        4.007630   -3.204710    4.089470
     25          1           0        2.839310   -2.029940    3.676550
     26          1           0        5.609130   -0.952800    3.357150
     27          1           0        5.437920   -1.703510    4.896110
     28          1           0        4.462560    0.059970    5.772990
     29          1           0        2.350170    0.061070    3.587760
     30          1           0        2.243990    0.928780    5.139660
     31          1           0        2.244290   -0.807500    5.139080
     32          1           0        5.610160    1.076980    3.360290
     33          1           0        5.437850    1.825440    4.900090
     34          1           0        4.009140    3.328810    4.092950
     35          1           0        2.840060    2.154270    3.682730
     36          1           0        5.007490    2.129400    1.687030
     37          1           0        4.317360    3.715980    1.899800
     38          1           0        2.409940    3.195570    0.844750
     39          1           0        2.110410    1.795290    1.833610
     40          1           0        4.287810    1.070490    0.102450
     41          1           0        2.057570    2.406360   -1.475380
     42          1           0        3.388450    1.435340   -2.136440
     43          1           0        3.731960    2.966910   -1.314190
 ---------------------------------------------------------------------
                    Distance matrix (angstroms):
                    1          2          3          4          5
     1  C    0.000000
     2  C    1.354830   0.000000
     3  C    2.507414   1.513648   0.000000
     4  C    3.082021   2.544672   1.532755   0.000000
     5  C    4.467994   3.689862   2.554026   1.538708   0.000000
     6  C    5.059436   4.458767   3.713023   2.541253   1.529835
     7  C    5.704352   4.919725   4.387535   3.632541   2.555398
     8  C    5.630850   5.011219   4.947245   4.351968   3.718957
     9  C    4.881081   4.622494   4.815703   4.093434   3.940812
    10  C    5.712256   4.924370   5.085410   4.954838   4.450990
    11  C    5.074556   4.466882   5.081902   5.210199   5.151811
    12  C    4.482143   3.695603   4.453937   5.027101   5.177293
    13  C    3.096085   2.549723   3.703009   4.420061   5.023617
    14  C    2.522882   1.520805   2.568716   3.704346   4.452795
    15  C    3.162395   2.509268   3.565492   4.920752   5.783447
    16  H    1.083226   2.132369   2.744012   2.933973   4.443132
    17  H    1.083480   2.130587   3.502912   4.094141   5.413377
    18  H    3.387091   2.140206   1.095577   2.166267   2.525842
    19  H    2.860660   2.140470   1.096080   2.169530   3.232097
    20  H    3.494020   3.224875   2.153381   1.096892   2.154388
    21  H    2.710087   2.536828   2.171115   1.095888   2.187979
    22  H    4.745171   3.705211   2.556109   2.188650   1.094163
    23  H    5.231487   4.525536   3.213057   2.156511   1.095543
    24  H    5.978399   5.451883   4.586854   3.278486   2.165219
    25  H    4.558622   4.231072   3.757218   2.482378   2.136354
    26  H    5.721459   4.725221   4.104396   3.681697   2.543135
    27  H    6.774252   5.998690   5.369699   4.519918   3.258766
    28  H    6.674121   6.104477   6.016099   5.322822   4.559692
    29  H    3.784258   3.567927   3.885034   3.299440   3.495963
    30  H    5.318613   5.195664   5.633177   5.042726   5.008047
    31  H    5.314474   5.194176   5.221723   4.212373   4.010725
    32  H    5.728578   4.729920   4.700153   4.749554   4.122422
    33  H    6.783050   6.003674   6.159449   6.005879   5.377381
    34  H    5.995232   5.459853   6.153875   6.300003   6.208789
    35  H    4.575485   4.240668   4.992143   4.971269   5.124421
    36  H    4.756191   3.710168   4.144307   4.805515   4.755495
    37  H    5.246330   4.529291   5.394429   6.081472   6.248995
    38  H    3.517601   3.244110   4.567519   5.378662   6.089284
    39  H    2.720214   2.530091   3.690456   4.070417   4.769016
    40  H    3.381640   2.126529   2.529488   3.682716   4.088672
    41  H    2.966828   2.807827   4.098485   5.346762   6.395293
    42  H    3.465072   2.736480   3.431944   4.923044   5.799863
    43  H    4.174659   3.459165   4.429120   5.764479   6.446768
                    6          7          8          9         10
     6  C    0.000000
     7  C    1.539149   0.000000
     8  C    2.632634   1.555434   0.000000
     9  C    2.853598   2.579052   1.528587   0.000000
    10  C    3.785853   2.561672   1.555332   2.579359   0.000000
    11  C    4.669213   3.784996   2.631958   2.853492   1.538804
    12  C    5.146322   4.445555   3.714717   3.936455   2.553267
    13  C    5.200110   4.946277   4.344560   4.083861   3.629774
    14  C    5.078387   5.082972   4.949112   4.819060   4.391717
    15  C    6.552451   6.575073   6.435777   6.288023   5.737600
    16  H    5.055907   5.960230   6.026741   5.169698   6.352928
    17  H    5.845423   6.344459   6.025349   5.165607   5.968548
    18  H    3.732638   4.098320   4.769282   4.972403   4.705929
    19  H    4.555198   5.356867   6.017672   5.860703   6.163713
    20  H    3.191713   4.492061   5.308603   4.958299   6.020941
    21  H    2.536459   3.605976   3.978952   3.369323   4.694919
    22  H    2.174550   2.550144   3.748882   4.294182   4.137454
    23  H    2.141522   3.284327   4.609835   4.853668   5.434849
    24  H    1.095230   2.156955   3.328599   3.568616   4.624606
    25  H    1.086268   2.209984   2.699446   2.306163   3.950118
    26  H    2.176108   1.096238   2.194606   3.356195   2.530235
    27  H    2.145517   1.099613   2.162003   3.287435   3.200968
    28  H    3.289101   2.139662   1.100440   2.117474   2.139087
    29  H    2.795333   2.856053   2.163186   1.097683   2.857356
    30  H    3.943668   3.533458   2.186956   1.092687   2.835067
    31  H    2.728849   2.835068   2.186778   1.092682   3.533475
    32  H    3.770491   2.529987   2.194442   3.356632   1.096318
    33  H    4.591894   3.201866   2.162427   3.287785   1.099526
    34  H    5.631477   4.625400   3.330127   3.570790   2.157634
    35  H    4.551961   3.949721   2.698683   2.305985   2.209645
    36  H    4.900877   4.131957   3.744907   4.290546   2.548181
    37  H    6.220727   5.430819   4.607964   4.851685   3.284000
    38  H    6.267323   6.005125   5.285134   4.926442   4.475145
    39  H    4.751210   4.663144   3.952850   3.343814   3.588666
    40  H    4.802485   4.643294   4.711269   4.916107   4.051669
    41  H    7.089741   7.215225   6.948696   6.575067   6.331118
    42  H    6.787576   6.936078   7.024103   6.946974   6.411752
    43  H    7.135379   6.936595   6.699235   6.705416   5.767628
                   11         12         13         14         15
    11  C    0.000000
    12  C    1.528932   0.000000
    13  C    2.540273   1.540451   0.000000
    14  C    3.720422   2.558127   1.541933   0.000000
    15  C    4.911895   3.543667   2.526872   1.525369   0.000000
    16  H    5.862108   5.427325   4.108043   3.517158   4.152257
    17  H    5.071582   4.460029   2.949588   2.760678   3.127134
    18  H    4.865483   4.141210   3.727105   2.554421   3.554894
    19  H    6.138435   5.402158   4.550414   3.237429   3.846239
    20  H    6.282847   6.089179   5.373865   4.554088   5.603939
    21  H    4.785545   4.796780   4.090091   3.711952   5.004493
    22  H    4.906096   4.755670   4.803327   4.141602   5.414910
    23  H    6.225442   6.249748   6.079502   5.395296   6.632934
    24  H    5.630087   6.202937   6.289763   6.150820   7.607758
    25  H    4.551207   5.117555   4.958360   4.988294   6.463215
    26  H    3.769545   4.116978   4.742274   4.695859   6.106291
    27  H    4.590522   5.372038   5.997643   6.156815   7.634679
    28  H    3.288235   4.556170   5.316029   6.018374   7.487498
    29  H    2.796820   3.492178   3.289585   3.888635   5.344169
    30  H    2.728144   4.006659   4.203022   5.226217   6.600665
    31  H    3.943474   5.003714   5.032821   5.636226   7.111727
    32  H    2.176156   2.541415   3.680900   4.107145   5.396790
    33  H    2.144828   3.258010   4.518441   5.374183   6.639283
    34  H    1.095031   2.164585   3.278058   4.593267   5.615735
    35  H    1.086224   2.135240   2.479458   3.767210   4.993980
    36  H    2.174144   1.094209   2.191669   2.557566   3.554259
    37  H    2.142072   1.095582   2.158388   3.212864   3.801305
    38  H    3.169088   2.150455   1.097367   2.183963   2.514460
    39  H    2.530796   2.185668   1.095852   2.174756   3.299518
    40  H    3.698270   2.505733   2.157354   1.096013   2.106690
    41  H    5.331169   4.079150   2.806372   2.179143   1.094819
    42  H    5.770663   4.409368   3.483234   2.168289   1.094872
    43  H    4.881806   3.390968   2.752386   2.161909   1.094750
                   16         17         18         19         20
    16  H    0.000000
    17  H    1.847242   0.000000
    18  H    3.790679   4.268404   0.000000
    19  H    2.883232   3.871492   1.736948   0.000000
    20  H    3.020239   4.546493   2.898457   2.267979   0.000000
    21  H    2.529827   3.587350   2.910531   2.915668   1.742845
    22  H    4.926792   5.650705   2.058890   3.254827   2.922049
    23  H    5.040184   6.238158   3.205277   3.596041   2.243537
    24  H    5.839677   6.793384   4.621907   5.304252   3.649203
    25  H    4.473716   5.263543   4.046483   4.616188   3.086173
    26  H    6.089549   6.390854   3.560181   5.037423   4.594703
    27  H    6.972829   7.425760   5.032751   6.281544   5.260764
    28  H    7.030240   7.029141   5.819257   7.074072   6.217193
    29  H    4.108414   4.103282   4.167762   4.915135   4.194211
    30  H    5.683204   5.388849   5.808606   6.680442   5.905160
    31  H    5.388808   5.674039   5.488826   6.192386   4.897939
    32  H    6.397243   6.098051   4.113309   5.722718   5.818437
    33  H    7.434763   6.982818   5.718175   7.229118   7.057993
    34  H    6.812213   5.858054   5.913986   7.197511   7.368063
    35  H    5.283822   4.489008   5.011826   6.041585   5.981895
    36  H    5.660342   4.940934   3.584223   5.056650   5.870182
    37  H    6.253039   5.059574   5.045237   6.273290   7.129209
    38  H    4.568029   3.043399   4.646696   5.291473   6.267106
    39  H    3.597281   2.549105   3.953881   4.592062   4.985699
    40  H    4.256709   3.795053   2.048839   3.233552   4.591156
    41  H    3.935771   2.609506   4.332579   4.311416   5.943332
    42  H    4.290310   3.652403   3.379062   3.418862   5.462906
    43  H    5.199221   4.038283   4.211104   4.774503   6.528010
                   21         22         23         24         25
    21  H    0.000000
    22  H    2.928524   0.000000
    23  H    2.919654   1.744985   0.000000
    24  H    3.324212   2.868612   2.246977   0.000000
    25  H    2.024250   2.946493   2.792724   1.707501   0.000000
    26  H    3.903167   2.068539   3.283047   2.858705   2.989005
    27  H    4.538629   3.256664   3.717355   2.224859   2.889058
    28  H    4.928958   4.615892   5.328674   3.701261   3.376052
    29  H    2.506431   3.869805   4.483032   3.696513   2.149294
    30  H    4.235420   5.311936   5.939414   4.615091   3.353971
    31  H    3.438383   4.585740   4.751314   3.155577   1.996848
    32  H    4.733210   3.562658   5.063497   4.629544   4.174995
    33  H    5.748831   5.023038   6.296856   5.291979   4.807641
    34  H    5.838792   5.940243   7.270379   6.533521   5.500736
    35  H    4.343369   5.101340   6.199125   5.499757   4.184215
    36  H    4.810104   4.136973   5.770273   5.934995   5.095027
    37  H    5.852738   5.769197   7.311620   7.265434   6.193308
    38  H    5.001346   5.875812   7.132500   7.351490   5.958977
    39  H    3.494928   4.783508   5.825849   5.804166   4.308144
    40  H    3.926655   3.534017   5.000006   5.852535   4.948233
    41  H    5.266003   6.177367   7.246959   8.139680   6.843556
    42  H    5.211141   5.390717   6.515915   7.789442   6.789740
    43  H    5.854505   5.945844   7.330286   8.207584   7.118484
                   26         27         28         29         30
    26  H    0.000000
    27  H    1.720836   0.000000
    28  H    2.859477   2.197751   0.000000
    29  H    3.420809   3.789422   3.039313   0.000000
    30  H    4.247570   4.146017   2.465358   1.781176   0.000000
    31  H    3.810320   3.325829   2.464765   1.781072   1.736280
    32  H    2.029783   3.181122   2.858744   3.422185   3.810410
    33  H    3.182549   3.528952   2.197733   3.790644   3.325979
    34  H    4.629639   5.292516   3.703166   3.699395   3.157768
    35  H    4.174642   4.806624   3.374579   2.151859   1.994936
    36  H    3.556857   5.017436   4.612435   3.866796   4.582475
    37  H    5.058660   6.293203   5.328142   4.480783   4.750162
    38  H    5.809987   7.041531   6.191348   4.165665   4.859231
    39  H    4.702575   5.717764   4.905371   2.478315   3.420329
    40  H    4.053722   5.656590   5.762527   4.113486   5.437901
    41  H    6.873928   8.301427   7.989267   5.587610   6.780616
    42  H    6.388596   7.969283   8.099657   5.977718   7.382955
    43  H    6.380385   7.955561   7.694946   5.863648   6.929661
                   31         32         33         34         35
    31  H    0.000000
    32  H    4.247875   0.000000
    33  H    4.145879   1.720717   0.000000
    34  H    4.617158   2.858460   2.225491   0.000000
    35  H    3.353801   2.989645   2.887665   1.707212   0.000000
    36  H    5.308230   2.066543   3.255972   2.867706   2.946386
    37  H    5.937375   3.281567   3.719056   2.248290   2.792883
    38  H    5.873098   4.588875   5.243213   3.622982   3.053431
    39  H    4.209343   3.885225   4.525049   3.325880   2.020025
    40  H    5.750692   3.515988   4.990981   4.593665   4.011105
    41  H    7.356279   6.145881   7.239501   5.972088   5.223212
    42  H    7.698872   5.939567   7.339276   6.540320   5.889001
    43  H    7.622600   5.380542   6.544485   5.426321   5.140533
                   36         37         38         39         40
    36  H    0.000000
    37  H    1.743212   0.000000
    38  H    2.931454   2.241028   0.000000
    39  H    2.919964   2.926441   1.740214   0.000000
    40  H    2.037185   3.198430   2.931445   2.874599   0.000000
    41  H    4.333540   4.267739   2.475888   3.365355   3.041063
    42  H    4.209743   4.728152   3.597692   4.186197   2.440203
    43  H    3.366856   3.351646   2.541858   3.729713   2.431511
                   41         42         43
    41  H    0.000000
    42  H    1.775140   0.000000
    43  H    1.773071   1.771948   0.000000
 Stoichiometry    C15H28
 Framework group  C1[X(C15H28)]
 Deg. of freedom   123
 Full point group                 C1      NOp   1
 Largest Abelian subgroup         C1      NOp   1
 Largest concise Abelian subgroup C1      NOp   1
                         Standard orientation:                         
 ---------------------------------------------------------------------
 Center     Atomic      Atomic             Coordinates (Angstroms)
 Number     Number       Type             X           Y           Z
 ---------------------------------------------------------------------
      1          6           0        2.403764    1.160851    1.562932
      2          6           0        2.014938    0.939347    0.284138
      3          6           0        1.315028    2.004581   -0.532277
      4          6           0        0.048751    2.548182    0.138825
      5          6           0       -1.192092    2.433291   -0.763800
      6          6           0       -2.357070    1.750506   -0.044755
      7          6           0       -2.775635    0.428346   -0.712346
      8          6           0       -2.661631   -0.856689    0.156597
      9          6           0       -2.152017   -0.591208    1.573068
     10          6           0       -1.865384   -1.963137   -0.592283
     11          6           0       -0.697191   -2.608223    0.173946
     12          6           0        0.649301   -2.399304   -0.519558
     13          6           0        1.618087   -1.578374    0.352519
     14          6           0        2.232027   -0.392153   -0.417880
     15          6           0        3.713927   -0.628412   -0.691564
     16          1           0        2.229026    2.111023    2.052849
     17          1           0        2.887300    0.387677    2.148017
     18          1           0        1.068627    1.597524   -1.519131
     19          1           0        2.016318    2.822668   -0.733070
     20          1           0        0.204283    3.606086    0.383404
     21          1           0       -0.114264    2.050268    1.101362
     22          1           0       -0.957038    1.918360   -1.700170
     23          1           0       -1.511815    3.440659   -1.052249
     24          1           0       -3.223607    2.419645   -0.014848
     25          1           0       -2.094693    1.642865    1.003839
     26          1           0       -2.243095    0.298658   -1.661725
     27          1           0       -3.824875    0.530721   -1.025018
     28          1           0       -3.686582   -1.241710    0.267062
     29          1           0       -1.126559   -0.201692    1.532790
     30          1           0       -2.162047   -1.494393    2.187983
     31          1           0       -2.780548    0.125944    2.106544
     32          1           0       -1.522634   -1.596594   -1.567004
     33          1           0       -2.570430   -2.763567   -0.859074
     34          1           0       -0.898154   -3.678429    0.289547
     35          1           0       -0.608861   -2.263714    1.200295
     36          1           0        0.513649   -1.943444   -1.504994
     37          1           0        1.093760   -3.382372   -0.710171
     38          1           0        2.405403   -2.252506    0.712926
     39          1           0        1.117628   -1.216610    1.257814
     40          1           0        1.753134   -0.330017   -1.401773
     41          1           0        4.285081   -0.712401    0.238682
     42          1           0        4.133224    0.194294   -1.279858
     43          1           0        3.848945   -1.554582   -1.259416
 ---------------------------------------------------------------------
 Rotational constants (GHZ):           0.6586690           0.4747448           0.3268683
 Standard basis: 6-31G(2df,p) (6D, 7F)
 There are   605 symmetry adapted cartesian basis functions of A   symmetry.
 There are   560 symmetry adapted basis functions of A   symmetry.
   560 basis functions,   856 primitive gaussians,   605 cartesian basis functions
    59 alpha electrons       59 beta electrons
       nuclear repulsion energy      1095.6920120262 Hartrees.
 NAtoms=   43 NActive=   43 NUniq=   43 SFac= 1.00D+00 NAtFMM=   60 NAOKFM=F Big=F
 Integral buffers will be    131072 words long.
 Raffenetti 2 integral format.
 Two-electron integral symmetry is turned on.
 One-electron integrals computed using PRISM.
 PrsmSu:  requested number of processors reduced to:  12 ShMem   1 Linda.
 NBasis=   560 RedAO= T EigKep=  5.26D-04  NBF=   560
 NBsUse=   560 1.00D-06 EigRej= -1.00D+00 NBFU=   560
 ExpMin= 1.61D-01 ExpMax= 3.05D+03 ExpMxC= 4.57D+02 IAcc=3 IRadAn=         5 AccDes= 0.00D+00
 Harris functional with IExCor=  402 and IRadAn=       5 diagonalized for initial guess.
 HarFok:  IExCor=  402 AccDes= 0.00D+00 IRadAn=         5 IDoV= 1 UseB2=F ITyADJ=14
 ICtDFT=  3500011 ScaDFX=  1.000000  1.000000  1.000000  1.000000
 FoFCou: FMM=F IPFlag=           0 FMFlag=      100000 FMFlg1=           0
         NFxFlg=           0 DoJE=T BraDBF=F KetDBF=T FulRan=T
         wScrn=  0.000000 ICntrl=       500 IOpCl=  0 I1Cent=   200000004 NGrid=           0
         NMat0=    1 NMatS0=      1 NMatT0=    0 NMatD0=    1 NMtDS0=    0 NMtDT0=    0
 Petite list used in FoFCou.
 Requested convergence on RMS density matrix=1.00D-08 within 128 cycles.
 Requested convergence on MAX density matrix=1.00D-06.
 Requested convergence on             energy=1.00D-06.
 No special actions if energy rises.
 Integral accuracy reduced to 1.0D-05 until final iterations.
 Initial convergence to 1.0D-05 achieved.  Increase integral accuracy.
 SCF Done:  E(RB3LYP) =  -588.432929450     A.U. after   12 cycles
            NFock= 12  Conv=0.10D-07     -V/T= 2.0084

 **********************************************************************

            Population analysis using the SCF density.

 **********************************************************************

 Orbital symmetries:
       Occupied  (A) (A) (A) (A) (A) (A) (A) (A) (A) (A) (A) (A)
                 (A) (A) (A) (A) (A) (A) (A) (A) (A) (A) (A) (A)
                 (A) (A) (A) (A) (A) (A) (A) (A) (A) (A) (A) (A)
                 (A) (A) (A) (A) (A) (A) (A) (A) (A) (A) (A) (A)
                 (A) (A) (A) (A) (A) (A) (A) (A) (A) (A) (A)
       Virtual   (A) (A) (A) (A) (A) (A) (A) (A) (A) (A) (A) (A)
                 (A) (A) (A) (A) (A) (A) (A) (A) (A) (A) (A) (A)
                 (A) (A) (A) (A) (A) (A) (A) (A) (A) (A) (A) (A)
                 (A) (A) (A) (A) (A) (A) (A) (A) (A) (A) (A) (A)
                 (A) (A) (A) (A) (A) (A) (A) (A) (A) (A) (A) (A)
                 (A) (A) (A) (A) (A) (A) (A) (A) (A) (A) (A) (A)
                 (A) (A) (A) (A) (A) (A) (A) (A) (A) (A) (A) (A)
                 (A) (A) (A) (A) (A) (A) (A) (A) (A) (A) (A) (A)
                 (A) (A) (A) (A) (A) (A) (A) (A) (A) (A) (A) (A)
                 (A) (A) (A) (A) (A) (A) (A) (A) (A) (A) (A) (A)
                 (A) (A) (A) (A) (A) (A) (A) (A) (A) (A) (A) (A)
                 (A) (A) (A) (A) (A) (A) (A) (A) (A) (A) (A) (A)
                 (A) (A) (A) (A) (A) (A) (A) (A) (A) (A) (A) (A)
                 (A) (A) (A) (A) (A) (A) (A) (A) (A) (A) (A) (A)
                 (A) (A) (A) (A) (A) (A) (A) (A) (A) (A) (A) (A)
                 (A) (A) (A) (A) (A) (A) (A) (A) (A) (A) (A) (A)
                 (A) (A) (A) (A) (A) (A) (A) (A) (A) (A) (A) (A)
                 (A) (A) (A) (A) (A) (A) (A) (A) (A) (A) (A) (A)
                 (A) (A) (A) (A) (A) (A) (A) (A) (A) (A) (A) (A)
                 (A) (A) (A) (A) (A) (A) (A) (A) (A) (A) (A) (A)
                 (A) (A) (A) (A) (A) (A) (A) (A) (A) (A) (A) (A)
                 (A) (A) (A) (A) (A) (A) (A) (A) (A) (A) (A) (A)
                 (A) (A) (A) (A) (A) (A) (A) (A) (A) (A) (A) (A)
                 (A) (A) (A) (A) (A) (A) (A) (A) (A) (A) (A) (A)
                 (A) (A) (A) (A) (A) (A) (A) (A) (A) (A) (A) (A)
                 (A) (A) (A) (A) (A) (A) (A) (A) (A) (A) (A) (A)
                 (A) (A) (A) (A) (A) (A) (A) (A) (A) (A) (A) (A)
                 (A) (A) (A) (A) (A) (A) (A) (A) (A) (A) (A) (A)
                 (A) (A) (A) (A) (A) (A) (A) (A) (A) (A) (A) (A)
                 (A) (A) (A) (A) (A) (A) (A) (A) (A) (A) (A) (A)
                 (A) (A) (A) (A) (A) (A) (A) (A) (A) (A) (A) (A)
                 (A) (A) (A) (A) (A) (A) (A) (A) (A) (A) (A) (A)
                 (A) (A) (A) (A) (A) (A) (A) (A) (A) (A) (A) (A)
                 (A) (A) (A) (A) (A) (A) (A) (A) (A) (A) (A) (A)
                 (A) (A) (A) (A) (A) (A) (A) (A) (A) (A) (A) (A)
                 (A) (A) (A) (A) (A) (A) (A) (A) (A) (A) (A) (A)
                 (A) (A) (A) (A) (A) (A) (A) (A) (A) (A) (A) (A)
                 (A) (A) (A) (A) (A) (A) (A) (A) (A) (A) (A) (A)
                 (A) (A) (A) (A) (A) (A) (A) (A) (A) (A) (A) (A)
                 (A) (A) (A) (A) (A) (A) (A) (A) (A) (A) (A) (A)
                 (A) (A) (A) (A) (A) (A) (A) (A) (A) (A) (A) (A)
                 (A) (A) (A) (A) (A) (A) (A) (A) (A)
 The electronic state is 1-A.
 Alpha  occ. eigenvalues --  -10.18136 -10.17820 -10.17776 -10.17276 -10.16957
 Alpha  occ. eigenvalues --  -10.16743 -10.16733 -10.16718 -10.16712 -10.16684
 Alpha  occ. eigenvalues --  -10.16660 -10.16591 -10.16312 -10.16276 -10.16021
 Alpha  occ. eigenvalues --   -0.82631  -0.80851  -0.79631  -0.75507  -0.74852
 Alpha  occ. eigenvalues --   -0.70278  -0.69117  -0.66976  -0.64349  -0.62568
 Alpha  occ. eigenvalues --   -0.58246  -0.57645  -0.56750  -0.53826  -0.50927
 Alpha  occ. eigenvalues --   -0.47722  -0.46526  -0.45989  -0.44692  -0.43818
 Alpha  occ. eigenvalues --   -0.43708  -0.41111  -0.40938  -0.40359  -0.39689
 Alpha  occ. eigenvalues --   -0.39074  -0.38821  -0.37562  -0.37047  -0.36553
 Alpha  occ. eigenvalues --   -0.34907  -0.34536  -0.33916  -0.33437  -0.32881
 Alpha  occ. eigenvalues --   -0.32351  -0.31984  -0.31682  -0.30930  -0.29775
 Alpha  occ. eigenvalues --   -0.28803  -0.27860  -0.27652  -0.22745
 Alpha virt. eigenvalues --    0.01569   0.06610   0.06990   0.09291   0.09650
 Alpha virt. eigenvalues --    0.10772   0.11825   0.12600   0.12976   0.13174
 Alpha virt. eigenvalues --    0.13581   0.14001   0.14638   0.15033   0.15767
 Alpha virt. eigenvalues --    0.15998   0.16560   0.17168   0.17697   0.18220
 Alpha virt. eigenvalues --    0.18979   0.19782   0.20497   0.21359   0.22091
 Alpha virt. eigenvalues --    0.22609   0.23018   0.23826   0.24340   0.25284
 Alpha virt. eigenvalues --    0.26159   0.26846   0.27459   0.27506   0.28371
 Alpha virt. eigenvalues --    0.29348   0.30109   0.31766   0.33465   0.34207
 Alpha virt. eigenvalues --    0.35933   0.36241   0.38011   0.40454   0.43034
 Alpha virt. eigenvalues --    0.44946   0.45754   0.46870   0.48015   0.48453
 Alpha virt. eigenvalues --    0.48776   0.49195   0.50597   0.51969   0.52354
 Alpha virt. eigenvalues --    0.52751   0.53916   0.54142   0.54784   0.56154
 Alpha virt. eigenvalues --    0.56874   0.57317   0.57673   0.58134   0.58666
 Alpha virt. eigenvalues --    0.59175   0.59625   0.60300   0.60961   0.61117
 Alpha virt. eigenvalues --    0.62363   0.63624   0.64319   0.64486   0.64932
 Alpha virt. eigenvalues --    0.65361   0.66564   0.66859   0.67892   0.68749
 Alpha virt. eigenvalues --    0.69470   0.71192   0.72359   0.72625   0.72944
 Alpha virt. eigenvalues --    0.74033   0.74581   0.75053   0.75393   0.75894
 Alpha virt. eigenvalues --    0.76411   0.76919   0.77216   0.77573   0.78246
 Alpha virt. eigenvalues --    0.78866   0.79437   0.80043   0.80129   0.81040
 Alpha virt. eigenvalues --    0.81845   0.82063   0.82436   0.83748   0.85578
 Alpha virt. eigenvalues --    0.86641   0.86999   0.87368   0.88952   0.89132
 Alpha virt. eigenvalues --    0.89853   0.90267   0.90383   0.91957   0.92269
 Alpha virt. eigenvalues --    0.94380   0.95362   0.96925   0.97405   0.99912
 Alpha virt. eigenvalues --    1.01995   1.03218   1.05490   1.05561   1.08245
 Alpha virt. eigenvalues --    1.09049   1.10268   1.11124   1.12610   1.13546
 Alpha virt. eigenvalues --    1.14085   1.15419   1.15967   1.18833   1.19770
 Alpha virt. eigenvalues --    1.21382   1.22477   1.24463   1.26487   1.28204
 Alpha virt. eigenvalues --    1.29857   1.30993   1.32374   1.34301   1.36590
 Alpha virt. eigenvalues --    1.37619   1.38438   1.38989   1.40281   1.41316
 Alpha virt. eigenvalues --    1.41996   1.42280   1.43099   1.44441   1.45075
 Alpha virt. eigenvalues --    1.47046   1.48229   1.49040   1.50313   1.51193
 Alpha virt. eigenvalues --    1.51368   1.52589   1.54111   1.54856   1.56411
 Alpha virt. eigenvalues --    1.57711   1.58741   1.59606   1.61034   1.61684
 Alpha virt. eigenvalues --    1.62255   1.63170   1.64865   1.65134   1.65879
 Alpha virt. eigenvalues --    1.66327   1.68186   1.68699   1.69589   1.70274
 Alpha virt. eigenvalues --    1.70933   1.71881   1.72721   1.73966   1.75555
 Alpha virt. eigenvalues --    1.75815   1.78470   1.79496   1.81977   1.83008
 Alpha virt. eigenvalues --    1.83777   1.84303   1.84820   1.87884   1.90112
 Alpha virt. eigenvalues --    1.94869   1.95227   1.96109   1.97456   1.99240
 Alpha virt. eigenvalues --    2.00074   2.02372   2.04446   2.06826   2.09561
 Alpha virt. eigenvalues --    2.13656   2.15883   2.17394   2.18391   2.19319
 Alpha virt. eigenvalues --    2.20604   2.22143   2.22750   2.23193   2.24187
 Alpha virt. eigenvalues --    2.25096   2.26223   2.28091   2.28393   2.29415
 Alpha virt. eigenvalues --    2.30799   2.32937   2.33095   2.34435   2.34601
 Alpha virt. eigenvalues --    2.36471   2.37663   2.38224   2.39293   2.41152
 Alpha virt. eigenvalues --    2.42935   2.43845   2.44284   2.45026   2.46107
 Alpha virt. eigenvalues --    2.47286   2.47702   2.48428   2.48807   2.49932
 Alpha virt. eigenvalues --    2.50841   2.50898   2.52742   2.53734   2.54486
 Alpha virt. eigenvalues --    2.55339   2.55658   2.56188   2.57512   2.58094
 Alpha virt. eigenvalues --    2.59327   2.59990   2.60780   2.62235   2.65054
 Alpha virt. eigenvalues --    2.67846   2.69302   2.70868   2.72879   2.74882
 Alpha virt. eigenvalues --    2.76779   2.77709   2.80100   2.80867   2.82582
 Alpha virt. eigenvalues --    2.83617   2.86295   2.86655   2.87207   2.88758
 Alpha virt. eigenvalues --    2.90888   2.91339   2.92373   2.92947   2.93454
 Alpha virt. eigenvalues --    2.94251   2.94521   2.95715   2.96321   2.96702
 Alpha virt. eigenvalues --    2.98484   2.99503   3.01352   3.02628   3.03124
 Alpha virt. eigenvalues --    3.04337   3.05873   3.06585   3.07168   3.07284
 Alpha virt. eigenvalues --    3.08723   3.10880   3.12197   3.12406   3.13653
 Alpha virt. eigenvalues --    3.14156   3.16152   3.16609   3.17562   3.18269
 Alpha virt. eigenvalues --    3.19694   3.21241   3.23214   3.24657   3.25251
 Alpha virt. eigenvalues --    3.26580   3.27404   3.29739   3.31154   3.32194
 Alpha virt. eigenvalues --    3.33049   3.33884   3.34841   3.35823   3.36684
 Alpha virt. eigenvalues --    3.37710   3.38696   3.39678   3.41045   3.41527
 Alpha virt. eigenvalues --    3.42640   3.42791   3.44324   3.44601   3.46287
 Alpha virt. eigenvalues --    3.46342   3.47971   3.49832   3.51205   3.53055
 Alpha virt. eigenvalues --    3.53540   3.54160   3.54906   3.55537   3.57285
 Alpha virt. eigenvalues --    3.58363   3.59264   3.59794   3.61040   3.62356
 Alpha virt. eigenvalues --    3.62688   3.63865   3.64283   3.65391   3.65542
 Alpha virt. eigenvalues --    3.66910   3.67487   3.68325   3.69188   3.71571
 Alpha virt. eigenvalues --    3.72363   3.73899   3.74539   3.75778   3.77290
 Alpha virt. eigenvalues --    3.79147   3.80921   3.82711   3.83551   3.86187
 Alpha virt. eigenvalues --    3.86538   3.87882   3.90223   3.93277   3.95646
 Alpha virt. eigenvalues --    3.96548   3.97147   3.97809   3.99588   4.03290
 Alpha virt. eigenvalues --    4.06411   4.07640   4.11734   4.13632   4.16913
 Alpha virt. eigenvalues --    4.18988   4.19386   4.23638   4.25500   4.28942
 Alpha virt. eigenvalues --    4.34079   4.35914   4.37548   4.39135   4.40173
 Alpha virt. eigenvalues --    4.42381   4.44669   4.44718   4.45300   4.47664
 Alpha virt. eigenvalues --    4.48983   4.49536   4.50649   4.52126   4.52852
 Alpha virt. eigenvalues --    4.54257   4.55088   4.55662   4.56074   4.56537
 Alpha virt. eigenvalues --    4.58882   4.59364   4.59678   4.62018   4.62541
 Alpha virt. eigenvalues --    4.63065   4.63883   4.64656   4.65857   4.66065
 Alpha virt. eigenvalues --    4.67247   4.68304   4.69015   4.69856   4.70072
 Alpha virt. eigenvalues --    4.71077   4.72048   4.72281   4.73457   4.74276
 Alpha virt. eigenvalues --    4.74694   4.75476   4.76021   4.76769   4.78219
 Alpha virt. eigenvalues --    4.78734   4.79212   4.79942   4.80762   4.80995
 Alpha virt. eigenvalues --    4.82022   4.82865   4.83566   4.84351   4.85816
 Alpha virt. eigenvalues --    4.86454   4.87285   4.87618   4.88018   4.89727
 Alpha virt. eigenvalues --    4.90830   4.91152   4.91498   4.92443   4.95120
 Alpha virt. eigenvalues --    4.95708   4.96052   4.96888   4.99231   5.01718
 Alpha virt. eigenvalues --    5.03534   5.05030   5.07023   5.10277   5.12337
 Alpha virt. eigenvalues --    5.12987   5.15557   5.17632   5.22030   5.24117
 Alpha virt. eigenvalues --    5.32249   5.33178   5.36775   5.38217   5.40260
 Alpha virt. eigenvalues --    5.42668   5.45678   5.46217   5.48181   5.49076
 Alpha virt. eigenvalues --    5.49678   5.52052   5.54137   5.55477   5.56254
 Alpha virt. eigenvalues --    5.58757   5.68293   5.69996   5.71136   5.83631
 Alpha virt. eigenvalues --    5.91357   6.34623   6.53947   6.67964   6.76171
 Alpha virt. eigenvalues --    7.07183  10.58339  10.72302  10.99346  11.17807
 Alpha virt. eigenvalues --   11.72470  11.92484  12.07190  12.12566  12.41970
 Alpha virt. eigenvalues --   12.53016  12.62312  12.68046  12.79430  13.00391
 Alpha virt. eigenvalues --   13.03688
          Condensed to atoms (all electrons):
               1          2          3          4          5          6
     1  C    5.190522   0.646167  -0.069334  -0.011417   0.000393  -0.000015
     2  C    0.646167   4.331456   0.405255  -0.030117   0.002203  -0.000242
     3  C   -0.069334   0.405255   5.045314   0.393990  -0.031488   0.003299
     4  C   -0.011417  -0.030117   0.393990   4.862995   0.406850  -0.031917
     5  C    0.000393   0.002203  -0.031488   0.406850   4.856725   0.409056
     6  C   -0.000015  -0.000242   0.003299  -0.031917   0.409056   4.844047
     7  C    0.000002   0.000019  -0.000141   0.002375  -0.030741   0.417436
     8  C    0.000001  -0.000004  -0.000019   0.000103   0.002946  -0.034742
     9  C   -0.000211  -0.000268   0.000037  -0.000660   0.000703  -0.015508
    10  C    0.000003   0.000026  -0.000011  -0.000002   0.000046   0.002600
    11  C   -0.000036  -0.000347   0.000035  -0.000005   0.000008  -0.000231
    12  C    0.000488   0.003035  -0.000167   0.000003  -0.000001   0.000009
    13  C   -0.017423  -0.024377   0.005283  -0.000194  -0.000005  -0.000002
    14  C   -0.049096   0.436867  -0.051933   0.001868   0.000067   0.000001
    15  C   -0.011305  -0.021876   0.003805   0.000063   0.000000  -0.000000
    16  H    0.352715  -0.005360  -0.014956   0.002301  -0.000004   0.000002
    17  H    0.348006  -0.003268   0.007162  -0.000024  -0.000007   0.000000
    18  H    0.006431  -0.024460   0.360980  -0.042953  -0.014195   0.000465
    19  H   -0.008275  -0.012525   0.340302  -0.023463   0.003854  -0.000110
    20  H    0.001034   0.001076  -0.022029   0.349153  -0.026775   0.003336
    21  H    0.005109  -0.001833  -0.046842   0.380555  -0.039095  -0.013973
    22  H    0.000033   0.000590  -0.013332  -0.042438   0.381037  -0.041578
    23  H   -0.000002   0.000005   0.003323  -0.024309   0.349788  -0.024960
    24  H   -0.000000   0.000001  -0.000114   0.003776  -0.025527   0.351558
    25  H   -0.000078  -0.000115   0.000447  -0.013895  -0.047451   0.384910
    26  H   -0.000000  -0.000001  -0.000048   0.000346  -0.015530  -0.040850
    27  H    0.000000   0.000000   0.000004  -0.000083   0.003919  -0.024787
    28  H   -0.000000  -0.000000  -0.000000  -0.000001  -0.000082   0.003737
    29  H    0.001082   0.001515  -0.000214  -0.000099  -0.000105  -0.001448
    30  H    0.000003   0.000003   0.000001   0.000002  -0.000030   0.000759
    31  H    0.000002   0.000003  -0.000003  -0.000048   0.000351  -0.003883
    32  H   -0.000000   0.000004   0.000003   0.000002  -0.000119   0.000636
    33  H    0.000000  -0.000000   0.000000   0.000000   0.000001  -0.000107
    34  H   -0.000000   0.000003  -0.000000   0.000000  -0.000000   0.000003
    35  H   -0.000081  -0.000123   0.000006   0.000002   0.000002  -0.000002
    36  H    0.000036   0.000884  -0.000195   0.000009   0.000004  -0.000001
    37  H   -0.000004  -0.000041   0.000003  -0.000000   0.000000  -0.000000
    38  H    0.001274   0.000146  -0.000218   0.000002  -0.000000   0.000000
    39  H    0.006329  -0.004223   0.000313  -0.000130   0.000020  -0.000017
    40  H    0.008187  -0.029036  -0.019905   0.000459  -0.000122  -0.000002
    41  H    0.004025  -0.005953  -0.000008  -0.000001  -0.000000  -0.000000
    42  H    0.000434  -0.003267   0.001501  -0.000010   0.000000  -0.000000
    43  H    0.000285   0.003162  -0.000168   0.000001  -0.000000   0.000000
               7          8          9         10         11         12
     1  C    0.000002   0.000001  -0.000211   0.000003  -0.000036   0.000488
     2  C    0.000019  -0.000004  -0.000268   0.000026  -0.000347   0.003035
     3  C   -0.000141  -0.000019   0.000037  -0.000011   0.000035  -0.000167
     4  C    0.002375   0.000103  -0.000660  -0.000002  -0.000005   0.000003
     5  C   -0.030741   0.002946   0.000703   0.000046   0.000008  -0.000001
     6  C    0.417436  -0.034742  -0.015508   0.002600  -0.000231   0.000009
     7  C    4.906908   0.409835  -0.044833  -0.032725   0.002606   0.000049
     8  C    0.409835   4.584628   0.428050   0.409885  -0.034799   0.002933
     9  C   -0.044833   0.428050   5.038777  -0.044833  -0.015384   0.000693
    10  C   -0.032725   0.409885  -0.044833   4.906721   0.417165  -0.030473
    11  C    0.002606  -0.034799  -0.015384   0.417165   4.850031   0.407675
    12  C    0.000049   0.002933   0.000693  -0.030473   0.407675   4.854772
    13  C   -0.000003   0.000114  -0.000699   0.002187  -0.030867   0.401785
    14  C   -0.000004  -0.000018   0.000023  -0.000084   0.002380  -0.027512
    15  C    0.000000   0.000000  -0.000001   0.000000  -0.000004   0.003357
    16  H   -0.000000   0.000000  -0.000001   0.000000   0.000000  -0.000006
    17  H    0.000000   0.000000  -0.000001  -0.000000   0.000002  -0.000015
    18  H   -0.000058   0.000001   0.000005   0.000006   0.000002  -0.000127
    19  H    0.000001   0.000000  -0.000001   0.000000  -0.000000   0.000002
    20  H   -0.000047   0.000000   0.000026  -0.000000   0.000000  -0.000000
    21  H    0.000580   0.000008  -0.001015   0.000012  -0.000014   0.000018
    22  H   -0.013938   0.000362   0.000035  -0.000091   0.000000   0.000003
    23  H    0.003724  -0.000125  -0.000008  -0.000000  -0.000000   0.000000
    24  H   -0.027912   0.004471  -0.000383  -0.000065   0.000003  -0.000000
    25  H   -0.038904  -0.015821   0.004830   0.000380  -0.000001   0.000002
    26  H    0.373077  -0.036032   0.002720  -0.017659   0.000641  -0.000122
    27  H    0.346213  -0.020988   0.004118   0.004254  -0.000107   0.000001
    28  H   -0.038571   0.362214  -0.054810  -0.038604   0.003743  -0.000084
    29  H   -0.005840  -0.019713   0.367369  -0.005766  -0.001462  -0.000123
    30  H    0.004938  -0.018665   0.368194  -0.005375  -0.003917   0.000364
    31  H   -0.005357  -0.018658   0.368028   0.004940   0.000760  -0.000030
    32  H   -0.017654  -0.036038   0.002722   0.373018  -0.040700  -0.015602
    33  H    0.004258  -0.021000   0.004123   0.346228  -0.024846   0.003925
    34  H   -0.000066   0.004504  -0.000392  -0.027969   0.350593  -0.024914
    35  H    0.000382  -0.015831   0.004826  -0.039074   0.385315  -0.047354
    36  H   -0.000093   0.000375   0.000032  -0.014030  -0.041940   0.382385
    37  H   -0.000000  -0.000126  -0.000008   0.003752  -0.025117   0.349168
    38  H   -0.000000   0.000001   0.000028  -0.000030   0.003110  -0.026598
    39  H    0.000014   0.000008  -0.001064   0.000644  -0.014610  -0.037758
    40  H    0.000010  -0.000001   0.000004  -0.000009   0.000218  -0.013686
    41  H    0.000000  -0.000000   0.000000   0.000000  -0.000002  -0.000037
    42  H   -0.000000  -0.000000   0.000000  -0.000000   0.000001  -0.000164
    43  H   -0.000000  -0.000000   0.000000   0.000000  -0.000002   0.000604
              13         14         15         16         17         18
     1  C   -0.017423  -0.049096  -0.011305   0.352715   0.348006   0.006431
     2  C   -0.024377   0.436867  -0.021876  -0.005360  -0.003268  -0.024460
     3  C    0.005283  -0.051933   0.003805  -0.014956   0.007162   0.360980
     4  C   -0.000194   0.001868   0.000063   0.002301  -0.000024  -0.042953
     5  C   -0.000005   0.000067   0.000000  -0.000004  -0.000007  -0.014195
     6  C   -0.000002   0.000001  -0.000000   0.000002   0.000000   0.000465
     7  C   -0.000003  -0.000004   0.000000  -0.000000   0.000000  -0.000058
     8  C    0.000114  -0.000018   0.000000   0.000000   0.000000   0.000001
     9  C   -0.000699   0.000023  -0.000001  -0.000001  -0.000001   0.000005
    10  C    0.002187  -0.000084   0.000000   0.000000  -0.000000   0.000006
    11  C   -0.030867   0.002380  -0.000004   0.000000   0.000002   0.000002
    12  C    0.401785  -0.027512   0.003357  -0.000006  -0.000015  -0.000127
    13  C    4.924210   0.403585  -0.024445   0.000039   0.002608   0.000479
    14  C    0.403585   4.754692   0.371675   0.006062  -0.015225  -0.015424
    15  C   -0.024445   0.371675   5.021881  -0.000010   0.001114   0.000348
    16  H    0.000039   0.006062  -0.000010   0.603126  -0.047637   0.000046
    17  H    0.002608  -0.015225   0.001114  -0.047637   0.603690  -0.000191
    18  H    0.000479  -0.015424   0.000348   0.000046  -0.000191   0.643795
    19  H   -0.000038   0.004385  -0.000772   0.001536  -0.000151  -0.041207
    20  H    0.000002  -0.000090   0.000002  -0.000012   0.000021   0.004966
    21  H   -0.000136   0.000606   0.000002   0.002472  -0.000321   0.003396
    22  H    0.000005  -0.000127   0.000003   0.000001   0.000000   0.009770
    23  H   -0.000000  -0.000001  -0.000000   0.000002  -0.000000   0.000419
    24  H   -0.000000   0.000000  -0.000000  -0.000000   0.000000  -0.000019
    25  H    0.000003  -0.000000  -0.000000   0.000006   0.000000   0.000101
    26  H    0.000000   0.000009   0.000000  -0.000000   0.000000  -0.000046
    27  H    0.000000  -0.000000  -0.000000   0.000000   0.000000   0.000004
    28  H   -0.000002   0.000000   0.000000  -0.000000  -0.000000  -0.000000
    29  H   -0.000245  -0.000067   0.000008  -0.000015  -0.000016  -0.000041
    30  H   -0.000047  -0.000004  -0.000000   0.000000   0.000000   0.000000
    31  H    0.000003   0.000001  -0.000000  -0.000000   0.000000  -0.000000
    32  H    0.000297  -0.000018   0.000003   0.000000  -0.000000   0.000019
    33  H   -0.000078   0.000002  -0.000000   0.000000   0.000000   0.000000
    34  H    0.003726  -0.000053   0.000004   0.000000  -0.000000  -0.000000
    35  H   -0.014131   0.000417  -0.000012   0.000000   0.000005   0.000002
    36  H   -0.043961  -0.012953   0.000287   0.000000   0.000001  -0.000017
    37  H   -0.024352   0.003120  -0.000673  -0.000000   0.000002   0.000003
    38  H    0.345261  -0.025111  -0.015336   0.000023  -0.000258  -0.000012
    39  H    0.365899  -0.035925   0.004269  -0.000298   0.002379   0.000057
    40  H   -0.059076   0.358304  -0.050057  -0.000195   0.000041   0.011566
    41  H   -0.007488  -0.023715   0.373578  -0.000138   0.002574   0.000020
    42  H    0.004728  -0.024071   0.368687  -0.000025   0.000092   0.000180
    43  H   -0.004341  -0.021762   0.362027   0.000006  -0.000123  -0.000049
              19         20         21         22         23         24
     1  C   -0.008275   0.001034   0.005109   0.000033  -0.000002  -0.000000
     2  C   -0.012525   0.001076  -0.001833   0.000590   0.000005   0.000001
     3  C    0.340302  -0.022029  -0.046842  -0.013332   0.003323  -0.000114
     4  C   -0.023463   0.349153   0.380555  -0.042438  -0.024309   0.003776
     5  C    0.003854  -0.026775  -0.039095   0.381037   0.349788  -0.025527
     6  C   -0.000110   0.003336  -0.013973  -0.041578  -0.024960   0.351558
     7  C    0.000001  -0.000047   0.000580  -0.013938   0.003724  -0.027912
     8  C    0.000000   0.000000   0.000008   0.000362  -0.000125   0.004471
     9  C   -0.000001   0.000026  -0.001015   0.000035  -0.000008  -0.000383
    10  C    0.000000  -0.000000   0.000012  -0.000091  -0.000000  -0.000065
    11  C   -0.000000   0.000000  -0.000014   0.000000  -0.000000   0.000003
    12  C    0.000002  -0.000000   0.000018   0.000003   0.000000  -0.000000
    13  C   -0.000038   0.000002  -0.000136   0.000005  -0.000000  -0.000000
    14  C    0.004385  -0.000090   0.000606  -0.000127  -0.000001   0.000000
    15  C   -0.000772   0.000002   0.000002   0.000003  -0.000000  -0.000000
    16  H    0.001536  -0.000012   0.002472   0.000001   0.000002  -0.000000
    17  H   -0.000151   0.000021  -0.000321   0.000000  -0.000000   0.000000
    18  H   -0.041207   0.004966   0.003396   0.009770   0.000419  -0.000019
    19  H    0.636372  -0.013799   0.005235   0.000275  -0.000474   0.000006
    20  H   -0.013799   0.660755  -0.039750   0.004929  -0.014482  -0.000565
    21  H    0.005235  -0.039750   0.616778   0.003146   0.004794   0.000360
    22  H    0.000275   0.004929   0.003146   0.640603  -0.040385   0.004265
    23  H   -0.000474  -0.014482   0.004794  -0.040385   0.661634  -0.013829
    24  H    0.000006  -0.000565   0.000360   0.004265  -0.013829   0.673088
    25  H   -0.000015   0.000756   0.007843   0.004576   0.004551  -0.042378
    26  H    0.000003  -0.000011   0.000082   0.009982   0.000460   0.004603
    27  H   -0.000000   0.000006  -0.000027   0.000445  -0.000571  -0.015462
    28  H    0.000000  -0.000000   0.000008  -0.000010   0.000005  -0.000224
    29  H    0.000009  -0.000039   0.003865  -0.000036   0.000008   0.000173
    30  H   -0.000000  -0.000000   0.000015   0.000001   0.000000  -0.000036
    31  H    0.000000  -0.000002   0.000009   0.000003  -0.000006   0.000473
    32  H   -0.000000  -0.000000   0.000002   0.000018   0.000004  -0.000013
    33  H    0.000000  -0.000000  -0.000000   0.000003  -0.000000   0.000005
    34  H   -0.000000   0.000000   0.000000  -0.000000   0.000000  -0.000000
    35  H   -0.000000  -0.000000  -0.000023   0.000000   0.000000   0.000001
    36  H    0.000003  -0.000000   0.000005   0.000018   0.000000  -0.000000
    37  H   -0.000000  -0.000000  -0.000000  -0.000000   0.000000   0.000000
    38  H    0.000006  -0.000000   0.000006  -0.000000   0.000000   0.000000
    39  H    0.000001   0.000006   0.000099   0.000005  -0.000000   0.000000
    40  H    0.000333  -0.000010   0.000069   0.000036   0.000004  -0.000000
    41  H    0.000017  -0.000000  -0.000000   0.000000   0.000000   0.000000
    42  H    0.000076   0.000000  -0.000000   0.000000  -0.000000   0.000000
    43  H    0.000007  -0.000000  -0.000000  -0.000000   0.000000   0.000000
              25         26         27         28         29         30
     1  C   -0.000078  -0.000000   0.000000  -0.000000   0.001082   0.000003
     2  C   -0.000115  -0.000001   0.000000  -0.000000   0.001515   0.000003
     3  C    0.000447  -0.000048   0.000004  -0.000000  -0.000214   0.000001
     4  C   -0.013895   0.000346  -0.000083  -0.000001  -0.000099   0.000002
     5  C   -0.047451  -0.015530   0.003919  -0.000082  -0.000105  -0.000030
     6  C    0.384910  -0.040850  -0.024787   0.003737  -0.001448   0.000759
     7  C   -0.038904   0.373077   0.346213  -0.038571  -0.005840   0.004938
     8  C   -0.015821  -0.036032  -0.020988   0.362214  -0.019713  -0.018665
     9  C    0.004830   0.002720   0.004118  -0.054810   0.367369   0.368194
    10  C    0.000380  -0.017659   0.004254  -0.038604  -0.005766  -0.005375
    11  C   -0.000001   0.000641  -0.000107   0.003743  -0.001462  -0.003917
    12  C    0.000002  -0.000122   0.000001  -0.000084  -0.000123   0.000364
    13  C    0.000003   0.000000   0.000000  -0.000002  -0.000245  -0.000047
    14  C   -0.000000   0.000009  -0.000000   0.000000  -0.000067  -0.000004
    15  C   -0.000000   0.000000  -0.000000   0.000000   0.000008  -0.000000
    16  H    0.000006  -0.000000   0.000000  -0.000000  -0.000015   0.000000
    17  H    0.000000   0.000000   0.000000  -0.000000  -0.000016   0.000000
    18  H    0.000101  -0.000046   0.000004  -0.000000  -0.000041   0.000000
    19  H   -0.000015   0.000003  -0.000000   0.000000   0.000009  -0.000000
    20  H    0.000756  -0.000011   0.000006  -0.000000  -0.000039  -0.000000
    21  H    0.007843   0.000082  -0.000027   0.000008   0.003865   0.000015
    22  H    0.004576   0.009982   0.000445  -0.000010  -0.000036   0.000001
    23  H    0.004551   0.000460  -0.000571   0.000005   0.000008   0.000000
    24  H   -0.042378   0.004603  -0.015462  -0.000224   0.000173  -0.000036
    25  H    0.634476   0.004272   0.004580   0.000526   0.000371  -0.000205
    26  H    0.004272   0.647328  -0.042390   0.005561   0.000381  -0.000129
    27  H    0.004580  -0.042390   0.665404  -0.016795  -0.000197  -0.000148
    28  H    0.000526   0.005561  -0.016795   0.718039   0.006660  -0.004204
    29  H    0.000371   0.000381  -0.000197   0.006660   0.586189  -0.035376
    30  H   -0.000205  -0.000129  -0.000148  -0.004204  -0.035376   0.611177
    31  H    0.003753  -0.000101   0.000153  -0.004233  -0.035398  -0.033190
    32  H    0.000041   0.011044   0.000423   0.005564   0.000383  -0.000102
    33  H   -0.000015   0.000420  -0.000594  -0.016821  -0.000200   0.000155
    34  H    0.000001  -0.000013   0.000005  -0.000225   0.000177   0.000465
    35  H   -0.000039   0.000040  -0.000015   0.000526   0.000265   0.003758
    36  H    0.000001   0.000010   0.000003  -0.000011  -0.000037   0.000003
    37  H    0.000000   0.000004  -0.000000   0.000005   0.000008  -0.000005
    38  H   -0.000000  -0.000000  -0.000000  -0.000000  -0.000043  -0.000002
    39  H   -0.000025   0.000002  -0.000000   0.000009   0.004134   0.000014
    40  H    0.000002   0.000030   0.000000  -0.000000  -0.000037  -0.000000
    41  H   -0.000000   0.000000   0.000000   0.000000  -0.000000  -0.000000
    42  H    0.000000   0.000000  -0.000000  -0.000000  -0.000000  -0.000000
    43  H    0.000000   0.000000  -0.000000   0.000000  -0.000000   0.000000
              31         32         33         34         35         36
[...]
 0.00004797,0.00002240,0.00002028,0.00002221,-0.00090731,0.00096318,-0.
 00037842,-0.00018861,0.00006713,-0.00014526,0.00001218,-0.00007504,-0.
 00008829,0.00010089,0.00015246,-0.00023373,0.00005093,-0.00003633,-0.0
 0000369,0.00000302,-0.00001116,0.00004410,0.00005413,-0.00002202,-0.00
 001190,0.00004042,-0.00009609,0.00005161,-0.00006347,-0.00004585,0.000
 08569,0.00019281,-0.00019410,0.00023942,-0.00016791,-0.00000973,-0.000
 09146,-0.00239218,-0.00187756,-0.00090923,0.00494820,0.00701916,-0.006
 92741,-0.08466767,-0.10452360,0.16515685,-0.00181268,-0.00446292,-0.00
 115071,-0.02161102,0.01184488,-0.00829390,0.00044448,0.00139240,0.0003
 5019,-0.00019731,-0.00046559,0.00020708,-0.00035790,0.00002988,0.00030
 880,-0.00003567,-0.00013511,0.00006147,0.00072545,-0.00033369,-0.00045
 158,-0.00019617,0.00039665,-0.00001451,-0.00009621,-0.00005224,-0.0000
 6893,0.00001571,0.00015620,-0.00000651,0.00014043,-0.00026089,0.000019
 70,0.00073191,-0.00168490,-0.00085343,-0.01046301,0.00868589,-0.002614
 11,-0.19885183,0.10300462,-0.06169174,0.00827633,-0.00672090,0.0045693
 5,-0.00098060,0.00031140,-0.00077903,0.00017313,0.00013337,0.00024974,
 0.00055038,-0.00081353,-0.00027293,0.00049624,0.00032964,-0.00004197,0
 .00006114,0.00007773,0.00007850,-0.00017795,0.00001150,0.00001027,0.00
 056112,0.00007830,-0.00017333,0.00015270,0.00017867,-0.00017842,-0.000
 01133,0.00008382,-0.00002266,0.00004844,0.00003567,-0.00007071,-0.0005
 5174,0.00026648,0.00025564,0.00010768,-0.00004286,0.00004100,0.0000132
 9,-0.00009341,-0.00016111,0.00002884,0.00001509,0.00002684,0.00004318,
 -0.00002072,-0.00003843,-0.00000410,-0.00000959,0.00003007,0.00000739,
 -0.00000933,0.00001931,0.00001518,-0.00007823,0.00001798,0.00003730,-0
 .00001399,-0.00002874,0.00001048,0.00001056,-0.00008868,0.00083112,0.0
 0016392,0.00023459,0.00013969,-0.00020182,-0.00012055,-0.00021022,0.00
 056427,0.00217773,-0.00002544,-0.00018552,-0.00001533,0.22025477,-0.00
 241837,-0.00307620,-0.00116939,-0.01936701,0.00865073,-0.00841993,-0.0
 0148536,0.00080907,-0.00046951,-0.00000499,0.00003021,0.00014183,-0.00
 003645,-0.00050461,0.00035319,0.00005708,0.00007714,0.00012987,-0.0002
 7558,0.00014014,0.00050495,0.00005577,-0.00023083,0.00001706,0.0000740
 0,0.00001999,0.00004444,-0.00000088,-0.00002777,-0.00004299,-0.0002311
 9,0.00020272,-0.00009546,0.00193858,0.00027506,0.00094750,0.01475010,-
 0.01271926,0.00281745,0.10651145,-0.11856592,0.04348918,0.01491034,-0.
 01289203,0.00880086,-0.00098009,0.00045303,-0.00042793,-0.00007498,0.0
 0017332,-0.00003144,0.00004643,0.00014963,-0.00025143,0.00001861,0.000
 14515,0.00013212,0.00001140,0.00003284,-0.00006042,-0.00000436,-0.0000
 0328,-0.00001002,0.00014418,-0.00037184,0.00016014,0.00001393,-0.00005
 423,0.00000514,-0.00000628,-0.00005565,-0.00001819,-0.00002932,-0.0000
 6754,-0.00001299,0.00045971,0.00005492,0.00022414,-0.00021916,0.000091
 39,-0.00008013,-0.00000541,0.00003453,0.00008147,-0.00002390,-0.000001
 45,-0.00001194,-0.00002912,0.00000432,0.00001205,-0.00001169,-0.000008
 13,-0.00000334,-0.00004648,0.00000052,-0.00003594,-0.00002055,0.000016
 89,0.00001918,-0.00001216,0.00001806,0.00006399,-0.00008326,0.00003487
 ,0.00018200,-0.00134182,-0.00014836,-0.00046567,-0.00016494,0.00022405
 ,0.00006159,0.00118238,-0.00143688,-0.00325339,-0.00019196,0.00040730,
 -0.00012793,-0.11100131,0.13857779,-0.00109654,-0.00187592,0.00024621,
 -0.00932677,0.00470303,-0.00430011,-0.00033955,0.00081679,0.00076949,-
 0.00002438,-0.00022613,0.00017489,-0.00016734,0.00019951,0.00006307,0.
 00011055,0.00012599,0.00005633,-0.00010829,0.00024583,-0.00072080,0.00
 003758,-0.00014588,-0.00005586,0.00005309,0.00003923,0.00004251,-0.000
 05848,-0.00005625,0.00001143,0.00014809,0.00015525,0.00002023,0.001704
 90,-0.00003327,0.00124776,0.01934454,-0.01703247,0.00517604,-0.0621409
 4,0.04207876,-0.07077033,-0.01910886,0.01645750,-0.01086424,-0.0006007
 7,0.00015691,0.00007770,0.00022258,0.00006708,-0.00019399,0.00033263,-
 0.00044132,-0.00030155,0.00026436,0.00011645,-0.00010144,0.00002676,-0
 .00005056,0.00000421,0.00008099,-0.00002732,-0.00005791,0.00010035,0.0
 0018852,0.00004209,0.00002176,0.00001472,-0.00006253,-0.00001171,-0.00
 007061,-0.00000409,-0.00002888,-0.00004744,-0.00002583,0.00041253,0.00
 015245,-0.00121858,-0.00007800,0.00004608,-0.00009732,-0.00001681,0.00
 003061,0.00007208,-0.00001601,-0.00000554,-0.00001391,-0.00003023,0.00
 000139,0.00001913,-0.00000215,0.00000051,-0.00000695,-0.00002619,0.000
 00876,-0.00002668,0.00000122,0.00002240,0.00000440,0.00001517,0.000025
 33,0.00004662,-0.00004497,-0.00000859,0.00005683,-0.00074063,0.0001304
 8,0.00023038,-0.00004842,0.00002684,0.00000308,0.00195202,-0.00298871,
 -0.00383712,-0.00029351,0.00076975,0.00065809,0.06759052,-0.04542178,0
 .08535406,-0.00018693,-0.00014155,0.00052183,0.00085712,-0.00013639,-0
 .00052584,0.00011316,0.00009735,0.00003330,-0.00003961,-0.00005078,-0.
 00000557,-0.00001851,-0.00001173,0.00000409,0.00001494,0.00000791,0.00
 000255,-0.00008839,0.00002073,0.00002167,0.00002452,-0.00002434,0.0000
 1590,0.00000416,0.00000296,-0.00000069,-0.00001320,-0.00001354,0.00001
 006,0.00009575,0.00000198,0.00004512,-0.00018229,0.00014639,-0.0000937
 2,0.00101719,-0.00023477,-0.00049491,0.00766996,-0.00639056,0.00436613
 ,-0.19161401,0.11239589,-0.06720866,0.00005787,0.00002095,0.00004846,-
 0.00064557,-0.00061022,0.00020823,0.00003497,-0.00000772,0.00001898,-0
 .00001708,0.00001510,-0.00001240,0.00000804,-0.00001745,0.00000198,0.0
 0001686,-0.00000782,-0.00002340,-0.00000890,0.00000991,0.00000135,-0.0
 0000472,-0.00000325,-0.00000068,-0.00000431,-0.00000850,0.00000024,0.0
 0000394,0.00000066,-0.00000262,0.00006982,-0.00004646,0.00002345,0.000
 01704,0.00000168,-0.00000461,-0.00000225,0.00000775,0.00000971,-0.0000
 0317,0.00000016,0.00000048,-0.00000097,-0.00000236,-0.00000296,0.00000
 084,0.00000265,-0.00000063,0.00000990,0.00000285,0.00000489,0.00000165
 ,0.00000287,-0.00000989,-0.00001080,-0.00001050,-0.00001683,0.00001715
 ,-0.00000430,-0.00003165,0.00010333,-0.00012199,0.00006925,-0.00010626
 ,0.00000052,-0.00004420,0.00016598,0.00008945,-0.00051760,0.00010428,-
 0.00014953,-0.00017019,0.00041287,-0.00185046,0.00200969,0.20755467,-0
 .00013611,-0.00019776,-0.00050830,0.00220385,0.00097183,0.00024115,0.0
 0004567,-0.00009673,-0.00018778,-0.00003794,0.00012308,-0.00001575,0.0
 0009974,0.00004404,-0.00010127,-0.00001507,0.00003683,0.00000127,-0.00
 008608,0.00007736,0.00001934,0.00002238,-0.00006279,-0.00000469,0.0000
 1364,0.00001186,0.00001395,-0.00000748,-0.00000951,0.00000587,0.000037
 05,-0.00002740,-0.00000802,-0.00013284,0.00004649,-0.00011899,-0.00015
 231,0.00074421,-0.00153401,0.01439590,-0.01325860,0.00779836,0.1109493
 2,-0.13181838,0.05025442,-0.00008240,0.00030705,-0.00021766,-0.0008971
 1,0.00032313,0.00041089,-0.00011367,0.00022609,0.00004771,-0.00008849,
 -0.00009106,-0.00001768,-0.00001445,-0.00000243,-0.00002910,0.00002729
 ,0.00000944,0.00001091,-0.00009537,0.00001911,0.00003130,-0.00004174,-
 0.00003317,0.00002355,0.00000113,-0.00002047,-0.00000159,-0.00000944,-
 0.00001229,0.00001966,0.00009642,-0.00002538,-0.00004208,-0.00004552,0
 .00000606,-0.00001970,-0.00000063,0.00001064,0.00003094,0.00000019,0.0
 0000123,-0.00000711,-0.00000869,0.00000420,0.00000940,0.00000132,-0.00
 000295,-0.00000235,-0.00000001,-0.00000373,-0.00000100,-0.00000016,0.0
 0000978,0.00000817,0.00000129,0.00000685,0.00000160,0.00001003,-0.0000
 0126,-0.00000807,-0.00000278,-0.00012470,0.00000187,-0.00002802,0.0000
 2608,0.00001747,-0.00036658,0.00066295,0.00040775,-0.00014866,0.000050
 29,-0.00014340,-0.00198187,-0.00170579,0.00324257,-0.12211785,0.142518
 94,-0.00012257,0.00014470,0.00009214,-0.00065793,-0.00134680,0.0001316
 6,0.00004909,-0.00008015,0.00015845,-0.00006451,-0.00009227,0.00003869
 ,-0.00006939,-0.00001446,0.00007155,-0.00000398,-0.00003144,-0.0000075
 8,0.00014364,-0.00008574,-0.00004005,-0.00003558,0.00008020,-0.0000014
 5,-0.00002686,-0.00001211,-0.00002117,-0.00000602,0.00002705,-0.000000
 07,0.00004579,-0.00004857,0.00000981,-0.00011795,0.00002110,-0.0001567
 1,-0.00184293,0.00080451,0.00166804,-0.01847386,0.01538293,-0.01069050
 ,-0.06653059,0.05060916,-0.07657077,0.00013018,-0.00022101,0.00011280,
 0.00041786,-0.00010473,0.00009055,-0.00001224,-0.00002171,-0.00001600,
 0.00004867,0.00007050,0.00003507,0.00001156,0.00001385,0.00002701,-0.0
 0002902,-0.00000787,0.00001448,0.00008892,-0.00001688,-0.00003650,0.00
 003193,0.00003523,-0.00003137,-0.00000335,0.00002029,-0.00000632,0.000
 00992,0.00001533,-0.00001394,-0.00015673,0.00007573,0.00002116,0.00005
 030,-0.00001808,0.00003071,0.00000465,-0.00001951,-0.00003735,0.000008
 76,0.00000378,0.00000794,0.00001170,-0.00000503,-0.00000987,0.00000050
 ,-0.00000210,0.00000768,0.00000818,0.00000054,0.00000824,0.00000328,-0
 .00001611,-0.00000223,0.00000647,-0.00001024,-0.00001688,0.00001799,-0
 .00000063,-0.00003560,0.00024358,0.00000752,0.00016692,-0.00005993,-0.
 00008104,-0.00006539,0.00075145,-0.00073977,-0.00006095,0.00020706,-0.
 00022659,0.00035105,0.00216246,0.00318920,-0.00344539,0.07255110,-0.05
 946357,0.08354108,-0.00032113,0.00031981,-0.00069709,0.00088736,0.0007
 6556,0.00046381,-0.00002009,-0.00019760,0.00005334,-0.00000037,0.00001
 534,0.00006283,0.00004529,0.00000705,-0.00002848,0.00000111,0.00001910
 ,0.00001115,-0.00001546,0.00002099,-0.00003557,-0.00000533,-0.00001440
 ,-0.00000583,-0.00001951,0.00000860,-0.00001008,0.00000837,-0.00000133
 ,-0.00002387,0.00014820,0.00018164,0.00004472,-0.00014486,-0.00031486,
 -0.00007223,-0.00047954,-0.00194875,0.00155184,-0.00498434,0.00585492,
 0.00712167,-0.07766412,0.05068369,0.06743155,-0.00001043,-0.00012019,-
 0.00000450,0.00006572,-0.00004650,0.00018882,0.00001462,-0.00009051,0.
 00007233,-0.00003740,-0.00002259,-0.00000592,-0.00000399,-0.00000223,-
 0.00003154,0.00002224,0.00001180,-0.00003284,-0.00001743,0.00000319,0.
 00001280,-0.00001149,-0.00001008,0.00000098,-0.00000385,-0.00001676,-0
 .00000839,-0.00000381,-0.00000447,0.00000449,-0.00000051,0.00002144,0.
 00000212,0.00000027,-0.00000757,0.00000202,0.00000518,0.00000333,0.000
 01112,0.00001639,0.00000208,-0.00000326,0.00000150,-0.00000158,0.00000
 774,0.00000426,-0.00000624,0.00000784,0.00000586,-0.00000497,0.0000068
 1,-0.00000183,0.00000108,0.00000377,0.00001848,0.00001788,0.00005027,0
 .00003034,-0.00001667,-0.00010049,0.00011756,-0.00008901,0.00014442,-0
 .00001154,0.00030953,-0.00001266,0.00034240,-0.00033863,-0.00028212,0.
 00013641,0.00029284,0.00082634,0.00050676,-0.00035368,-0.00040474,-0.0
 0831068,0.01336138,0.01874326,0.08063222,0.00029724,-0.00008999,0.0000
 1325,-0.00007403,0.00119612,0.00032352,0.00006083,0.00015169,0.0001397
 6,0.00002657,0.00000442,0.00006898,0.00000438,-0.00001572,0.00000215,0
 .00000080,0.00000648,0.00000698,0.00000841,0.00000997,-0.00001932,-0.0
 0001740,-0.00000655,-0.00000108,-0.00001685,0.00000862,-0.00000556,0.0
 0003065,-0.00001197,-0.00002755,0.00005845,0.00016242,0.00005667,-0.00
 012472,-0.00032057,-0.00007521,-0.00154353,-0.00279439,0.00270636,-0.0
 0771439,0.01130589,0.01590666,0.05152008,-0.12964959,-0.11217482,-0.00
 002961,0.00006811,-0.00000735,-0.00003070,0.00003007,-0.00004276,0.000
 10012,-0.00010462,-0.00003618,0.00004934,0.00005940,-0.00002839,0.0000
 0541,-0.00000254,-0.00003172,0.00000895,0.00001219,-0.00002244,0.00001
 122,0.00000155,0.00000195,0.00000044,0.00000721,-0.00000392,-0.0000063
 1,-0.00000232,-0.00000967,0.00000159,0.00000145,-0.00000248,-0.0000461
 4,0.00003366,-0.00002386,0.00001173,-0.00000793,0.00000409,0.00000296,
 0.00000803,-0.00000389,0.00001067,-0.00000114,-0.00000777,0.00000324,-
 0.00000476,0.00000473,0.00000469,0.00000083,0.00000514,0.00000475,-0.0
 0000167,0.00000969,-0.00000572,0.00000582,-0.00001369,0.00002708,0.000
 01426,0.00003256,0.00004686,-0.00001283,-0.00008767,0.00007628,-0.0000
 3433,0.00002544,0.00007271,0.00032131,0.00005268,-0.00028312,0.0000476
 6,0.00000940,-0.00048287,0.00075693,0.00106874,0.00032849,0.00094264,-
 0.00083212,0.00497531,-0.01063344,-0.01401059,-0.05476069,0.13923840,0
 .00012766,0.00016088,0.00056146,-0.00122553,-0.00088344,0.00033321,0.0
 0038133,0.00011159,-0.00003921,-0.00001690,-0.00001656,-0.00008166,0.0
 0003242,0.00004461,-0.00003940,-0.00003277,-0.00004333,-0.00001758,0.0
 0008496,-0.00003142,0.00007541,-0.00001425,-0.00001400,-0.00000097,0.0
 0004570,-0.00000161,0.00003906,0.00005904,-0.00006342,0.00002671,0.000
 02485,-0.00003270,0.00004893,0.00038853,0.00017328,0.00031728,0.001423
 54,0.00470014,-0.00244227,0.00828352,-0.01349727,-0.01808537,0.0680114
 4,-0.11105137,-0.19536676,0.00015359,-0.00001050,-0.00014153,-0.000060
 95,0.00001297,0.00008603,-0.00011465,0.00022870,-0.00002373,-0.0000301
 1,0.00009658,0.00002322,-0.00001483,0.00002199,0.00004245,-0.00005646,
 -0.00002144,0.00008390,-0.00002250,-0.00002081,-0.00000674,-0.00000299
 ,0.00002036,0.00001423,0.00000138,0.00003860,0.00000343,0.00000159,0.0
 0000723,0.00001212,0.00001272,-0.00007746,0.00002343,-0.00002092,0.000
 00433,-0.00001448,-0.00001205,0.00002032,-0.00002451,-0.00004258,-0.00
 001027,0.00000395,-0.00001183,0.00000132,-0.00000775,-0.00000342,0.000
 02403,-0.00002370,-0.00001808,0.00001363,0.00000064,-0.00001473,0.0000
 2734,-0.00004266,-0.00005418,-0.00003128,-0.00007468,-0.00006038,0.000
 00968,-0.00000197,-0.00008772,-0.00003732,0.00006651,-0.00007308,0.000
 03094,-0.00002843,-0.00003150,0.00006237,0.00026140,0.00057137,-0.0008
 9953,-0.00141167,-0.00072991,-0.00024474,0.00063074,-0.00399986,0.0065
 1198,0.00894711,-0.07635848,0.12002231,0.21400588,0.00024695,-0.000526
 67,0.00032520,-0.00000732,-0.00124094,0.00138196,-0.00054983,0.0000111
 4,0.00001362,0.00006658,-0.00006792,-0.00008103,-0.00006274,0.00000867
 ,-0.00000219,0.00001017,-0.00003122,-0.00001532,-0.00000806,0.00001881
 ,0.00001314,-0.00001622,-0.00005121,-0.00002036,-0.00000128,0.00002612
 ,0.00001335,0.00009023,-0.00009093,-0.00003514,0.00016888,0.00036798,0
 .00010590,0.00015958,-0.00062057,-0.00021514,-0.00020755,-0.00029230,-
 0.00053805,-0.00780764,-0.00484417,-0.00366096,-0.18974940,-0.11252030
 ,-0.06220819,-0.00003655,-0.00008243,0.00013504,0.00033508,-0.00002848
 ,-0.00025751,0.00009638,-0.00007445,0.00002509,0.00004352,-0.00015306,
 0.00000825,0.00000093,-0.00002424,0.00005368,-0.00000495,0.00001683,-0
 .00000872,-0.00000753,0.00000369,-0.00000328,0.00001831,-0.00000629,0.
 00002250,0.00001606,0.00001491,0.00002534,0.00000030,0.00000942,-0.000
 00112,-0.00000891,-0.00003909,-0.00002387,0.00001392,-0.00000125,-0.00
 000219,0.00000230,0.00003206,0.00000366,-0.00000515,-0.00001756,-0.000
 00363,-0.00000396,0.00000120,0.00001429,0.00000810,0.00001901,-0.00001
 729,-0.00000008,0.00000738,0.00001020,-0.00003004,0.00004397,-0.000044
 63,-0.00000823,0.00000386,0.00002204,0.00003979,-0.00001522,-0.0001605
 9,0.00007103,-0.00009349,0.00015568,0.00007383,0.00074590,0.00006663,-
 0.00008357,0.00002082,0.00012625,0.00009968,0.00014961,-0.00003105,0.0
 0079718,0.00009681,0.00028486,-0.01711835,-0.01465532,-0.00753484,0.00
 905719,0.00738686,0.00350702,0.20430136,0.00004868,-0.00063025,0.00016
 514,-0.00082476,-0.00069797,0.00372035,-0.00059268,0.00006555,-0.00030
 507,0.00002954,0.00008673,-0.00010613,-0.00009183,0.00000564,0.0000263
 8,0.00002657,-0.00003605,-0.00002360,-0.00006995,0.00000725,0.00000859
 ,0.00001036,-0.00002321,-0.00000824,-0.00001155,0.00001540,-0.00000379
 ,-0.00000771,-0.00002768,0.00002026,0.00027614,0.00007667,0.00007276,-
 0.00039177,0.00027606,-0.00037195,0.00026159,0.00031401,-0.00059885,-0
 .01414780,-0.01227219,-0.00604663,-0.11264978,-0.13736321,-0.05018914,
 0.00004262,0.00011034,-0.00043572,-0.00033153,0.00016641,0.00024188,0.
 00007524,0.00001343,-0.00005243,0.00004557,-0.00019734,-0.00005739,0.0
 0000719,-0.00001079,0.00002743,-0.00000424,0.00001437,0.00000727,0.000
 01233,-0.00000408,-0.00001814,0.00002741,-0.00000361,0.00001250,0.0000
 1603,0.00001021,0.00003018,0.00000680,0.00001752,-0.00000790,-0.000017
 69,-0.00003785,-0.00001303,0.00005357,-0.00000742,0.00000920,0.0000033
 7,0.00001436,0.00000516,0.00000404,-0.00001312,0.00000016,0.00000313,0
 .00000077,0.00000756,0.00000744,0.00001303,-0.00001098,0.00002209,0.00
 000776,0.00001179,-0.00000094,0.00001636,-0.00002176,0.00000140,-0.000
 00265,-0.00000887,0.00003717,-0.00003385,-0.00014039,0.00031680,-0.000
 24305,0.00024240,0.00008503,0.00023487,-0.00033254,0.00004720,0.000084
 51,0.00015804,0.00008684,-0.00004300,-0.00003604,0.00046900,0.00030345
 ,-0.00055885,0.01415898,0.01189028,0.00617540,-0.01353194,-0.01070078,
 -0.00535669,0.12649205,0.14860315,0.00031373,0.00039960,0.00054671,0.0
 0032817,0.00218717,-0.00382030,0.00079073,0.00033030,0.00044611,-0.000
 02503,-0.00008622,0.00008864,0.00002750,-0.00001610,0.00000337,-0.0000
 0281,0.00002541,0.00001306,-0.00002223,-0.00000446,-0.00001724,0.00001
 423,0.00002450,-0.00000080,-0.00000606,-0.00001126,-0.00001304,-0.0000
 6640,0.00007147,-0.00000847,-0.00009479,-0.00005468,-0.00023347,0.0004
 4906,-0.00033681,-0.00047432,-0.00018626,-0.00052317,0.00118391,0.0198
 0926,0.01547085,0.00781167,-0.06337433,-0.05082440,-0.07482418,-0.0000
 1595,-0.00007557,0.00032319,0.00017496,-0.00016829,-0.00021613,-0.0000
 7460,0.00005557,-0.00003907,-0.00005837,0.00031376,0.00006540,-0.00000
 072,-0.00001338,0.00000051,0.00000834,-0.00002281,-0.00000949,-0.00000
 660,0.00000416,0.00000182,-0.00000791,-0.00000617,-0.00001008,-0.00000
 346,-0.00001861,-0.00000799,-0.00000361,-0.00000887,0.00000249,0.00002
 777,0.00003576,0.00001691,-0.00001842,0.00000754,-0.00000251,0.0000019
 0,-0.00002280,0.00001126,0.00001298,0.00000948,0.00000025,0.00000215,0
 .00000159,-0.00000049,-0.00000362,-0.00001518,0.00001164,-0.00000095,-
 0.00001001,-0.00001181,0.00001895,-0.00002837,0.00004358,0.00000468,0.
 00002405,0.00005505,-0.00002064,0.00001710,0.00009578,-0.00028215,0.00
 023659,-0.00025324,0.00007594,-0.00021806,-0.00065454,-0.00002035,-0.0
 0012267,-0.00009427,-0.00026291,0.00000506,0.00030161,-0.00054405,-0.0
 0072277,0.00109726,-0.00680156,-0.00667802,-0.00426605,-0.01870796,-0.
 01299298,-0.00773202,0.06855140,0.05376169,0.08056928\\0.00000308,0.00
 000307,-0.00000310,-0.00000320,-0.00000941,-0.00001242,-0.00000357,0.0
 0000421,0.00001266,-0.00000756,0.00000089,-0.00000658,0.00000978,-0.00
 000313,-0.00000463,-0.00000107,0.00000697,0.00000679,-0.00000488,-0.00
 000333,0.00000772,-0.00000733,-0.00000268,-0.00000363,0.00000281,-0.00
 000161,0.00000290,0.00000388,0.00000415,-0.00000412,-0.00000336,-0.000
 00157,0.00000128,0.00000005,0.00000002,0.00000167,0.00000337,-0.000002
 66,-0.00000023,0.00000269,0.00000350,-0.00000021,-0.00000270,-0.000005
 66,0.00000725,-0.00000045,-0.00000116,0.00000313,0.00000050,-0.0000008
 2,0.00000125,0.00000179,0.00000350,-0.00000229,0.00000106,-0.00000177,
 -0.00000170,0.00000063,-0.00000046,0.00000142,0.00000252,0.00000003,-0
 .00000209,-0.00000149,0.00000072,-0.00000064,-0.00000057,0.00000095,-0
 .00000062,0.00000124,0.00000016,0.00000240,0.00000022,0.00000033,-0.00
 000073,0.00000210,0.00000126,-0.00000307,0.00000195,0.00000102,0.00000
 113,0.00000168,-0.00000160,0.00000169,0.00000076,-0.00000148,0.0000008
 2,0.00000028,-0.00000212,-0.00000224,-0.00000120,-0.00000069,-0.000000
 37,-0.00000095,0.00000292,-0.00000037,-0.00000082,0.00000041,0.0000011
 4,-0.00000073,-0.00000026,0.00000136,0.00000112,0.00000046,-0.00000039
 ,-0.00000002,0.00000067,-0.00000067,0.00000078,-0.00000005,-0.00000044
 ,-0.00000311,0.00000027,-0.00000121,-0.00000120,-0.00000107,-0.0000015
 5,0.00000060,0.00000020,0.00000078,0.00000112,0.00000245,-0.00000101,-
 0.00000028,0.00000134,-0.00000101,0.00000047,0.00000202,-0.00000005\\\
 @


 A DANDELION FROM A LOVER MEANS MORE THAN AN ORCHID FROM A FRIEND.
 Job cpu time:       0 days 18 hours 49 minutes  4.8 seconds.
 Elapsed time:       0 days  4 hours 45 minutes 56.5 seconds.
 File lengths (MBytes):  RWF=    917 Int=      0 D2E=      0 Chk=     27 Scr=      1
 Normal termination of Gaussian 16 at Sun May 28 04:47:03 2023.
### All Done ###
