### Starting Gaussian ###
 Entering Gaussian System, Link 0=g16
 Initial command:
 /cluster/software/gaussian/gaussian-16-A.03/avx2/g16/l1.exe "/local/scratch/ks29c/Gau-6474.inp" -scrdir="/local/scratch/ks29c/"
 Entering Link 1 = /cluster/software/gaussian/gaussian-16-A.03/avx2/g16/l1.exe PID=      6475.
  
 Copyright (c) 1988,1990,1992,1993,1995,1998,2003,2009,2016,
            Gaussian, Inc.  All Rights Reserved.
  
 This is part of the Gaussian(R) 16 program.  It is based on
 the Gaussian(R) 09 system (copyright 2009, Gaussian, Inc.),
 the Gaussian(R) 03 system (copyright 2003, Gaussian, Inc.),
 the Gaussian(R) 98 system (copyright 1998, Gaussian, Inc.),
 the Gaussian(R) 94 system (copyright 1995, Gaussian, Inc.),
 the Gaussian 92(TM) system (copyright 1992, Gaussian, Inc.),
 the Gaussian 90(TM) system (copyright 1990, Gaussian, Inc.),
 the Gaussian 88(TM) system (copyright 1988, Gaussian, Inc.),
 the Gaussian 86(TM) system (copyright 1986, Carnegie Mellon
 University), and the Gaussian 82(TM) system (copyright 1983,
 Carnegie Mellon University). Gaussian is a federally registered
 trademark of Gaussian, Inc.
  
 This software contains proprietary and confidential information,
 including trade secrets, belonging to Gaussian, Inc.
  
 This software is provided under written license and may be
 used, copied, transmitted, or stored only in accord with that
 written license.
  
 The following legend is applicable only to US Government
 contracts under FAR:
  
                    RESTRICTED RIGHTS LEGEND
  
 Use, reproduction and disclosure by the US Government is
 subject to restrictions as set forth in subparagraphs (a)
 and (c) of the Commercial Computer Software - Restricted
 Rights clause in FAR 52.227-19.
  
 Gaussian, Inc.
 340 Quinnipiac St., Bldg. 40, Wallingford CT 06492
  
  
 ---------------------------------------------------------------
 Warning -- This program may not be used in any manner that
 competes with the business of Gaussian, Inc. or will provide
 assistance to any competitor of Gaussian, Inc.  The licensee
 of this program is prohibited from giving any competitor of
 Gaussian, Inc. access to this program.  By using this program,
 the user acknowledges that Gaussian, Inc. is engaged in the
 business of creating and licensing software in the field of
 computational chemistry and represents and warrants to the
 licensee that it is not a competitor of Gaussian, Inc. and that
 it will not use this program in any manner prohibited above.
 ---------------------------------------------------------------
  

 Cite this work as:
 Gaussian 16, Revision A.03,
 M. J. Frisch, G. W. Trucks, H. B. Schlegel, G. E. Scuseria, 
 M. A. Robb, J. R. Cheeseman, G. Scalmani, V. Barone, 
 G. A. Petersson, H. Nakatsuji, X. Li, M. Caricato, A. V. Marenich, 
 J. Bloino, B. G. Janesko, R. Gomperts, B. Mennucci, H. P. Hratchian, 
 J. V. Ortiz, A. F. Izmaylov, J. L. Sonnenberg, D. Williams-Young, 
 F. Ding, F. Lipparini, F. Egidi, J. Goings, B. Peng, A. Petrone, 
 T. Henderson, D. Ranasinghe, V. G. Zakrzewski, J. Gao, N. Rega, 
 G. Zheng, W. Liang, M. Hada, M. Ehara, K. Toyota, R. Fukuda, 
 J. Hasegawa, M. Ishida, T. Nakajima, Y. Honda, O. Kitao, H. Nakai, 
 T. Vreven, K. Throssell, J. A. Montgomery, Jr., J. E. Peralta, 
 F. Ogliaro, M. J. Bearpark, J. J. Heyd, E. N. Brothers, K. N. Kudin, 
 V. N. Staroverov, T. A. Keith, R. Kobayashi, J. Normand, 
 K. Raghavachari, A. P. Rendell, J. C. Burant, S. S. Iyengar, 
 J. Tomasi, M. Cossi, J. M. Millam, M. Klene, C. Adamo, R. Cammi, 
 J. W. Ochterski, R. L. Martin, K. Morokuma, O. Farkas, 
 J. B. Foresman, and D. J. Fox, Gaussian, Inc., Wallingford CT, 2016.
 
 ******************************************
 Gaussian 16:  ES64L-G16RevA.03 25-Dec-2016
                23-May-2023 
 ******************************************
 %chk=CdCCSCqOOrOCqCOrCCC.chk
 %NProcShared=20
 Will use up to   20 processors via shared memory.
 -----------------------------
 # opt freq b3lyp/6-31g(2df,p)
 -----------------------------
 1/18=20,19=15,26=3,38=1/1,3;
 2/9=110,12=2,17=6,18=5,40=1/2;
 3/5=1,6=6,7=104,11=2,25=1,30=1,71=1,74=-5/1,2,3;
 4//1;
 5/5=2,38=5/2;
 6/7=2,8=2,9=2,10=2,28=1/1;
 7//1,2,3,16;
 1/18=20,19=15,26=3/3(2);
 2/9=110/2;
 99//99;
 2/9=110/2;
 3/5=1,6=6,7=104,11=2,25=1,30=1,71=1,74=-5/1,2,3;
 4/5=5,16=3,69=1/1;
 5/5=2,38=5/2;
 7//1,2,3,16;
 1/18=20,19=15,26=3/3(-5);
 2/9=110/2;
 6/7=2,8=2,9=2,10=2,19=2,28=1/1;
 99/9=1/99;
 -------------------
 Title Card Required
 -------------------
 Symbolic Z-matrix:
 Charge =  0 Multiplicity = 1
 C                     1.02855  -0.03684  -0.06316 
 C                     2.37419  -0.01966  -0.03537 
 C                     3.21127  -1.25939   0.01428 
 S                     4.97645  -0.8077    0.20871 
 C                     5.72179  -2.45329  -0.08386 
 O                     5.22958  -2.93738  -1.3337 
 O                     4.10196  -3.82679  -1.04246 
 O                     7.15956  -2.36794  -0.1024 
 C                     7.86047  -3.63109  -0.0331 
 C                     7.5821   -4.55299  -1.24865 
 O                     6.32924  -5.22596  -1.2403 
 C                     9.38157  -3.31534   0.01196 
 C                     10.24957  -4.5815    0.08258 
 C                     11.73545  -4.29149   0.0749 
 H                     0.47332   0.89223  -0.12086 
 H                     0.46598  -0.96333  -0.04255 
 H                     2.87738   0.93978  -0.09236 
 H                     3.02688  -1.79699  -0.92046 
 H                     2.92122  -1.88996   0.86163 
 H                     5.43035  -3.10163   0.75326 
 H                     4.07407  -4.22848  -1.9325 
 H                     7.57753  -4.12384   0.9057 
 H                     8.28151  -5.38096  -1.2907 
 H                     7.67688  -3.97932  -2.17656 
 H                     5.94557  -5.17202  -0.35069 
 H                     9.60324  -2.66956   0.87257 
 H                     9.65721  -2.72374  -0.87179 
 H                     10.0855  -5.2233   -0.78549 
 H                     9.98049  -5.16363   0.97093 
 H                     12.01664  -3.75872  -0.83915 
 H                     12.2901  -5.23641   0.09317 
 H                     12.02809  -3.69723   0.94202 
 

 GradGradGradGradGradGradGradGradGradGradGradGradGradGradGradGradGradGrad
 Berny optimization.
 Initialization pass.
                           ----------------------------
                           !    Initial Parameters    !
                           ! (Angstroms and Degrees)  !
 --------------------------                            --------------------------
 ! Name  Definition              Value          Derivative Info.                !
 --------------------------------------------------------------------------------
 ! R1    R(1,2)                  1.346          estimate D2E/DX2                !
 ! R2    R(1,15)                 1.0839         estimate D2E/DX2                !
 ! R3    R(1,16)                 1.0841         estimate D2E/DX2                !
 ! R4    R(2,3)                  1.4967         estimate D2E/DX2                !
 ! R5    R(2,17)                 1.0849         estimate D2E/DX2                !
 ! R6    R(3,4)                  1.8324         estimate D2E/DX2                !
 ! R7    R(3,18)                 1.094          estimate D2E/DX2                !
 ! R8    R(3,19)                 1.0953         estimate D2E/DX2                !
 ! R9    R(4,5)                  1.8301         estimate D2E/DX2                !
 ! R10   R(5,6)                  1.4278         estimate D2E/DX2                !
 ! R11   R(5,8)                  1.4404         estimate D2E/DX2                !
 ! R12   R(5,20)                 1.0982         estimate D2E/DX2                !
 ! R13   R(6,7)                  1.4654         estimate D2E/DX2                !
 ! R14   R(7,21)                 0.9769         estimate D2E/DX2                !
 ! R15   R(8,9)                  1.4462         estimate D2E/DX2                !
 ! R16   R(9,10)                 1.5508         estimate D2E/DX2                !
 ! R17   R(9,12)                 1.5542         estimate D2E/DX2                !
 ! R18   R(9,22)                 1.0974         estimate D2E/DX2                !
 ! R19   R(10,11)                1.4222         estimate D2E/DX2                !
 ! R20   R(10,23)                1.0847         estimate D2E/DX2                !
 ! R21   R(10,24)                1.095          estimate D2E/DX2                !
 ! R22   R(11,25)                0.9703         estimate D2E/DX2                !
 ! R23   R(12,13)                1.5367         estimate D2E/DX2                !
 ! R24   R(12,26)                1.0986         estimate D2E/DX2                !
 ! R25   R(12,27)                1.0986         estimate D2E/DX2                !
 ! R26   R(13,14)                1.5139         estimate D2E/DX2                !
 ! R27   R(13,28)                1.092          estimate D2E/DX2                !
 ! R28   R(13,29)                1.0956         estimate D2E/DX2                !
 ! R29   R(14,30)                1.0947         estimate D2E/DX2                !
 ! R30   R(14,31)                1.0958         estimate D2E/DX2                !
 ! R31   R(14,32)                1.0912         estimate D2E/DX2                !
 ! A1    A(2,1,15)             120.1505         estimate D2E/DX2                !
 ! A2    A(2,1,16)             121.9572         estimate D2E/DX2                !
 ! A3    A(15,1,16)            117.8875         estimate D2E/DX2                !
 ! A4    A(1,2,3)              123.3144         estimate D2E/DX2                !
 ! A5    A(1,2,17)             118.2868         estimate D2E/DX2                !
 ! A6    A(3,2,17)             118.3509         estimate D2E/DX2                !
 ! A7    A(2,3,4)              109.7617         estimate D2E/DX2                !
 ! A8    A(2,3,18)             106.5253         estimate D2E/DX2                !
 ! A9    A(2,3,19)             110.7573         estimate D2E/DX2                !
 ! A10   A(4,3,18)             111.973          estimate D2E/DX2                !
 ! A11   A(4,3,19)             108.3557         estimate D2E/DX2                !
 ! A12   A(18,3,19)            109.4793         estimate D2E/DX2                !
 ! A13   A(3,4,5)               98.8425         estimate D2E/DX2                !
 ! A14   A(4,5,6)              107.7224         estimate D2E/DX2                !
 ! A15   A(4,5,8)              110.8121         estimate D2E/DX2                !
 ! A16   A(4,5,20)             107.5124         estimate D2E/DX2                !
 ! A17   A(6,5,8)              110.6656         estimate D2E/DX2                !
 ! A18   A(6,5,20)             112.0614         estimate D2E/DX2                !
 ! A19   A(8,5,20)             108.0401         estimate D2E/DX2                !
 ! A20   A(5,6,7)              107.2818         estimate D2E/DX2                !
 ! A21   A(6,7,21)              95.1903         estimate D2E/DX2                !
 ! A22   A(5,8,9)              115.5552         estimate D2E/DX2                !
 ! A23   A(8,9,10)             113.2446         estimate D2E/DX2                !
 ! A24   A(8,9,12)             107.354          estimate D2E/DX2                !
 ! A25   A(8,9,22)             107.9519         estimate D2E/DX2                !
 ! A26   A(10,9,12)            108.6134         estimate D2E/DX2                !
 ! A27   A(10,9,22)            110.9375         estimate D2E/DX2                !
 ! A28   A(12,9,22)            108.5886         estimate D2E/DX2                !
 ! A29   A(9,10,11)            115.7744         estimate D2E/DX2                !
 ! A30   A(9,10,23)            111.6188         estimate D2E/DX2                !
 ! A31   A(9,10,24)            109.7081         estimate D2E/DX2                !
 ! A32   A(11,10,23)           101.9504         estimate D2E/DX2                !
 ! A33   A(11,10,24)           109.2155         estimate D2E/DX2                !
 ! A34   A(23,10,24)           108.1341         estimate D2E/DX2                !
 ! A35   A(10,11,25)           109.1115         estimate D2E/DX2                !
 ! A36   A(9,12,13)            112.7525         estimate D2E/DX2                !
 ! A37   A(9,12,26)            109.8543         estimate D2E/DX2                !
 ! A38   A(9,12,27)            109.3679         estimate D2E/DX2                !
 ! A39   A(13,12,26)           109.534          estimate D2E/DX2                !
 ! A40   A(13,12,27)           109.8116         estimate D2E/DX2                !
 ! A41   A(26,12,27)           105.2484         estimate D2E/DX2                !
 ! A42   A(12,13,14)           113.3471         estimate D2E/DX2                !
 ! A43   A(12,13,28)           111.2762         estimate D2E/DX2                !
 ! A44   A(12,13,29)           109.6518         estimate D2E/DX2                !
 ! A45   A(14,13,28)           104.8344         estimate D2E/DX2                !
 ! A46   A(14,13,29)           110.2996         estimate D2E/DX2                !
 ! A47   A(28,13,29)           107.1802         estimate D2E/DX2                !
 ! A48   A(13,14,30)           110.4607         estimate D2E/DX2                !
 ! A49   A(13,14,31)           109.3599         estimate D2E/DX2                !
 ! A50   A(13,14,32)           111.3158         estimate D2E/DX2                !
 ! A51   A(30,14,31)           107.6718         estimate D2E/DX2                !
 ! A52   A(30,14,32)           109.2436         estimate D2E/DX2                !
 ! A53   A(31,14,32)           108.7            estimate D2E/DX2                !
 ! D1    D(15,1,2,3)          -178.6554         estimate D2E/DX2                !
 ! D2    D(15,1,2,17)           -1.2168         estimate D2E/DX2                !
 ! D3    D(16,1,2,3)             0.5251         estimate D2E/DX2                !
 ! D4    D(16,1,2,17)          177.9638         estimate D2E/DX2                !
 ! D5    D(1,2,3,4)           -174.3763         estimate D2E/DX2                !
 ! D6    D(1,2,3,18)            64.2037         estimate D2E/DX2                !
 ! D7    D(1,2,3,19)           -54.7714         estimate D2E/DX2                !
 ! D8    D(17,2,3,4)             8.1865         estimate D2E/DX2                !
 ! D9    D(17,2,3,18)         -113.2334         estimate D2E/DX2                !
 ! D10   D(17,2,3,19)          127.7915         estimate D2E/DX2                !
 ! D11   D(2,3,4,5)           -169.8358         estimate D2E/DX2                !
 ! D12   D(18,3,4,5)           -51.7451         estimate D2E/DX2                !
 ! D13   D(19,3,4,5)            69.1012         estimate D2E/DX2                !
 ! D14   D(3,4,5,6)             53.8427         estimate D2E/DX2                !
 ! D15   D(3,4,5,8)            175.0294         estimate D2E/DX2                !
 ! D16   D(3,4,5,20)           -67.1089         estimate D2E/DX2                !
 ! D17   D(4,5,6,7)            -96.9566         estimate D2E/DX2                !
 ! D18   D(8,5,6,7)            141.7652         estimate D2E/DX2                !
 ! D19   D(20,5,6,7)            21.1021         estimate D2E/DX2                !
 ! D20   D(4,5,8,9)            167.0379         estimate D2E/DX2                !
 ! D21   D(6,5,8,9)            -73.5283         estimate D2E/DX2                !
 ! D22   D(20,5,8,9)            49.4984         estimate D2E/DX2                !
 ! D23   D(5,6,7,21)          -165.3205         estimate D2E/DX2                !
 ! D24   D(5,8,9,10)            63.1376         estimate D2E/DX2                !
 ! D25   D(5,8,9,12)          -176.9834         estimate D2E/DX2                !
 ! D26   D(5,8,9,22)           -60.0912         estimate D2E/DX2                !
 ! D27   D(8,9,10,11)          -77.0817         estimate D2E/DX2                !
 ! D28   D(8,9,10,23)          166.8972         estimate D2E/DX2                !
 ! D29   D(8,9,10,24)           47.0567         estimate D2E/DX2                !
 ! D30   D(12,9,10,11)         163.7614         estimate D2E/DX2                !
 ! D31   D(12,9,10,23)          47.7402         estimate D2E/DX2                !
 ! D32   D(12,9,10,24)         -72.1002         estimate D2E/DX2                !
 ! D33   D(22,9,10,11)          44.486          estimate D2E/DX2                !
 ! D34   D(22,9,10,23)         -71.5352         estimate D2E/DX2                !
 ! D35   D(22,9,10,24)         168.6243         estimate D2E/DX2                !
 ! D36   D(8,9,12,13)         -179.801          estimate D2E/DX2                !
 ! D37   D(8,9,12,26)           57.7239         estimate D2E/DX2                !
 ! D38   D(8,9,12,27)          -57.3213         estimate D2E/DX2                !
 ! D39   D(10,9,12,13)         -57.0118         estimate D2E/DX2                !
 ! D40   D(10,9,12,26)        -179.487          estimate D2E/DX2                !
 ! D41   D(10,9,12,27)          65.4679         estimate D2E/DX2                !
 ! D42   D(22,9,12,13)          63.7251         estimate D2E/DX2                !
 ! D43   D(22,9,12,26)         -58.75           estimate D2E/DX2                !
 ! D44   D(22,9,12,27)        -173.7952         estimate D2E/DX2                !
 ! D45   D(9,10,11,25)         -14.6903         estimate D2E/DX2                !
 ! D46   D(23,10,11,25)        106.6685         estimate D2E/DX2                !
 ! D47   D(24,10,11,25)       -139.0842         estimate D2E/DX2                !
 ! D48   D(9,12,13,14)         177.8474         estimate D2E/DX2                !
 ! D49   D(9,12,13,28)          59.9857         estimate D2E/DX2                !
 ! D50   D(9,12,13,29)         -58.4157         estimate D2E/DX2                !
 ! D51   D(26,12,13,14)        -59.498          estimate D2E/DX2                !
 ! D52   D(26,12,13,28)       -177.3596         estimate D2E/DX2                !
 ! D53   D(26,12,13,29)         64.2389         estimate D2E/DX2                !
 ! D54   D(27,12,13,14)         55.6169         estimate D2E/DX2                !
 ! D55   D(27,12,13,28)        -62.2447         estimate D2E/DX2                !
 ! D56   D(27,12,13,29)        179.3538         estimate D2E/DX2                !
 ! D57   D(12,13,14,30)        -59.7918         estimate D2E/DX2                !
 ! D58   D(12,13,14,31)       -178.12           estimate D2E/DX2                !
 ! D59   D(12,13,14,32)         61.755          estimate D2E/DX2                !
 ! D60   D(28,13,14,30)         61.7535         estimate D2E/DX2                !
 ! D61   D(28,13,14,31)        -56.5747         estimate D2E/DX2                !
 ! D62   D(28,13,14,32)       -176.6997         estimate D2E/DX2                !
 ! D63   D(29,13,14,30)        176.8262         estimate D2E/DX2                !
 ! D64   D(29,13,14,31)         58.498          estimate D2E/DX2                !
 ! D65   D(29,13,14,32)        -61.627          estimate D2E/DX2                !
 --------------------------------------------------------------------------------
 Trust Radius=3.00D-01 FncErr=1.00D-07 GrdErr=1.00D-06 EigMax=2.50D+02 EigMin=1.00D-04
 Number of steps in this run=    159 maximum allowed number of steps=    192.
 GradGradGradGradGradGradGradGradGradGradGradGradGradGradGradGradGradGrad

                          Input orientation:                          
 ---------------------------------------------------------------------
 Center     Atomic      Atomic             Coordinates (Angstroms)
 Number     Number       Type             X           Y           Z
 ---------------------------------------------------------------------
      1          6           0        1.028550   -0.036840   -0.063160
      2          6           0        2.374190   -0.019660   -0.035370
      3          6           0        3.211270   -1.259390    0.014280
      4         16           0        4.976450   -0.807700    0.208710
      5          6           0        5.721790   -2.453290   -0.083860
      6          8           0        5.229580   -2.937380   -1.333700
      7          8           0        4.101960   -3.826790   -1.042460
      8          8           0        7.159560   -2.367940   -0.102400
      9          6           0        7.860470   -3.631090   -0.033100
     10          6           0        7.582100   -4.552990   -1.248650
     11          8           0        6.329240   -5.225960   -1.240300
     12          6           0        9.381570   -3.315340    0.011960
     13          6           0       10.249570   -4.581500    0.082580
     14          6           0       11.735450   -4.291490    0.074900
     15          1           0        0.473320    0.892230   -0.120860
     16          1           0        0.465980   -0.963330   -0.042550
     17          1           0        2.877380    0.939780   -0.092360
     18          1           0        3.026880   -1.796990   -0.920460
     19          1           0        2.921220   -1.889960    0.861630
     20          1           0        5.430350   -3.101630    0.753260
     21          1           0        4.074070   -4.228480   -1.932500
     22          1           0        7.577530   -4.123840    0.905700
     23          1           0        8.281510   -5.380960   -1.290700
     24          1           0        7.676880   -3.979320   -2.176560
     25          1           0        5.945570   -5.172020   -0.350690
     26          1           0        9.603240   -2.669560    0.872570
     27          1           0        9.657210   -2.723740   -0.871790
     28          1           0       10.085500   -5.223300   -0.785490
     29          1           0        9.980490   -5.163630    0.970930
     30          1           0       12.016640   -3.758720   -0.839150
     31          1           0       12.290100   -5.236410    0.093170
     32          1           0       12.028090   -3.697230    0.942020
 ---------------------------------------------------------------------
                    Distance matrix (angstroms):
                    1          2          3          4          5
     1  C    0.000000
     2  C    1.346037   0.000000
     3  C    2.502977   1.496696   0.000000
     4  S    4.031632   2.729897   1.832399   0.000000
     5  C    5.278841   4.139001   2.781679   1.830053   0.000000
     6  O    5.260804   4.283924   2.950640   2.641712   1.427835
     7  O    4.976806   4.300425   2.915745   3.383055   2.330078
     8  O    6.559333   5.330917   4.102620   2.701316   1.440420
     9  C    7.719758   6.568234   5.219412   4.043213   2.442077
    10  C    8.046739   7.010382   5.616667   4.789625   3.037471
    11  O    7.510655   6.648296   5.198979   4.842591   3.064971
    12  C    8.973692   7.743844   6.503809   5.072677   3.761157
    13  C   10.281166   9.101973   7.783235   6.485620   5.005774
    14  C   11.522101  10.290475   9.047594   7.605181   6.290333
    15  H    1.083873   2.110014   3.484839   4.824579   6.224171
    16  H    1.084110   2.128810   2.761793   4.520143   5.463078
    17  H    2.091127   1.084884   2.226927   2.747804   4.427603
    18  H    2.797573   2.090046   1.093962   2.460598   2.897097
    19  H    2.805618   2.145198   1.095331   2.412791   3.009067
    20  H    5.425433   4.411416   2.977290   2.400974   1.098204
    21  H    5.508128   4.919640   3.653748   4.135312   3.046925
    22  H    7.780193   6.693628   5.297540   4.271791   2.685840
    23  H    9.092409   8.075631   6.663156   5.838352   4.071840
    24  H    8.013108   6.955726   5.669169   4.800105   3.245079
    25  H    7.115464   6.277021   4.787303   4.505487   2.740943
    26  H    9.018432   7.752773   6.601706   5.031344   4.003397
    27  H    9.073428   7.813708   6.669302   5.171867   4.022624
    28  H   10.461810   9.332998   7.975416   6.825566   5.216053
    29  H   10.367765   9.237363   7.872776   6.677988   5.157039
    30  H   11.627238  10.373209   9.192907   7.705245   6.473001
    31  H   12.404938  11.205190   9.912016   8.550807   7.135811
    32  H   11.636096  10.376782   9.194568   7.655897   6.509166
                    6          7          8          9         10
     6  O    0.000000
     7  O    1.465400   0.000000
     8  O    2.359064   3.515803   0.000000
     9  C    3.015688   3.896602   1.446245   0.000000
    10  C    2.855132   3.561075   2.503372   1.550791   0.000000
    11  O    2.540782   2.637725   3.186303   2.519049   1.422187
    12  C    4.380945   5.408111   2.418258   1.554179   2.521707
    13  C    5.468938   6.295110   3.805552   2.573803   2.981339
    14  C    6.792946   7.728817   4.966915   3.932335   4.366976
    15  H    6.225665   6.023747   7.438740   8.662454   9.025358
    16  H    5.315621   4.734931   6.839629   7.861012   8.060986
    17  H    4.701717   5.012233   5.410931   6.762215   7.324064
    18  H    2.514586   2.300167   4.251382   5.245467   5.334161
    19  H    3.353370   2.961590   4.372796   5.313028   5.767912
    20  H    2.103019   2.348422   2.064127   2.608481   3.277822
    21  H    1.833222   0.976885   4.041178   4.278016   3.588765
    22  H    3.454775   3.995391   2.067402   1.097362   2.196683
    23  H    3.909886   4.466062   3.427699   2.195650   1.084655
    24  H    2.790220   3.753598   2.676996   2.179310   1.095033
    25  H    2.544124   2.384761   3.065662   2.478340   1.966662
    26  H    4.905941   5.938906   2.648228   2.186784   3.483086
    27  H    4.456783   5.666273   2.637577   2.180587   2.791820
    28  H    5.394991   6.149717   4.144975   2.837601   2.632650
    29  H    5.730502   6.355942   4.114069   2.802006   3.324408
    30  H    6.854441   7.917583   5.105712   4.235535   4.523682
    31  H    7.561246   8.385840   5.881225   4.713239   4.942955
    32  H    7.209439   8.171810   5.153679   4.280688   5.029730
                   11         12         13         14         15
    11  O    0.000000
    12  C    3.812524   0.000000
    13  C    4.187401   1.536741   0.000000
    14  C    5.641816   2.549035   1.513937   0.000000
    15  H    8.542669   9.852827  11.206167  12.399389   0.000000
    16  H    7.347274   9.220774  10.431943  11.751230   1.857226
    17  H    7.158872   7.773121   9.212183  10.288808   2.404699
    18  H    4.771343   6.599764   7.805564   9.113312   3.793670
    19  H    5.211680   6.670065   7.845764   9.169348   3.833808
    20  H    3.048781   4.025834   5.085736   6.452149   6.425508
    21  H    2.561230   5.725758   6.505534   7.920251   6.516833
    22  H    2.716287   2.169563   2.833157   4.243422   8.756973
    23  H    1.959062   2.678403   2.529485   3.870596  10.084110
    24  H    2.060783   2.852448   3.476358   4.651721   8.935837
    25  H    0.970319   3.922355   4.365874   5.871897   8.171504
    26  H    4.660309   1.098553   2.167335   2.795220   9.850314
    27  H    4.179987   1.098627   2.170941   2.770044   9.898635
    28  H    3.783695   2.184435   1.091958   2.081076  11.412075
    29  H    4.269081   2.166681   1.095648   2.154851  11.324828
    30  H    5.887294   2.804384   2.156175   1.094714  12.465774
    31  H    6.108200   3.486639   2.143078   1.095830  13.313239
    32  H    6.290980   2.831063   2.164187   1.091183  12.478204
                   16         17         18         19         20
    16  H    0.000000
    17  H    3.072321   0.000000
    18  H    2.832653   2.863217   0.000000
    19  H    2.775678   2.986544   1.787639   0.000000
    20  H    5.463571   4.854454   3.206258   2.788480   0.000000
    21  H    5.220290   5.615077   2.834250   3.821636   3.212879
    22  H    7.839780   6.980529   5.427477   5.164628   2.382967
    23  H    9.063986   8.401928   6.371268   6.749245   4.183567
    24  H    8.102300   7.181687   5.287991   6.017668   3.794876
    25  H    6.916208   6.843583   4.498246   4.624752   2.402222
    26  H    9.340138   7.693869   6.872034   6.727354   4.196895
    27  H    9.394966   7.745643   6.694962   7.005248   4.544220
    28  H   10.546775   9.508995   7.847416   8.071621   5.342252
    29  H   10.449668   9.425305   7.953887   7.782169   5.000300
    30  H   11.910773  10.303382   9.201673   9.439893   6.807845
    31  H   12.573283  11.259620   9.932991   9.978235   7.214511
    32  H   11.921660  10.310543   9.386241   9.284814   6.627258
                   21         22         23         24         25
    21  H    0.000000
    22  H    4.510051   0.000000
    23  H    4.409384   2.626806   0.000000
    24  H    3.619653   3.087245   1.764914   0.000000
    25  H    2.625815   2.310950   2.526636   2.784559   0.000000
    26  H    6.392994   2.493898   3.711926   3.837125   4.597523
    27  H    5.878843   3.073243   3.021399   2.683396   4.476817
    28  H    6.200209   3.218517   1.880020   3.046968   4.163016
    29  H    6.647572   2.619090   2.837029   4.076261   4.245860
    30  H    8.031221   4.783671   4.097164   4.546520   6.252512
    31  H    8.521878   4.909820   4.243205   5.292802   6.360363
    32  H    8.474168   4.471107   4.675131   5.360797   6.390865
                   26         27         28         29         30
    26  H    0.000000
    27  H    1.746036   0.000000
    28  H    3.082746   2.537455   0.000000
    29  H    2.524357   3.074604   1.760568   0.000000
    30  H    3.152896   2.576657   2.424289   3.065301   0.000000
    31  H    3.796762   3.765205   2.373284   2.471853   1.768493
    32  H    2.634545   3.139851   3.014438   2.518696   1.782268
                   31         32
    31  H    0.000000
    32  H    1.777152   0.000000
 Stoichiometry    C9H18O4S
 Framework group  C1[X(C9H18O4S)]
 Deg. of freedom    90
 Full point group                 C1      NOp   1
 Largest Abelian subgroup         C1      NOp   1
 Largest concise Abelian subgroup C1      NOp   1
                         Standard orientation:                         
 ---------------------------------------------------------------------
 Center     Atomic      Atomic             Coordinates (Angstroms)
 Number     Number       Type             X           Y           Z
 ---------------------------------------------------------------------
      1          6           0        5.819543   -0.261899    0.111976
      2          6           0        4.617135   -0.821146   -0.118835
      3          6           0        3.322547   -0.172648    0.260099
      4         16           0        1.934007   -1.321905   -0.069825
      5          6           0        0.542102   -0.159937    0.178223
      6          8           0        0.764537    0.970967   -0.664565
      7          8           0        1.391612    2.009661    0.157195
      8          8           0       -0.713659   -0.790594   -0.138236
      9          6           0       -1.895900   -0.077771    0.292826
     10          6           0       -2.056996    1.307255   -0.385926
     11          8           0       -1.224566    2.343944    0.119001
     12          6           0       -3.125409   -0.955356   -0.072724
     13          6           0       -4.459218   -0.306890    0.329790
     14          6           0       -5.668669   -1.126735   -0.066553
     15          1           0        6.724756   -0.767530   -0.203787
     16          1           0        5.920422    0.700774    0.600216
     17          1           0        4.583817   -1.771062   -0.641829
     18          1           0        3.246907    0.742204   -0.334945
     19          1           0        3.313388    0.082620    1.325230
     20          1           0        0.526352    0.114699    1.241415
     21          1           0        1.234974    2.733183   -0.480209
     22          1           0       -1.850560    0.023452    1.384568
     23          1           0       -3.048334    1.717517   -0.226517
     24          1           0       -1.897665    1.210457   -1.464973
     25          1           0       -0.849900    2.064728    0.969401
     26          1           0       -3.036489   -1.940100    0.406016
     27          1           0       -3.120580   -1.157559   -1.152572
     28          1           0       -4.598246    0.655062   -0.167895
     29          1           0       -4.465773   -0.116945    1.408828
     30          1           0       -5.694765   -1.270391   -1.151486
     31          1           0       -6.580561   -0.590883    0.220084
     32          1           0       -5.666058   -2.100805    0.425240
 ---------------------------------------------------------------------
 Rotational constants (GHZ):           1.4340828           0.2334027           0.2053918
 Standard basis: 6-31G(2df,p) (6D, 7F)
 There are   528 symmetry adapted cartesian basis functions of A   symmetry.
 There are   486 symmetry adapted basis functions of A   symmetry.
   486 basis functions,   766 primitive gaussians,   528 cartesian basis functions
    60 alpha electrons       60 beta electrons
       nuclear repulsion energy      1074.1372700071 Hartrees.
 NAtoms=   32 NActive=   32 NUniq=   32 SFac= 1.00D+00 NAtFMM=   60 NAOKFM=F Big=F
 Integral buffers will be    131072 words long.
 Raffenetti 2 integral format.
 Two-electron integral symmetry is turned on.
 One-electron integrals computed using PRISM.
 PrsmSu:  requested number of processors reduced to:  12 ShMem   1 Linda.
 NBasis=   486 RedAO= T EigKep=  7.02D-04  NBF=   486
 NBsUse=   486 1.00D-06 EigRej= -1.00D+00 NBFU=   486
 ExpMin= 1.17D-01 ExpMax= 2.19D+04 ExpMxC= 3.30D+03 IAcc=3 IRadAn=         5 AccDes= 0.00D+00
 Harris functional with IExCor=  402 and IRadAn=       5 diagonalized for initial guess.
 HarFok:  IExCor=  402 AccDes= 0.00D+00 IRadAn=         5 IDoV= 1 UseB2=F ITyADJ=14
 ICtDFT=  3500011 ScaDFX=  1.000000  1.000000  1.000000  1.000000
 FoFCou: FMM=F IPFlag=           0 FMFlag=      100000 FMFlg1=           0
         NFxFlg=           0 DoJE=T BraDBF=F KetDBF=T FulRan=T
         wScrn=  0.000000 ICntrl=       500 IOpCl=  0 I1Cent=   200000004 NGrid=           0
         NMat0=    1 NMatS0=      1 NMatT0=    0 NMatD0=    1 NMtDS0=    0 NMtDT0=    0
 Petite list used in FoFCou.
 Requested convergence on RMS density matrix=1.00D-08 within 128 cycles.
 Requested convergence on MAX density matrix=1.00D-06.
 Requested convergence on             energy=1.00D-06.
 No special actions if energy rises.
 Integral accuracy reduced to 1.0D-05 until final iterations.
 Initial convergence to 1.0D-05 achieved.  Increase integral accuracy.
 SCF Done:  E(RB3LYP) =  -1052.76125573     A.U. after   13 cycles
            NFock= 13  Conv=0.64D-08     -V/T= 2.0057

 **********************************************************************

            Population analysis using the SCF density.

 **********************************************************************

 Orbital symmetries:
       Occupied  (A) (A) (A) (A) (A) (A) (A) (A) (A) (A) (A) (A)
                 (A) (A) (A) (A) (A) (A) (A) (A) (A) (A) (A) (A)
                 (A) (A) (A) (A) (A) (A) (A) (A) (A) (A) (A) (A)
                 (A) (A) (A) (A) (A) (A) (A) (A) (A) (A) (A) (A)
                 (A) (A) (A) (A) (A) (A) (A) (A) (A) (A) (A) (A)
       Virtual   (A) (A) (A) (A) (A) (A) (A) (A) (A) (A) (A) (A)
                 (A) (A) (A) (A) (A) (A) (A) (A) (A) (A) (A) (A)
                 (A) (A) (A) (A) (A) (A) (A) (A) (A) (A) (A) (A)
                 (A) (A) (A) (A) (A) (A) (A) (A) (A) (A) (A) (A)
                 (A) (A) (A) (A) (A) (A) (A) (A) (A) (A) (A) (A)
                 (A) (A) (A) (A) (A) (A) (A) (A) (A) (A) (A) (A)
                 (A) (A) (A) (A) (A) (A) (A) (A) (A) (A) (A) (A)
                 (A) (A) (A) (A) (A) (A) (A) (A) (A) (A) (A) (A)
                 (A) (A) (A) (A) (A) (A) (A) (A) (A) (A) (A) (A)
                 (A) (A) (A) (A) (A) (A) (A) (A) (A) (A) (A) (A)
                 (A) (A) (A) (A) (A) (A) (A) (A) (A) (A) (A) (A)
                 (A) (A) (A) (A) (A) (A) (A) (A) (A) (A) (A) (A)
                 (A) (A) (A) (A) (A) (A) (A) (A) (A) (A) (A) (A)
                 (A) (A) (A) (A) (A) (A) (A) (A) (A) (A) (A) (A)
                 (A) (A) (A) (A) (A) (A) (A) (A) (A) (A) (A) (A)
                 (A) (A) (A) (A) (A) (A) (A) (A) (A) (A) (A) (A)
                 (A) (A) (A) (A) (A) (A) (A) (A) (A) (A) (A) (A)
                 (A) (A) (A) (A) (A) (A) (A) (A) (A) (A) (A) (A)
                 (A) (A) (A) (A) (A) (A) (A) (A) (A) (A) (A) (A)
                 (A) (A) (A) (A) (A) (A) (A) (A) (A) (A) (A) (A)
                 (A) (A) (A) (A) (A) (A) (A) (A) (A) (A) (A) (A)
                 (A) (A) (A) (A) (A) (A) (A) (A) (A) (A) (A) (A)
                 (A) (A) (A) (A) (A) (A) (A) (A) (A) (A) (A) (A)
                 (A) (A) (A) (A) (A) (A) (A) (A) (A) (A) (A) (A)
                 (A) (A) (A) (A) (A) (A) (A) (A) (A) (A) (A) (A)
                 (A) (A) (A) (A) (A) (A) (A) (A) (A) (A) (A) (A)
                 (A) (A) (A) (A) (A) (A) (A) (A) (A) (A) (A) (A)
                 (A) (A) (A) (A) (A) (A) (A) (A) (A) (A) (A) (A)
                 (A) (A) (A) (A) (A) (A) (A) (A) (A) (A) (A) (A)
                 (A) (A) (A) (A) (A) (A) (A) (A) (A) (A) (A) (A)
                 (A) (A) (A) (A) (A) (A) (A) (A) (A) (A) (A) (A)
                 (A) (A) (A) (A) (A) (A) (A) (A) (A) (A) (A) (A)
                 (A) (A) (A) (A) (A) (A) (A) (A) (A) (A) (A) (A)
                 (A) (A) (A) (A) (A) (A) (A) (A) (A) (A) (A) (A)
                 (A) (A) (A) (A) (A) (A) (A) (A) (A) (A) (A) (A)
                 (A) (A) (A) (A) (A) (A)
 The electronic state is 1-A.
 Alpha  occ. eigenvalues --  -88.86687 -19.20534 -19.20489 -19.16610 -19.12826
 Alpha  occ. eigenvalues --  -10.31616 -10.25156 -10.22488 -10.21041 -10.19241
 Alpha  occ. eigenvalues --  -10.19132 -10.18709 -10.17709 -10.17685  -7.93058
 Alpha  occ. eigenvalues --   -5.89536  -5.89213  -5.88557  -1.12745  -1.04391
 Alpha  occ. eigenvalues --   -1.00876  -0.91832  -0.81165  -0.80579  -0.75703
 Alpha  occ. eigenvalues --   -0.73664  -0.67531  -0.67213  -0.62296  -0.59961
 Alpha  occ. eigenvalues --   -0.58453  -0.55804  -0.53899  -0.51470  -0.50163
 Alpha  occ. eigenvalues --   -0.49130  -0.47232  -0.45876  -0.44850  -0.44690
 Alpha  occ. eigenvalues --   -0.43498  -0.43104  -0.41451  -0.40770  -0.39931
 Alpha  occ. eigenvalues --   -0.38603  -0.37632  -0.36969  -0.35200  -0.35023
 Alpha  occ. eigenvalues --   -0.34670  -0.33885  -0.33531  -0.32275  -0.30869
 Alpha  occ. eigenvalues --   -0.28969  -0.25863  -0.25672  -0.24978  -0.22056
 Alpha virt. eigenvalues --    0.00165   0.01035   0.02976   0.06513   0.07560
 Alpha virt. eigenvalues --    0.08305   0.08745   0.10805   0.11393   0.12419
 Alpha virt. eigenvalues --    0.12977   0.13279   0.13776   0.14710   0.15726
 Alpha virt. eigenvalues --    0.16051   0.17024   0.17308   0.18053   0.18315
 Alpha virt. eigenvalues --    0.18871   0.19168   0.19908   0.20792   0.21704
 Alpha virt. eigenvalues --    0.24131   0.24856   0.25471   0.26641   0.27202
 Alpha virt. eigenvalues --    0.29106   0.29859   0.31995   0.35138   0.37295
 Alpha virt. eigenvalues --    0.39402   0.40710   0.41126   0.42276   0.44336
 Alpha virt. eigenvalues --    0.45965   0.46199   0.46792   0.47709   0.49521
 Alpha virt. eigenvalues --    0.50469   0.51384   0.52038   0.53435   0.53857
 Alpha virt. eigenvalues --    0.54518   0.55939   0.57926   0.58366   0.59024
 Alpha virt. eigenvalues --    0.59881   0.60234   0.61683   0.62524   0.63848
 Alpha virt. eigenvalues --    0.64343   0.65607   0.66247   0.66826   0.68960
 Alpha virt. eigenvalues --    0.70148   0.70888   0.71061   0.72813   0.73396
 Alpha virt. eigenvalues --    0.74097   0.74602   0.74833   0.75132   0.75678
 Alpha virt. eigenvalues --    0.76114   0.76316   0.77590   0.78311   0.78951
 Alpha virt. eigenvalues --    0.79228   0.80209   0.80537   0.81152   0.82331
 Alpha virt. eigenvalues --    0.83125   0.83492   0.83552   0.84652   0.86488
 Alpha virt. eigenvalues --    0.87380   0.88002   0.88221   0.88581   0.89802
 Alpha virt. eigenvalues --    0.90684   0.91352   0.92847   0.94375   0.95148
 Alpha virt. eigenvalues --    0.97040   0.99167   1.00365   1.01446   1.02737
 Alpha virt. eigenvalues --    1.03477   1.04135   1.05896   1.06369   1.08884
 Alpha virt. eigenvalues --    1.10251   1.11642   1.15571   1.16807   1.17381
 Alpha virt. eigenvalues --    1.18082   1.21240   1.22387   1.23032   1.23940
 Alpha virt. eigenvalues --    1.25789   1.27492   1.28369   1.29640   1.30523
 Alpha virt. eigenvalues --    1.32721   1.33624   1.34153   1.36573   1.38279
 Alpha virt. eigenvalues --    1.38997   1.39687   1.40386   1.41668   1.42633
 Alpha virt. eigenvalues --    1.44296   1.44870   1.45932   1.49151   1.50155
 Alpha virt. eigenvalues --    1.51094   1.53374   1.54236   1.56017   1.57744
 Alpha virt. eigenvalues --    1.57955   1.58825   1.60322   1.61713   1.65057
 Alpha virt. eigenvalues --    1.65562   1.66881   1.67472   1.69431   1.70511
 Alpha virt. eigenvalues --    1.71614   1.72869   1.73463   1.74504   1.74825
 Alpha virt. eigenvalues --    1.75574   1.80540   1.81690   1.82594   1.83456
 Alpha virt. eigenvalues --    1.85143   1.85416   1.86231   1.88214   1.89010
 Alpha virt. eigenvalues --    1.91275   1.91958   1.93397   1.93646   1.94748
 Alpha virt. eigenvalues --    1.97099   1.98256   2.00961   2.03417   2.06033
 Alpha virt. eigenvalues --    2.06917   2.09212   2.09720   2.14256   2.14846
 Alpha virt. eigenvalues --    2.15955   2.17540   2.20466   2.21546   2.22790
 Alpha virt. eigenvalues --    2.24104   2.26035   2.26371   2.30428   2.32594
 Alpha virt. eigenvalues --    2.35405   2.36581   2.38121   2.39576   2.40216
 Alpha virt. eigenvalues --    2.42811   2.44722   2.45201   2.48878   2.49326
 Alpha virt. eigenvalues --    2.50016   2.52712   2.54909   2.57399   2.58437
 Alpha virt. eigenvalues --    2.61290   2.63716   2.64656   2.66793   2.69525
 Alpha virt. eigenvalues --    2.71529   2.71792   2.73210   2.74662   2.76076
 Alpha virt. eigenvalues --    2.76370   2.77051   2.77432   2.78672   2.81380
 Alpha virt. eigenvalues --    2.82151   2.82408   2.84419   2.85367   2.85472
 Alpha virt. eigenvalues --    2.86539   2.87690   2.89117   2.90930   2.91302
 Alpha virt. eigenvalues --    2.91513   2.92347   2.94030   2.95230   2.97269
 Alpha virt. eigenvalues --    2.98928   2.99712   2.99998   3.01252   3.03939
 Alpha virt. eigenvalues --    3.08677   3.11360   3.13042   3.14688   3.16627
 Alpha virt. eigenvalues --    3.18961   3.19278   3.21656   3.23677   3.24556
 Alpha virt. eigenvalues --    3.26066   3.27282   3.27854   3.29242   3.31175
 Alpha virt. eigenvalues --    3.32027   3.34285   3.35396   3.36937   3.38097
 Alpha virt. eigenvalues --    3.39132   3.41216   3.42870   3.45594   3.45938
 Alpha virt. eigenvalues --    3.47100   3.48193   3.50526   3.52370   3.54520
 Alpha virt. eigenvalues --    3.56381   3.58164   3.60444   3.61460   3.62777
 Alpha virt. eigenvalues --    3.63412   3.67342   3.69074   3.70627   3.71039
 Alpha virt. eigenvalues --    3.73035   3.75181   3.75697   3.77831   3.78954
 Alpha virt. eigenvalues --    3.79840   3.82249   3.84610   3.91379   3.95333
 Alpha virt. eigenvalues --    3.97719   3.99008   4.01386   4.03540   4.05763
 Alpha virt. eigenvalues --    4.08257   4.12046   4.14027   4.15461   4.16645
 Alpha virt. eigenvalues --    4.18299   4.20714   4.22388   4.23628   4.25461
 Alpha virt. eigenvalues --    4.29659   4.30880   4.31268   4.33381   4.36056
 Alpha virt. eigenvalues --    4.37255   4.38655   4.40764   4.41621   4.42897
 Alpha virt. eigenvalues --    4.43549   4.44714   4.45081   4.46307   4.46659
 Alpha virt. eigenvalues --    4.47952   4.48397   4.51227   4.51443   4.52624
 Alpha virt. eigenvalues --    4.53335   4.53614   4.56598   4.57536   4.59146
 Alpha virt. eigenvalues --    4.59812   4.60739   4.61908   4.62608   4.64312
 Alpha virt. eigenvalues --    4.65479   4.66518   4.67754   4.68423   4.69978
 Alpha virt. eigenvalues --    4.70701   4.71085   4.73058   4.73940   4.75296
 Alpha virt. eigenvalues --    4.75752   4.77181   4.79442   4.79973   4.80365
 Alpha virt. eigenvalues --    4.80888   4.82355   4.83821   4.84613   4.85420
 Alpha virt. eigenvalues --    4.87691   4.88855   4.90172   4.90956   4.92542
 Alpha virt. eigenvalues --    4.94386   4.95619   4.98459   5.01831   5.04481
 Alpha virt. eigenvalues --    5.05211   5.09211   5.11936   5.20169   5.24811
 Alpha virt. eigenvalues --    5.26121   5.26895   5.31402   5.34435   5.36746
 Alpha virt. eigenvalues --    5.37449   5.38168   5.40258   5.41515   5.44258
 Alpha virt. eigenvalues --    5.45934   5.46627   5.47871   5.48378   5.51722
 Alpha virt. eigenvalues --    5.59919   5.62056   5.69814   5.71031   5.76866
 Alpha virt. eigenvalues --    5.80706   5.84656   5.94343   5.94819   5.97529
 Alpha virt. eigenvalues --    6.00202   6.06161   6.07763   6.08966   6.13025
 Alpha virt. eigenvalues --    6.14955   6.20066   6.25554   6.30064   6.83993
 Alpha virt. eigenvalues --    7.09568   7.13682   7.17018  10.26353  11.14185
 Alpha virt. eigenvalues --   11.34228  11.53273  11.86269  11.93166  11.98004
 Alpha virt. eigenvalues --   12.30156  12.42105  13.05882  13.32396  13.53887
 Alpha virt. eigenvalues --   13.61204
          Condensed to atoms (all electrons):
               1          2          3          4          5          6
     1  C    5.005675   0.672309  -0.025000   0.002216  -0.000025  -0.000002
     2  C    0.672309   4.647044   0.399393  -0.025831   0.000079  -0.000311
     3  C   -0.025000   0.399393   4.931274   0.275428  -0.010300  -0.006024
     4  S    0.002216  -0.025831   0.275428  15.775933   0.296400  -0.028072
     5  C   -0.000025   0.000079  -0.010300   0.296400   4.632581   0.254948
     6  O   -0.000002  -0.000311  -0.006024  -0.028072   0.254948   7.958569
     7  O    0.000011   0.000559  -0.008057   0.002061  -0.043911   0.097596
     8  O    0.000000  -0.000005   0.000362  -0.003256   0.366599  -0.033784
     9  C    0.000000  -0.000000  -0.000052   0.001208  -0.054571   0.000585
    10  C    0.000000   0.000000   0.000014   0.000477  -0.010651   0.013112
    11  O   -0.000000   0.000000  -0.000004   0.000163   0.013229  -0.017352
    12  C    0.000000  -0.000000   0.000000  -0.000207   0.002804   0.000008
    13  C    0.000000   0.000000   0.000000   0.000006  -0.000103   0.000003
    14  C    0.000000  -0.000000   0.000000  -0.000000   0.000000   0.000000
    15  H    0.363707  -0.008689   0.004319  -0.000175   0.000000   0.000000
    16  H    0.363840  -0.018815  -0.014487   0.000152  -0.000002  -0.000001
    17  H   -0.045088   0.379107  -0.059079  -0.001764   0.000040   0.000001
    18  H   -0.005391  -0.027758   0.365151  -0.038498  -0.003112   0.004587
    19  H   -0.004828  -0.026275   0.366211  -0.053789  -0.001183  -0.000219
    20  H    0.000004   0.000080  -0.002163  -0.050795   0.344984  -0.044947
    21  H   -0.000000  -0.000036   0.000140  -0.000274   0.002336  -0.030455
    22  H    0.000000   0.000000   0.000005   0.000212  -0.004697  -0.001034
    23  H   -0.000000   0.000000  -0.000000   0.000010   0.000285   0.000294
    24  H    0.000000   0.000000   0.000001   0.000013  -0.000930   0.003435
    25  H   -0.000000  -0.000000  -0.000003  -0.000040   0.000708  -0.004068
    26  H    0.000000   0.000000   0.000000   0.000035   0.000134   0.000005
    27  H    0.000000   0.000000   0.000000   0.000011   0.000216  -0.000016
    28  H   -0.000000   0.000000   0.000000   0.000000   0.000007  -0.000001
    29  H   -0.000000   0.000000   0.000000   0.000000   0.000010  -0.000000
    30  H   -0.000000   0.000000   0.000000   0.000000   0.000000  -0.000000
    31  H   -0.000000   0.000000  -0.000000   0.000000  -0.000000   0.000000
    32  H    0.000000   0.000000   0.000000   0.000000   0.000000  -0.000000
               7          8          9         10         11         12
     1  C    0.000011   0.000000   0.000000   0.000000  -0.000000   0.000000
     2  C    0.000559  -0.000005  -0.000000   0.000000   0.000000  -0.000000
     3  C   -0.008057   0.000362  -0.000052   0.000014  -0.000004   0.000000
     4  S    0.002061  -0.003256   0.001208   0.000477   0.000163  -0.000207
     5  C   -0.043911   0.366599  -0.054571  -0.010651   0.013229   0.002804
     6  O    0.097596  -0.033784   0.000585   0.013112  -0.017352   0.000008
     7  O    7.957613   0.001292  -0.000236   0.000548  -0.010618  -0.000002
     8  O    0.001292   7.752839   0.329211  -0.038344   0.000673  -0.023503
     9  C   -0.000236   0.329211   4.722101   0.372468  -0.028185   0.389762
    10  C    0.000548  -0.038344   0.372468   4.857871   0.343220  -0.032512
    11  O   -0.010618   0.000673  -0.028185   0.343220   7.874746   0.002192
    12  C   -0.000002  -0.023503   0.389762  -0.032512   0.002192   4.900543
    13  C   -0.000000   0.001761  -0.029997  -0.004259   0.000056   0.397706
    14  C   -0.000000  -0.000022   0.001565   0.000527  -0.000003  -0.034430
    15  H    0.000000  -0.000000   0.000000  -0.000000   0.000000  -0.000000
    16  H   -0.000001  -0.000000  -0.000000   0.000000  -0.000000  -0.000000
    17  H   -0.000005   0.000000   0.000000   0.000000   0.000000  -0.000000
    18  H    0.010780   0.000003  -0.000003  -0.000002   0.000012   0.000000
    19  H    0.000466  -0.000006   0.000006  -0.000001  -0.000001   0.000000
    20  H    0.005692  -0.037083  -0.006891  -0.003211  -0.000896   0.000141
    21  H    0.285778  -0.000133   0.000124  -0.000543   0.011345  -0.000001
    22  H   -0.000034  -0.034071   0.339457  -0.069385  -0.001882  -0.030187
    23  H   -0.000036   0.002358  -0.020112   0.353344  -0.027376  -0.008404
    24  H    0.000009  -0.000900  -0.016800   0.335228  -0.023762  -0.002180
    25  H    0.013146   0.000212  -0.005784  -0.073145   0.304002   0.000169
    26  H   -0.000000   0.001294  -0.012820   0.003846  -0.000051   0.351768
    27  H    0.000000   0.001579  -0.024218  -0.008808   0.000035   0.361771
    28  H   -0.000000   0.000002  -0.003832  -0.004341  -0.000150  -0.032569
    29  H   -0.000000   0.000037  -0.001128  -0.000799  -0.000022  -0.035774
    30  H   -0.000000   0.000001   0.000224  -0.000008  -0.000000  -0.004442
    31  H   -0.000000   0.000000  -0.000126   0.000008  -0.000000   0.003195
    32  H    0.000000  -0.000000   0.000080  -0.000011   0.000000  -0.003393
              13         14         15         16         17         18
     1  C    0.000000   0.000000   0.363707   0.363840  -0.045088  -0.005391
     2  C    0.000000  -0.000000  -0.008689  -0.018815   0.379107  -0.027758
     3  C    0.000000   0.000000   0.004319  -0.014487  -0.059079   0.365151
     4  S    0.000006  -0.000000  -0.000175   0.000152  -0.001764  -0.038498
     5  C   -0.000103   0.000000   0.000000  -0.000002   0.000040  -0.003112
     6  O    0.000003   0.000000   0.000000  -0.000001   0.000001   0.004587
     7  O   -0.000000  -0.000000   0.000000  -0.000001  -0.000005   0.010780
     8  O    0.001761  -0.000022  -0.000000  -0.000000   0.000000   0.000003
     9  C   -0.029997   0.001565   0.000000  -0.000000   0.000000  -0.000003
    10  C   -0.004259   0.000527  -0.000000   0.000000   0.000000  -0.000002
    11  O    0.000056  -0.000003   0.000000  -0.000000   0.000000   0.000012
    12  C    0.397706  -0.034430  -0.000000  -0.000000  -0.000000   0.000000
    13  C    4.795810   0.405215   0.000000   0.000000   0.000000  -0.000000
    14  C    0.405215   4.953215  -0.000000  -0.000000  -0.000000   0.000000
    15  H    0.000000  -0.000000   0.577258  -0.044277  -0.008385  -0.000102
    16  H    0.000000  -0.000000  -0.044277   0.598409   0.006482   0.001568
    17  H    0.000000  -0.000000  -0.008385   0.006482   0.608271   0.003493
    18  H   -0.000000   0.000000  -0.000102   0.001568   0.003493   0.561607
    19  H    0.000000   0.000000  -0.000080   0.002334   0.004549  -0.035943
    20  H    0.000025   0.000000  -0.000000   0.000000   0.000009   0.000099
    21  H    0.000000   0.000000  -0.000000   0.000000   0.000001   0.000759
    22  H   -0.001660  -0.000124   0.000000  -0.000000   0.000000   0.000001
    23  H   -0.001748   0.000030   0.000000   0.000000  -0.000000   0.000000
    24  H    0.000223  -0.000113  -0.000000   0.000000  -0.000000  -0.000000
    25  H   -0.000073  -0.000001  -0.000000   0.000000   0.000000  -0.000009
    26  H   -0.031401  -0.002258  -0.000000   0.000000   0.000000  -0.000000
    27  H   -0.032771  -0.003022  -0.000000   0.000000   0.000000   0.000000
    28  H    0.375300  -0.035049   0.000000   0.000000   0.000000   0.000000
    29  H    0.371523  -0.035535  -0.000000   0.000000   0.000000   0.000000
    30  H   -0.029068   0.380357  -0.000000   0.000000   0.000000  -0.000000
    31  H   -0.022683   0.374779   0.000000   0.000000   0.000000  -0.000000
    32  H   -0.028204   0.377168  -0.000000   0.000000   0.000000  -0.000000
              19         20         21         22         23         24
     1  C   -0.004828   0.000004  -0.000000   0.000000  -0.000000   0.000000
     2  C   -0.026275   0.000080  -0.000036   0.000000   0.000000   0.000000
     3  C    0.366211  -0.002163   0.000140   0.000005  -0.000000   0.000001
     4  S   -0.053789  -0.050795  -0.000274   0.000212   0.000010   0.000013
     5  C   -0.001183   0.344984   0.002336  -0.004697   0.000285  -0.000930
     6  O   -0.000219  -0.044947  -0.030455  -0.001034   0.000294   0.003435
     7  O    0.000466   0.005692   0.285778  -0.000034  -0.000036   0.000009
     8  O   -0.000006  -0.037083  -0.000133  -0.034071   0.002358  -0.000900
     9  C    0.000006  -0.006891   0.000124   0.339457  -0.020112  -0.016800
    10  C   -0.000001  -0.003211  -0.000543  -0.069385   0.353344   0.335228
    11  O   -0.000001  -0.000896   0.011345  -0.001882  -0.027376  -0.023762
    12  C    0.000000   0.000141  -0.000001  -0.030187  -0.008404  -0.002180
    13  C    0.000000   0.000025   0.000000  -0.001660  -0.001748   0.000223
    14  C    0.000000   0.000000   0.000000  -0.000124   0.000030  -0.000113
    15  H   -0.000080  -0.000000  -0.000000   0.000000   0.000000  -0.000000
    16  H    0.002334   0.000000   0.000000  -0.000000   0.000000   0.000000
    17  H    0.004549   0.000009   0.000001   0.000000  -0.000000  -0.000000
    18  H   -0.035943   0.000099   0.000759   0.000001   0.000000  -0.000000
    19  H    0.610447   0.004377   0.000007  -0.000001  -0.000000  -0.000000
    20  H    0.004377   0.665317   0.000296   0.012279   0.000013   0.000336
    21  H    0.000007   0.000296   0.408804   0.000001   0.000025  -0.000268
    22  H   -0.000001   0.012279   0.000001   0.692801  -0.000034   0.006336
    23  H   -0.000000   0.000013   0.000025  -0.000034   0.633177  -0.045862
    24  H   -0.000000   0.000336  -0.000268   0.006336  -0.045862   0.618554
    25  H    0.000006   0.005065  -0.002386   0.008713   0.002716   0.006631
    26  H    0.000000  -0.000035   0.000000  -0.005506  -0.000061  -0.000159
    27  H   -0.000000   0.000035   0.000000   0.006307   0.000372   0.003789
    28  H   -0.000000   0.000000   0.000000  -0.000198   0.007534   0.000063
    29  H   -0.000000  -0.000001   0.000000   0.004828   0.001399   0.000074
    30  H   -0.000000  -0.000000   0.000000   0.000007   0.000048  -0.000001
    31  H    0.000000   0.000000   0.000000   0.000005   0.000002   0.000000
    32  H   -0.000000   0.000000  -0.000000   0.000001   0.000007   0.000001
              25         26         27         28         29         30
     1  C   -0.000000   0.000000   0.000000  -0.000000  -0.000000  -0.000000
     2  C   -0.000000   0.000000   0.000000   0.000000   0.000000   0.000000
     3  C   -0.000003   0.000000   0.000000   0.000000   0.000000   0.000000
     4  S   -0.000040   0.000035   0.000011   0.000000   0.000000   0.000000
     5  C    0.000708   0.000134   0.000216   0.000007   0.000010   0.000000
     6  O   -0.004068   0.000005  -0.000016  -0.000001  -0.000000  -0.000000
     7  O    0.013146  -0.000000   0.000000  -0.000000  -0.000000  -0.000000
     8  O    0.000212   0.001294   0.001579   0.000002   0.000037   0.000001
     9  C   -0.005784  -0.012820  -0.024218  -0.003832  -0.001128   0.000224
    10  C   -0.073145   0.003846  -0.008808  -0.004341  -0.000799  -0.000008
    11  O    0.304002  -0.000051   0.000035  -0.000150  -0.000022  -0.000000
    12  C    0.000169   0.351768   0.361771  -0.032569  -0.035774  -0.004442
    13  C   -0.000073  -0.031401  -0.032771   0.375300   0.371523  -0.029068
    14  C   -0.000001  -0.002258  -0.003022  -0.035049  -0.035535   0.380357
    15  H   -0.000000  -0.000000  -0.000000   0.000000  -0.000000  -0.000000
    16  H    0.000000   0.000000   0.000000   0.000000   0.000000   0.000000
    17  H    0.000000   0.000000   0.000000   0.000000   0.000000   0.000000
    18  H   -0.000009  -0.000000   0.000000   0.000000   0.000000  -0.000000
    19  H    0.000006   0.000000  -0.000000  -0.000000  -0.000000  -0.000000
    20  H    0.005065  -0.000035   0.000035   0.000000  -0.000001  -0.000000
    21  H   -0.002386   0.000000   0.000000   0.000000   0.000000   0.000000
    22  H    0.008713  -0.005506   0.006307  -0.000198   0.004828   0.000007
    23  H    0.002716  -0.000061   0.000372   0.007534   0.001399   0.000048
    24  H    0.006631  -0.000159   0.003789   0.000063   0.000074  -0.000001
    25  H    0.466004  -0.000016   0.000037  -0.000016   0.000020   0.000000
    26  H   -0.000016   0.620511  -0.040181   0.005582  -0.005135  -0.000337
    27  H    0.000037  -0.040181   0.614989  -0.004906   0.005934   0.004717
    28  H   -0.000016   0.005582  -0.004906   0.625028  -0.042187  -0.005135
    29  H    0.000020  -0.005135   0.005934  -0.042187   0.641391   0.005682
    30  H    0.000000  -0.000337   0.004717  -0.005135   0.005682   0.594499
    31  H    0.000000  -0.000079  -0.000051  -0.003404  -0.002528  -0.031717
    32  H   -0.000000   0.004314  -0.000413   0.005775  -0.004371  -0.032205
              31         32
     1  C   -0.000000   0.000000
     2  C    0.000000   0.000000
     3  C   -0.000000   0.000000
     4  S    0.000000   0.000000
     5  C   -0.000000   0.000000
     6  O    0.000000  -0.000000
     7  O   -0.000000   0.000000
     8  O    0.000000  -0.000000
     9  C   -0.000126   0.000080
    10  C    0.000008  -0.000011
    11  O   -0.000000   0.000000
    12  C    0.003195  -0.003393
    13  C   -0.022683  -0.028204
    14  C    0.374779   0.377168
    15  H    0.000000  -0.000000
    16  H    0.000000   0.000000
    17  H    0.000000   0.000000
    18  H   -0.000000  -0.000000
    19  H    0.000000  -0.000000
    20  H    0.000000   0.000000
    21  H    0.000000  -0.000000
    22  H    0.000005   0.000001
    23  H    0.000002   0.000007
    24  H    0.000000   0.000001
    25  H    0.000000  -0.000000
    26  H   -0.000079   0.004314
    27  H   -0.000051  -0.000413
    28  H   -0.003404   0.005775
    29  H   -0.002528  -0.004371
    30  H   -0.031717  -0.032205
    31  H    0.600050  -0.030900
    32  H   -0.030900   0.597493
 Mulliken charges:
               1
     1  C   -0.327429
     2  C    0.009149
     3  C   -0.217132
     4  S   -0.151625
     5  C    0.214125
     6  O   -0.166857
     7  O   -0.312652
     8  O   -0.287116
     9  C    0.047966
    10  C   -0.034643
    11  O   -0.439374
    12  C   -0.202457
    13  C   -0.165663
    14  C   -0.382296
    15  H    0.116425
    16  H    0.104796
    17  H    0.112369
    18  H    0.162759
    19  H    0.133924
    20  H    0.107270
    21  H    0.324479
    22  H    0.077860
    23  H    0.102020
    24  H    0.116280
    25  H    0.278114
    26  H    0.110551
    27  H    0.114592
    28  H    0.112496
    29  H    0.096583
    30  H    0.117380
    31  H    0.113448
    32  H    0.114657
 Sum of Mulliken charges =  -0.00000
 Mulliken charges with hydrogens summed into heavy atoms:
               1
     1  C   -0.106208
     2  C    0.121518
     3  C    0.079552
     4  S   -0.151625
     5  C    0.321396
     6  O   -0.166857
     7  O    0.011827
     8  O   -0.287116
     9  C    0.125825
    10  C    0.183657
    11  O   -0.161260
    12  C    0.022685
    13  C    0.043416
    14  C   -0.036810
 Electronic spatial extent (au):  <R**2>=           5279.5334
 Charge=             -0.0000 electrons
 Dipole moment (field-independent basis, Debye):
    X=             -1.2861    Y=              1.5687    Z=              1.2104  Tot=              2.3622
 Quadrupole moment (field-independent basis, Debye-Ang):
   XX=            -83.4272   YY=            -95.0280   ZZ=            -91.1832
   XY=              5.0371   XZ=             -0.6238   YZ=             -0.2121
 Traceless Quadrupole moment (field-independent basis, Debye-Ang):
   XX=              6.4523   YY=             -5.1485   ZZ=             -1.3037
   XY=              5.0371   XZ=             -0.6238   YZ=             -0.2121
 Octapole moment (field-independent basis, Debye-Ang**2):
  XXX=              3.5439  YYY=             29.2123  ZZZ=              1.0412  XYY=             13.6982
  XXY=             10.1591  XXZ=             -4.1566  XZZ=             -9.2236  YZZ=             13.2233
  YYZ=             -7.0359  XYZ=              4.0366
 Hexadecapole moment (field-independent basis, Debye-Ang**3):
 XXXX=          -5853.1192 YYYY=           -840.9136 ZZZZ=           -180.7986 XXXY=            -34.1179
 XXXZ=            -24.6037 YYYX=             66.3206 YYYZ=            -13.4515 ZZZX=              4.6319
 ZZZY=              2.9323 XXYY=          -1143.1249 XXZZ=          -1059.4577 YYZZ=           -167.4961
 XXYZ=             23.0397 YYXZ=            -21.1544 ZZXY=              9.2239
 N-N= 1.074137270007D+03 E-N=-4.624134772461D+03  KE= 1.046818397297D+03
 PrsmSu:  requested number of processors reduced to:  13 ShMem   1 Linda.
 Calling FoFJK, ICntrl=      2127 FMM=F ISym2X=0 I1Cent= 0 IOpClX= 0 NMat=1 NMatS=1 NMatT=0.
 ***** Axes restored to original set *****
 -------------------------------------------------------------------
 Center     Atomic                   Forces (Hartrees/Bohr)
 Number     Number              X              Y              Z
 -------------------------------------------------------------------
      1        6           0.021060781    0.002965389    0.000376676
      2        6          -0.024375946    0.007156224    0.002375573
      3        6          -0.001826948   -0.001125666   -0.000981402
      4       16           0.010188358    0.007880223    0.000864039
      5        6           0.018717507   -0.004993927    0.000363401
      6        8           0.001938888    0.006725061    0.012429825
      7        8           0.003431205    0.000428895   -0.012520753
      8        8          -0.028338303    0.002499934   -0.007962150
      9        6           0.009021685    0.002896190   -0.013941332
     10        6          -0.010121805   -0.008743448    0.007644952
     11        8          -0.005665838   -0.004363415    0.007716221
     12        6          -0.005755310    0.000851434    0.000067498
     13        6          -0.001455888    0.000853835   -0.002717509
     14        6           0.005556032   -0.000737827    0.002954084
     15        1          -0.001712920   -0.000959441   -0.000434848
     16        1          -0.001488271   -0.000542880    0.001145942
     17        1           0.002086888    0.001176801    0.000738836
     18        1           0.007842941   -0.003222134    0.004201626
     19        1          -0.001034960   -0.001439076   -0.003045449
     20        1          -0.005048173   -0.006251802   -0.007107094
     21        1          -0.000166961   -0.003013100    0.010487057
     22        1          -0.002310482   -0.004710558    0.000893414
     23        1           0.013386099    0.003954458    0.002052312
     24        1          -0.002171160    0.002727708    0.001191611
     25        1           0.002289688   -0.000779439   -0.010541316
     26        1          -0.003044467   -0.001478795   -0.000195769
     27        1          -0.002602143   -0.001562566   -0.000569625
     28        1          -0.005144221   -0.000689361    0.001087413
     29        1          -0.000438949   -0.001346920    0.000615302
     30        1           0.001481903    0.001571758    0.001115121
     31        1           0.002082237    0.002142180    0.001008472
     32        1           0.003618532    0.002130267    0.000687870
 -------------------------------------------------------------------
 Cartesian Forces:  Max     0.028338303 RMS     0.006774767

 GradGradGradGradGradGradGradGradGradGradGradGradGradGradGradGradGradGrad
 Berny optimization.
 FormGI is forming the generalized inverse of G from B-inverse, IUseBI=4.
 Internal  Forces:  Max     0.060241743 RMS     0.009205423
 Search for a local minimum.
 Step number   1 out of a maximum of  159
 All quantities printed in internal units (Hartrees-Bohrs-Radians)
 Mixed Optimization -- RFO/linear search
 Second derivative matrix not updated -- first step.
 ITU=  0
     Eigenvalues ---    0.00230   0.00230   0.00230   0.00230   0.00280
     Eigenvalues ---    0.00430   0.00582   0.00810   0.01080   0.01157
     Eigenvalues ---    0.01324   0.01398   0.01609   0.02803   0.02803
     Eigenvalues ---    0.03381   0.03528   0.04387   0.04546   0.04715
     Eigenvalues ---    0.04724   0.04853   0.05473   0.05650   0.05904
     Eigenvalues ---    0.06274   0.06925   0.07523   0.08352   0.08477
     Eigenvalues ---    0.08581   0.09059   0.09215   0.11016   0.12164
     Eigenvalues ---    0.12230   0.12283   0.13807   0.14189   0.15933
     Eigenvalues ---    0.15990   0.16000   0.16000   0.16000   0.16000
     Eigenvalues ---    0.16000   0.16000   0.16000   0.19857   0.20348
     Eigenvalues ---    0.20736   0.21856   0.21933   0.22002   0.22076
     Eigenvalues ---    0.22109   0.23722   0.23885   0.25000   0.25000
     Eigenvalues ---    0.25000   0.27299   0.27584   0.28810   0.30958
     Eigenvalues ---    0.32726   0.33834   0.33843   0.33882   0.33976
     Eigenvalues ---    0.34147   0.34168   0.34204   0.34237   0.34273
     Eigenvalues ---    0.34359   0.34587   0.34676   0.35411   0.35438
     Eigenvalues ---    0.35502   0.35530   0.36296   0.38741   0.39528
     Eigenvalues ---    0.41302   0.42133   0.51995   0.53312   0.55873
 RFO step:  Lambda=-5.37242112D-02 EMin= 2.30000000D-03
 Linear search not attempted -- first point.
 Maximum step size (   0.300) exceeded in Quadratic search.
    -- Step size scaled by   0.789
 Iteration  1 RMS(Cart)=  0.30875093 RMS(Int)=  0.01684165
 Iteration  2 RMS(Cart)=  0.17574923 RMS(Int)=  0.00360107
 Iteration  3 RMS(Cart)=  0.01005390 RMS(Int)=  0.00050437
 Iteration  4 RMS(Cart)=  0.00001106 RMS(Int)=  0.00050435
 Iteration  5 RMS(Cart)=  0.00000001 RMS(Int)=  0.00050435
 Variable       Old X    -DE/DX   Delta X   Delta X   Delta X     New X
                                 (Linear)    (Quad)   (Total)
    R1        2.54364  -0.01789   0.00000  -0.02305  -0.02305   2.52059
    R2        2.04822   0.00008   0.00000   0.00015   0.00015   2.04837
    R3        2.04867   0.00126   0.00000   0.00243   0.00243   2.05110
    R4        2.82835   0.01045   0.00000   0.02165   0.02165   2.84999
    R5        2.05013   0.00197   0.00000   0.00381   0.00381   2.05394
    R6        3.46273  -0.00198   0.00000  -0.00538  -0.00538   3.45736
    R7        2.06729  -0.00333   0.00000  -0.00661  -0.00661   2.06068
    R8        2.06988  -0.00125   0.00000  -0.00250  -0.00250   2.06738
    R9        3.45830   0.00715   0.00000   0.01929   0.01929   3.47759
   R10        2.69822  -0.01230   0.00000  -0.02079  -0.02079   2.67743
   R11        2.72200  -0.02973   0.00000  -0.05224  -0.05224   2.66976
   R12        2.07530  -0.00039   0.00000  -0.00078  -0.00078   2.07453
   R13        2.76921  -0.00135   0.00000  -0.00255  -0.00255   2.76665
   R14        1.84604  -0.00831   0.00000  -0.01143  -0.01143   1.83461
   R15        2.73301   0.00570   0.00000   0.01019   0.01019   2.74320
   R16        2.93057  -0.00163   0.00000  -0.00390  -0.00390   2.92667
   R17        2.93697  -0.00511   0.00000  -0.01234  -0.01234   2.92463
   R18        2.07371   0.00348   0.00000   0.00697   0.00697   2.08068
   R19        2.68754   0.00539   0.00000   0.00895   0.00895   2.69650
   R20        2.04970   0.00553   0.00000   0.01070   0.01070   2.06040
   R21        2.06931   0.00023   0.00000   0.00046   0.00046   2.06977
   R22        1.83364  -0.01061   0.00000  -0.01427  -0.01427   1.81937
   R23        2.90402   0.00020   0.00000   0.00047   0.00047   2.90449
   R24        2.07596  -0.00164   0.00000  -0.00329  -0.00329   2.07267
   R25        2.07610  -0.00104   0.00000  -0.00208  -0.00208   2.07402
   R26        2.86093   0.01345   0.00000   0.02921   0.02921   2.89014
   R27        2.06350   0.00031   0.00000   0.00062   0.00062   2.06412
   R28        2.07048   0.00132   0.00000   0.00264   0.00264   2.07311
   R29        2.06871   0.00021   0.00000   0.00043   0.00043   2.06914
   R30        2.07082  -0.00078   0.00000  -0.00155  -0.00155   2.06927
   R31        2.06204   0.00268   0.00000   0.00528   0.00528   2.06731
    A1        2.09702   0.00203   0.00000   0.00751   0.00751   2.10453
    A2        2.12856  -0.00004   0.00000  -0.00013  -0.00014   2.12842
    A3        2.05752  -0.00198   0.00000  -0.00731  -0.00731   2.05021
    A4        2.15224   0.00158   0.00000   0.00460   0.00459   2.15684
    A5        2.06449   0.00061   0.00000   0.00294   0.00293   2.06743
    A6        2.06561  -0.00217   0.00000  -0.00732  -0.00733   2.05828
    A7        1.91570  -0.00379   0.00000  -0.00959  -0.00953   1.90618
    A8        1.85922   0.01029   0.00000   0.04342   0.04339   1.90261
    A9        1.93308  -0.00036   0.00000  -0.00048  -0.00054   1.93254
   A10        1.95430  -0.00586   0.00000  -0.02764  -0.02758   1.92672
   A11        1.89116   0.00279   0.00000   0.00768   0.00765   1.89882
   A12        1.91077  -0.00312   0.00000  -0.01345  -0.01368   1.89709
   A13        1.72513   0.01458   0.00000   0.03786   0.03786   1.76299
   A14        1.88011   0.02106   0.00000   0.05639   0.05597   1.93608
   A15        1.93404  -0.03579   0.00000  -0.11566  -0.11509   1.81895
   A16        1.87644   0.00634   0.00000   0.02781   0.02791   1.90435
   A17        1.93148   0.00560   0.00000   0.01013   0.01074   1.94222
   A18        1.95584  -0.00916   0.00000  -0.02086  -0.02180   1.93404
   A19        1.88566   0.01080   0.00000   0.03893   0.03920   1.92485
   A20        1.87242  -0.00321   0.00000  -0.00835  -0.00835   1.86407
   A21        1.66138   0.00889   0.00000   0.03280   0.03280   1.69419
   A22        2.01682   0.06024   0.00000   0.15650   0.15650   2.17331
   A23        1.97649   0.02319   0.00000   0.09506   0.09546   2.07195
   A24        1.87368  -0.02749   0.00000  -0.10124  -0.10197   1.77171
   A25        1.88412   0.00154   0.00000   0.00543   0.00259   1.88671
   A26        1.89566   0.00790   0.00000   0.02192   0.02367   1.91933
   A27        1.93623  -0.00858   0.00000  -0.01717  -0.01788   1.91834
   A28        1.89523   0.00214   0.00000  -0.01046  -0.01118   1.88404
   A29        2.02064   0.01417   0.00000   0.04463   0.04489   2.06553
   A30        1.94812  -0.01266   0.00000  -0.05131  -0.05185   1.89626
   A31        1.91477  -0.00436   0.00000  -0.01720  -0.01783   1.89694
   A32        1.77937   0.00329   0.00000   0.02623   0.02696   1.80633
   A33        1.90617  -0.00374   0.00000  -0.00337  -0.00325   1.90292
   A34        1.88730   0.00341   0.00000   0.00180   0.00067   1.88796
   A35        1.90435   0.00342   0.00000   0.01264   0.01264   1.91700
   A36        1.96790   0.01855   0.00000   0.05493   0.05495   2.02285
   A37        1.91732  -0.00812   0.00000  -0.03355  -0.03332   1.88400
   A38        1.90883  -0.00621   0.00000  -0.01381  -0.01457   1.89426
   A39        1.91173  -0.00619   0.00000  -0.02171  -0.02111   1.89062
   A40        1.91657  -0.00311   0.00000   0.00314   0.00289   1.91947
   A41        1.83693   0.00398   0.00000   0.00750   0.00718   1.84411
   A42        1.97828  -0.00476   0.00000  -0.01289  -0.01292   1.96536
   A43        1.94214  -0.00132   0.00000  -0.00548  -0.00542   1.93672
   A44        1.91379   0.00194   0.00000   0.00064   0.00053   1.91431
   A45        1.82970   0.00632   0.00000   0.03189   0.03192   1.86163
   A46        1.92509  -0.00030   0.00000  -0.00620  -0.00628   1.91882
   A47        1.87065  -0.00166   0.00000  -0.00687  -0.00688   1.86377
   A48        1.92790   0.00116   0.00000   0.00391   0.00388   1.93178
   A49        1.90869   0.00345   0.00000   0.01407   0.01399   1.92268
   A50        1.94283   0.00322   0.00000   0.01093   0.01088   1.95371
   A51        1.87923  -0.00158   0.00000  -0.00389  -0.00395   1.87528
   A52        1.90666  -0.00326   0.00000  -0.01449  -0.01449   1.89217
   A53        1.89717  -0.00323   0.00000  -0.01126  -0.01135   1.88582
    D1       -3.11813   0.00015   0.00000   0.00093   0.00092  -3.11720
    D2       -0.02124   0.00061   0.00000   0.00646   0.00647  -0.01477
    D3        0.00917   0.00079   0.00000   0.00705   0.00704   0.01621
    D4        3.10605   0.00125   0.00000   0.01258   0.01259   3.11865
    D5       -3.04344  -0.00061   0.00000   0.00269   0.00264  -3.04080
    D6        1.12057   0.00240   0.00000   0.01528   0.01537   1.13594
    D7       -0.95594   0.00019   0.00000   0.00577   0.00570  -0.95024
    D8        0.14288  -0.00114   0.00000  -0.00309  -0.00313   0.13976
    D9       -1.97630   0.00187   0.00000   0.00950   0.00961  -1.96669
   D10        2.23038  -0.00034   0.00000  -0.00001  -0.00007   2.23032
   D11       -2.96419  -0.00372   0.00000  -0.02701  -0.02702  -2.99122
   D12       -0.90312   0.00298   0.00000   0.00362   0.00356  -0.89957
   D13        1.20604  -0.00272   0.00000  -0.02538  -0.02531   1.18073
   D14        0.93973   0.00304   0.00000   0.03046   0.03178   0.97152
   D15        3.05484   0.00174   0.00000   0.00905   0.00849   3.06333
   D16       -1.17127  -0.00141   0.00000   0.00810   0.00734  -1.16393
   D17       -1.69221  -0.01638   0.00000  -0.07705  -0.07712  -1.76933
   D18        2.47427   0.01079   0.00000   0.02294   0.02300   2.49727
   D19        0.36830  -0.00066   0.00000  -0.01956  -0.01954   0.34876
   D20        2.91536  -0.01245   0.00000  -0.10200  -0.10273   2.81263
   D21       -1.28331  -0.00566   0.00000  -0.09980  -0.09958  -1.38289
   D22        0.86391  -0.00634   0.00000  -0.09355  -0.09304   0.77088
   D23       -2.88539   0.00953   0.00000   0.12955   0.12955  -2.75584
   D24        1.10196   0.00623   0.00000   0.08461   0.08688   1.18884
   D25       -3.08894   0.01161   0.00000   0.10132   0.09937  -2.98957
   D26       -1.04879   0.00056   0.00000   0.03904   0.03872  -1.01007
   D27       -1.34533  -0.01079   0.00000  -0.07210  -0.07199  -1.41732
   D28        2.91290  -0.01540   0.00000  -0.09892  -0.09798   2.81492
   D29        0.82129  -0.00867   0.00000  -0.05692  -0.05698   0.76432
   D30        2.85818   0.00384   0.00000  -0.01936  -0.01999   2.83818
   D31        0.83322  -0.00077   0.00000  -0.04618  -0.04599   0.78724
   D32       -1.25839   0.00596   0.00000  -0.00418  -0.00498  -1.26337
   D33        0.77643   0.00141   0.00000  -0.00995  -0.01008   0.76634
   D34       -1.24852  -0.00320   0.00000  -0.03677  -0.03608  -1.28460
   D35        2.94305   0.00353   0.00000   0.00523   0.00493   2.94798
   D36       -3.13812  -0.01246   0.00000  -0.07564  -0.07491   3.07016
   D37        1.00747  -0.01148   0.00000  -0.06147  -0.06040   0.94707
   D38       -1.00045  -0.00824   0.00000  -0.04402  -0.04334  -1.04378
   D39       -0.99504   0.00367   0.00000  -0.00881  -0.00909  -1.00413
   D40       -3.13264   0.00465   0.00000   0.00536   0.00542  -3.12722
   D41        1.14263   0.00789   0.00000   0.02281   0.02248   1.16511
   D42        1.11221  -0.00077   0.00000  -0.02281  -0.02355   1.08866
   D43       -1.02538   0.00021   0.00000  -0.00864  -0.00904  -1.03442
   D44       -3.03330   0.00345   0.00000   0.00881   0.00802  -3.02528
   D45       -0.25639   0.00300   0.00000   0.01576   0.01542  -0.24097
   D46        1.86172  -0.00268   0.00000  -0.00524  -0.00470   1.85701
   D47       -2.42748   0.00127   0.00000   0.00801   0.00780  -2.41968
   D48        3.10402   0.00440   0.00000   0.03967   0.03987  -3.13930
   D49        1.04695   0.00042   0.00000   0.01134   0.01154   1.05849
   D50       -1.01955   0.00206   0.00000   0.02282   0.02301  -0.99653
   D51       -1.03844   0.00228   0.00000   0.01871   0.01870  -1.01974
   D52       -3.09551  -0.00170   0.00000  -0.00962  -0.00963  -3.10514
   D53        1.12118  -0.00007   0.00000   0.00185   0.00185   1.12303
   D54        0.97070   0.00183   0.00000   0.01724   0.01705   0.98775
   D55       -1.08638  -0.00215   0.00000  -0.01109  -0.01128  -1.09765
   D56        3.13032  -0.00052   0.00000   0.00038   0.00019   3.13051
   D57       -1.04356   0.00029   0.00000  -0.00268  -0.00262  -1.04618
   D58       -3.10878  -0.00059   0.00000  -0.00889  -0.00884  -3.11762
   D59        1.07783  -0.00087   0.00000  -0.01099  -0.01097   1.06686
   D60        1.07780   0.00015   0.00000   0.00448   0.00448   1.08229
   D61       -0.98742  -0.00073   0.00000  -0.00173  -0.00174  -0.98915
   D62       -3.08399  -0.00101   0.00000  -0.00382  -0.00386  -3.08786
   D63        3.08620   0.00144   0.00000   0.01058   0.01057   3.09676
   D64        1.02098   0.00056   0.00000   0.00436   0.00435   1.02533
   D65       -1.07559   0.00028   0.00000   0.00227   0.00222  -1.07338
         Item               Value     Threshold  Converged?
 Maximum Force            0.060242     0.000450     NO 
 RMS     Force            0.009205     0.000300     NO 
 Maximum Displacement     1.529602     0.001800     NO 
 RMS     Displacement     0.472923     0.001200     NO 
 Predicted change in Energy=-3.105215D-02
 GradGradGradGradGradGradGradGradGradGradGradGradGradGradGradGradGradGrad

                          Input orientation:                          
 ---------------------------------------------------------------------
 Center     Atomic      Atomic             Coordinates (Angstroms)
 Number     Number       Type             X           Y           Z
 ---------------------------------------------------------------------
      1          6           0        1.361563    0.503568    0.203058
      2          6           0        2.666498    0.234817    0.139492
      3          6           0        3.226453   -1.161756    0.036769
      4         16           0        5.051123   -1.088646    0.148574
      5          6           0        5.498534   -2.824946   -0.265733
      6          8           0        4.952663   -3.203406   -1.517217
      7          8           0        3.764769   -4.010968   -1.234029
      8          8           0        6.910818   -2.819969   -0.302737
      9          6           0        7.740564   -4.006941   -0.203363
     10          6           0        7.718254   -5.029851   -1.365994
     11          8           0        6.649250   -5.973611   -1.417632
     12          6           0        9.152413   -3.386732   -0.072055
     13          6           0       10.303359   -4.379620    0.155611
     14          6           0       11.661612   -3.687276    0.277510
     15          1           0        1.011354    1.528153    0.253391
     16          1           0        0.612520   -0.281927    0.199172
     17          1           0        3.366389    1.066265    0.125349
     18          1           0        2.921243   -1.597731   -0.915011
     19          1           0        2.848562   -1.791046    0.847970
     20          1           0        5.141040   -3.488465    0.532445
     21          1           0        3.731345   -4.476874   -2.085108
     22          1           0        7.502416   -4.512338    0.745410
     23          1           0        8.607753   -5.656509   -1.296119
[...]
 .00046366,0.00017195,0.00002949,-0.00012757,-0.00015930,0.00002034,-0.
 00009414,0.00187888,0.00064621,-0.00092221,-0.01389679,-0.01292103,0.0
 2112020,0.00050406,0.00105184,0.00131363,0.00010696,0.00024497,-0.0004
 5307,-0.10158420,-0.04748859,0.09196438,0.00970324,0.00928581,-0.01897
 370,0.00166155,0.00052560,0.00000249,-0.00000205,0.00000444,0.00000081
 ,-0.00000023,-0.00000213,-0.00000134,-0.00000300,0.00000223,-0.0000022
 7,0.00002249,-0.00000565,-0.00001145,0.00001277,-0.00000599,-0.0000088
 0,0.00016336,0.00012966,-0.00020301,0.00005731,0.00000468,0.00013455,-
 0.00327428,-0.00265830,-0.00230229,0.00003813,-0.00013227,-0.00019836,
 0.00020944,-0.00026180,-0.00089075,0.00005518,0.00027470,0.00016441,-0
 .00575386,-0.00502455,0.00942432,0.11180632,-0.00000377,0.00000207,-0.
 00000454,0.00000244,-0.00000366,0.00000965,0.00000456,-0.00000596,0.00
 000496,0.00006285,0.00003174,0.00002959,0.00006249,-0.00002476,-0.0000
 6071,0.00001294,0.00000921,-0.00005935,-0.00005603,-0.00002624,-0.0000
 9797,0.00064862,0.00074015,-0.00075152,-0.00998024,-0.01028176,0.01594
 839,-0.00032713,0.00025014,0.00147482,0.00057941,0.00043059,-0.0004272
 9,-0.04798644,-0.08936966,0.07916685,-0.00774275,-0.00837425,0.0151089
 7,-0.00048214,0.00031463,-0.00088076,0.00000112,0.00000147,0.00000086,
 -0.00000102,-0.00000041,0.00000056,0.00000061,0.00000147,-0.00000031,0
 .00000233,-0.00000359,0.00000410,-0.00001352,-0.00000189,0.00000113,0.
 00001742,-0.00004901,-0.00010582,-0.00007533,0.00006919,0.00011709,-0.
 00291146,-0.00139093,-0.00128931,0.00009091,-0.00013644,0.00004424,-0.
 00011697,-0.00006050,-0.00073824,0.00006970,0.00018648,0.00015231,0.01
 144419,0.00998470,-0.01886264,0.05450208,0.09808557,-0.00000194,-0.000
 00543,-0.00000448,0.00000149,0.00000914,-0.00000018,0.00000619,-0.0000
 4099,-0.00000644,0.00008768,0.00004309,0.00002032,-0.00018112,0.000044
 79,0.00013108,0.00016323,-0.00001594,0.00002796,-0.00003627,-0.0000204
 7,-0.00001705,0.00132131,-0.00060787,0.00056511,-0.00625005,-0.0043784
 2,0.00856715,-0.00023450,-0.00049734,0.00068113,0.00028918,0.00012554,
 0.00016117,0.09224766,0.08012210,-0.20348710,0.00791753,0.00718361,-0.
 01489861,0.00123512,0.00012670,0.00035871,0.00000290,-0.00000229,0.000
 00072,0.00000016,0.00000169,0.00000183,0.00000356,-0.00000129,0.000002
 56,-0.00001016,-0.00000025,0.00000816,-0.00001667,0.00000106,0.0000095
 2,-0.00006241,0.00003013,-0.00002209,-0.00001818,0.00001337,0.00001558
 ,-0.00211879,-0.00138315,-0.00000669,0.00011747,0.00006740,0.00000512,
 -0.00006031,0.00029356,0.00027401,-0.00004558,0.00002775,-0.00006876,0
 .00859380,0.00778094,-0.01486214,-0.09851710,-0.09012579,0.22158296,-0
 .00000658,0.00000674,0.00000027,0.00000060,-0.00002334,0.00000723,0.00
 001436,-0.00002987,-0.00004134,-0.00001449,-0.00000564,-0.00002776,0.0
 0025199,0.00001830,0.00015525,-0.00010318,-0.00000758,-0.00007506,0.00
 009292,-0.00011087,-0.00007330,-0.00010230,-0.00045448,-0.00053931,0.0
 0057468,0.00090368,0.00114475,-0.00166484,0.00085081,-0.00042106,0.000
 86237,-0.00028315,0.00002183,-0.01016764,0.01590166,0.01229892,-0.0898
 4224,0.07539027,0.05932622,0.00913041,-0.01955954,-0.01543962,0.000000
 92,0.00000438,-0.00000035,0.00000207,-0.00000114,-0.00000212,0.0000007
 0,0.00000380,-0.00000213,-0.00002324,0.00000675,0.00001500,0.00000204,
 0.00000017,0.00000235,0.00001511,0.00003290,-0.00001714,-0.00020377,0.
 00012481,0.00007718,-0.00007084,-0.00005785,-0.00001007,0.00012032,-0.
 00100342,-0.00088910,0.00017087,-0.00013466,0.00007385,-0.00021803,-0.
 00001144,0.00003523,-0.00221258,0.00184231,-0.00330807,0.00107337,-0.0
 0070285,-0.00029301,0.10044423,0.00000970,-0.00000488,-0.00000012,0.00
 000302,0.00002335,-0.00001443,-0.00001731,0.00002216,0.00004703,0.0000
 2269,0.00000330,0.00001343,-0.00032059,-0.00005810,-0.00001411,0.00012
 446,0.00001543,0.00005066,-0.00006067,0.00009616,0.00006341,0.00037748
 ,0.00032766,0.00032224,-0.00058295,-0.00053617,-0.00031254,0.00084300,
 -0.00058537,-0.00053049,-0.00070528,0.00023427,0.00014079,0.00811004,-
 0.01345597,-0.00963993,0.07484851,-0.17800474,-0.09882547,0.00703619,-
 0.01527014,-0.01211694,-0.00000238,-0.00000519,0.00000032,-0.00000322,
 -0.00000031,0.00000319,-0.00000162,-0.00000316,0.00000258,0.00002207,-
 0.00000469,-0.00001300,0.00000058,-0.00000358,-0.00000501,0.00000078,-
 0.00001475,-0.00000112,0.00014451,-0.00009960,-0.00007142,0.00006481,0
 .00010279,0.00006069,-0.00091727,0.00062763,-0.00053317,-0.00012126,0.
 00004240,0.00000023,0.00010591,-0.00003509,-0.00005795,0.00229932,-0.0
 0094708,0.00238062,-0.00059363,0.00036493,-0.00010877,-0.08191597,0.19
 675438,-0.00000135,0.00000650,-0.00000456,-0.00000066,-0.00001018,0.00
 000798,-0.00000337,-0.00000759,-0.00004099,-0.00000246,0.00000696,0.00
 002485,0.00004442,0.00004237,0.00002312,0.00002311,0.00000885,0.000010
 37,-0.00001125,0.00000865,0.00001219,0.00022415,-0.00014088,-0.0000782
 9,0.00036289,-0.00048857,0.00042496,-0.00044918,-0.00018295,-0.0005351
 2,-0.00013971,0.00000626,0.00000804,-0.00822359,0.01477568,0.01075310,
 0.05949165,-0.09975726,-0.12620469,0.00439653,-0.00937669,-0.00771385,
 0.00000059,0.00000098,0.00000152,-0.00000140,-0.00000091,0.00000169,0.
 00000066,-0.00000088,0.00000081,-0.00000932,0.00000151,0.00000720,-0.0
 0000552,0.00000158,0.00000638,-0.00000109,-0.00000234,0.00000251,0.000
 03389,-0.00002114,-0.00001199,-0.00005824,-0.00009830,-0.00004807,-0.0
 0101385,-0.00025950,-0.00060155,-0.00007653,0.00009303,-0.00006079,0.0
 0008398,-0.00004568,0.00001033,-0.00323262,0.00236006,-0.00121533,0.00
 075865,-0.00046703,0.00114895,-0.05966668,0.11197247,0.13737241,0.0000
 0184,0.00000115,0.00000080,0.00000181,-0.00000142,-0.00000098,-0.00000
 242,-0.00000447,-0.00000033,0.00001032,0.00000119,0.00000403,-0.000032
 10,-0.00003013,0.00007084,0.00003103,0.00000786,-0.00000187,0.00001234
 ,0.00000243,0.00000593,0.00015409,-0.00011599,0.00026812,0.00145847,0.
 00086366,-0.00074207,-0.00012053,0.00002703,-0.00003766,0.00006312,-0.
 00004700,0.00001373,0.00967379,0.00971376,-0.01829283,-0.10487539,-0.0
 5081852,0.09221544,-0.01375514,-0.01148480,0.01852309,-0.00000091,0.00
 000011,-0.00000023,-0.00000087,-0.00000056,0.00000011,-0.00000062,0.00
 000015,-0.00000039,-0.00000226,0.00000075,0.00000189,-0.00000109,-0.00
 000043,-0.00000053,-0.00003174,0.00000927,0.00000922,-0.00000689,-0.00
 000310,-0.00000577,-0.00009821,-0.00022553,0.00032278,0.00001008,-0.00
 008236,0.00006040,-0.00000911,0.00001060,0.00007991,0.00000005,-0.0000
 2024,0.00001251,0.00082603,-0.00052647,0.00062215,-0.00260549,0.002371
 44,-0.00300582,-0.00702722,-0.00572237,0.01027486,0.11758833,0.0000038
 3,-0.00000213,0.00000661,0.00000380,0.00000253,-0.00001029,-0.00000293
 ,0.00000743,0.00003134,-0.00002023,-0.00001402,-0.00003076,-0.00008958
 ,-0.00000568,0.00019529,0.00004431,0.00001155,-0.00004587,0.00001327,-
 0.00000871,-0.00000482,0.00020533,0.00006643,-0.00042516,-0.00108212,0
 .00017684,-0.00053381,0.00009374,-0.00016565,-0.00003030,-0.00002286,0
 .00011418,0.00003238,-0.00793384,-0.00862419,0.01520915,-0.05052569,-0
 .09557777,0.08083912,-0.01092756,-0.00948353,0.01480823,-0.00000329,0.
 00000046,-0.00000192,0.00000087,-0.00000082,-0.00000245,-0.00000334,0.
 00000231,-0.00000214,0.00000688,0.00000118,-0.00000472,0.00001569,-0.0
 0000381,-0.00001272,0.00004053,0.00002781,-0.00003020,-0.00002702,0.00
 000349,0.00000673,0.00054034,0.00055147,-0.00003226,0.00011097,0.00011
 445,0.00005512,0.00002227,-0.00004238,-0.00008520,-0.00000038,0.000003
 26,-0.00000624,-0.00057876,0.00027168,-0.00037204,0.00251769,-0.001289
 17,0.00195008,0.01141294,0.01049767,-0.01794905,0.05810000,0.10384297,
 -0.00000471,0.00000027,-0.00000222,-0.00000441,-0.00000576,0.00000716,
 0.00000487,-0.00002005,-0.00003363,0.00000488,0.00000044,0.00002062,0.
 00006368,0.00010332,-0.00018380,-0.00006619,-0.00001725,0.00005541,0.0
 0001314,-0.00002524,0.00002525,-0.00031704,-0.00040384,0.00062910,0.00
 197584,0.00103031,-0.00026439,0.00003602,-0.00015463,0.00006538,-0.000
 27408,-0.00019183,-0.00005118,0.00768037,0.00826012,-0.01611715,0.0925
 9541,0.08174955,-0.19192801,-0.00720334,-0.00635872,0.00999441,0.00000
 307,0.00000055,0.00000032,0.00000131,0.00000102,0.00000029,0.00000307,
 -0.00000079,0.00000068,-0.00001514,0.00000239,0.00000614,-0.00000713,0
 .00000555,0.00001058,-0.00004108,-0.00000488,0.00005187,0.00002336,-0.
 00000344,-0.00003385,-0.00110835,-0.00066447,0.00018529,0.00005901,0.0
 0011624,-0.00004786,0.00003057,0.00003679,0.00020559,-0.00004554,-0.00
 000875,-0.00012362,-0.00025058,-0.00012077,0.00100805,-0.00327005,0.00
 206125,-0.00066203,0.00893803,0.00768101,-0.01441875,-0.09749218,-0.09
 195617,0.20997338,0.00000243,0.00000266,0.00000176,0.00000184,-0.00000
 162,-0.00000122,-0.00000133,0.00001322,0.00001142,-0.00001122,-0.00000
 187,-0.00000713,0.00002714,-0.00005011,0.00003901,-0.00000528,0.000004
 96,-0.00002223,-0.00000818,0.00001505,-0.00000082,-0.00003094,0.000083
 96,-0.00013368,0.00001386,-0.00007816,-0.00018330,0.00007877,-0.000063
 50,0.00001019,-0.00001789,0.00005079,-0.00000842,0.00113442,-0.0002282
 7,0.00184858,-0.01376368,-0.01069244,0.01831177,-0.11363313,-0.0562319
 7,0.09800918,-0.00000202,0.00000060,-0.00000018,-0.00000087,-0.0000010
 5,-0.00000044,-0.00000222,0.00000056,-0.00000111,0.00000652,-0.0000007
 9,-0.00000342,0.00000513,-0.00000211,-0.00000548,0.00001071,0.00001140
 ,-0.00000879,0.00000890,-0.00000564,0.00000486,0.00024168,0.00021483,-
 0.00006351,-0.00003399,0.00003171,0.00004842,-0.00002629,0.00000357,-0
 .00005121,0.00002620,0.00000260,0.00002085,-0.00010581,0.00003092,-0.0
 0001425,-0.00017517,0.00036625,-0.00090895,0.00109177,0.00049882,-0.00
 033247,-0.00295263,-0.00309185,-0.00253628,0.12345105,-0.00000388,0.00
 000488,-0.00000211,-0.00000042,-0.00001081,0.00000837,0.00000880,0.000
 00507,-0.00001025,-0.00000807,0.00001058,0.00000112,0.00012106,-0.0000
 5396,-0.00000752,-0.00004160,-0.00000147,-0.00002176,-0.00001249,0.000
 00295,-0.00001038,-0.00014070,0.00007543,-0.00008534,0.00017189,-0.000
 07842,-0.00004188,-0.00001048,0.00002835,0.00003142,0.00000140,-0.0000
 2522,-0.00004728,0.00114954,0.00033705,0.00032813,-0.01076862,-0.00979
 175,0.01503147,-0.05631825,-0.09576154,0.08372422,0.00000047,0.0000026
 7,0.00000059,-0.00000009,-0.00000097,-0.00000011,0.00000036,0.00000112
 ,-0.00000082,-0.00000061,-0.00000111,0.00000158,-0.00000381,-0.0000011
 7,0.00000120,0.00000145,0.00000515,-0.00000245,0.00001097,0.00000436,0
 .00001484,0.00017986,0.00008979,0.00000061,-0.00002103,-0.00000901,0.0
 0004756,-0.00002742,0.00000625,-0.00003515,0.00001208,0.00002045,0.000
 02650,-0.00001917,0.00008534,-0.00014706,-0.00025923,0.00054089,-0.000
 45791,0.00069672,0.00033836,0.00041516,-0.00319528,-0.00164660,-0.0020
 5688,0.06596249,0.10277862,0.00000017,-0.00000376,-0.00000229,-0.00000
 063,0.00000749,-0.00000290,-0.00000406,-0.00000706,-0.00000125,0.00001
 302,-0.00000086,0.00000464,-0.00006891,0.00002834,0.00001766,0.0000387
 0,0.00000045,0.00001273,0.00000758,-0.00000448,0.00000137,0.00017983,0
 .00000860,-0.00001376,-0.00018245,-0.00029060,0.00024852,-0.00001633,0
 .00001414,-0.00002912,0.00004768,0.00003768,0.00002745,0.00020723,-0.0
 0035225,0.00116030,-0.00735776,-0.00574279,0.00997321,0.09885065,0.084
 37425,-0.19251165,0.00000136,-0.00000203,0.00000055,0.00000001,0.00000
 098,0.00000109,0.00000119,-0.00000104,0.00000184,-0.00000123,0.0000001
 1,0.00000138,-0.00000293,0.00000042,0.00000271,0.00000362,-0.00001329,
 -0.00000294,-0.00001375,0.00000134,-0.00000279,-0.00004239,0.00004648,
 -0.00014895,0.00001954,-0.00002091,-0.00000189,0.00000627,-0.00000588,
 -0.00000316,-0.00000459,-0.00000405,0.00000193,0.00001467,0.00008806,-
 0.00008940,0.00040863,0.00002198,0.00008360,0.00053901,0.00060865,0.00
 087402,-0.00277403,-0.00174835,0.00021745,-0.10721781,-0.09183545,0.20
 722825,-0.00001649,0.00001951,-0.00000766,-0.00000670,-0.00004187,0.00
 003471,0.00003556,0.00002690,-0.00004954,-0.00004459,0.00002345,0.0000
 1125,0.00059550,-0.00017692,-0.00031811,-0.00027751,-0.00001708,-0.000
 03081,-0.00003905,0.00000269,-0.00001520,-0.00122039,0.00021963,-0.000
 11333,0.00063307,0.00117191,-0.00067347,-0.00013591,0.00019645,0.00020
 404,-0.00012761,-0.00027943,-0.00016881,-0.00306937,-0.00480535,-0.001
 10845,-0.01530916,0.01395868,-0.01231992,-0.15374853,0.09153385,-0.091
 01005,0.00000303,0.00000976,0.00000204,0.00000087,-0.00000308,0.000000
 05,0.00000273,0.00000288,-0.00000259,-0.00000320,-0.00000406,0.0000010
 2,-0.00001284,0.00000094,0.00001031,-0.00001813,0.00001935,0.00002434,
 0.00006613,0.00002000,0.00002858,-0.00003057,-0.00001133,0.00007346,0.
 00001683,-0.00002407,-0.00000531,-0.00001069,-0.00000989,-0.00001235,-
 0.00000629,0.00006488,-0.00000125,0.00034837,-0.00031620,0.00024092,0.
 00014195,0.00004865,-0.00021413,0.00108589,-0.00013681,0.00013626,0.00
 045159,0.00043171,0.00072885,0.01150120,-0.00947705,0.00905311,0.16737
 601,0.00000230,0.00000409,-0.00000203,-0.00000084,-0.00000085,0.000003
 23,-0.00000160,0.00001935,0.00000174,-0.00000545,-0.00000052,0.0000095
 6,0.00018594,-0.00008883,-0.00017968,-0.00011838,-0.00001428,0.0000015
 4,0.00000462,0.00001771,0.00000004,-0.00073295,0.00003927,-0.00014084,
 -0.00027741,0.00099904,-0.00039682,0.00001608,0.00008136,0.00005141,0.
 00002034,-0.00002381,0.00000490,-0.00265213,-0.00283310,-0.00119287,-0
 .01410746,0.01162374,-0.01234203,0.09288569,-0.12557025,0.07890456,-0.
 00000070,0.00000014,0.00000119,-0.00000260,-0.00000089,0.00000185,-0.0
 0000097,-0.00000093,0.00000036,0.00000737,-0.00000260,-0.00000356,-0.0
 0000316,-0.00000165,0.00000012,-0.00001163,0.00000258,0.00001573,-0.00
 000205,0.00001077,0.00000409,0.00001580,0.00002490,0.00005450,0.000012
 96,-0.00003277,-0.00002484,-0.00000543,-0.00001246,-0.00000539,-0.0000
 1280,0.00000392,-0.00000186,-0.00029626,0.00011124,0.00016028,0.000050
 01,-0.00007163,-0.00018777,0.00074182,0.00096764,0.00031085,0.00079136
 ,0.00082034,0.00039110,0.00882429,-0.00799936,0.00617009,-0.09883709,0
 .13443393,-0.00000938,0.00001224,-0.00000443,-0.00000386,-0.00002531,0
 .00002086,0.00002078,0.00001804,-0.00002607,-0.00002250,0.00001734,0.0
 0000822,0.00037115,-0.00012792,-0.00019379,-0.00017022,-0.00000705,-0.
 00002027,-0.00002510,0.00000385,-0.00001373,-0.00073350,0.00013670,-0.
 00010257,0.00013013,0.00076856,0.00029787,-0.00001592,0.00018456,0.000
 10031,-0.00005261,-0.00014896,-0.00008501,-0.00166526,-0.00271292,-0.0
 0018630,-0.00634395,0.00652856,-0.00711245,-0.09129749,0.07801808,-0.1
 2504486,0.00000180,0.00000592,0.00000122,-0.00000011,-0.00000209,0.000
 00033,0.00000159,0.00000189,-0.00000181,-0.00000027,-0.00000313,0.0000
 0058,-0.00000943,-0.00000063,0.00000561,-0.00001346,0.00001166,0.00001
 442,0.00003848,0.00001602,0.00002217,-0.00007334,-0.00007399,-0.000006
 73,0.00000061,-0.00001195,-0.00000427,0.00000162,-0.00001080,-0.000004
 57,-0.00001113,0.00004600,0.00001065,-0.00013308,0.00020404,0.00009264
 ,0.00028002,-0.00022502,0.00042970,0.00037218,0.00016486,-0.00008025,0
 .00023159,-0.00031677,0.00066776,-0.01602470,0.01304259,-0.01302923,0.
 10230961,-0.08504314,0.13298149,0.00000174,-0.00000476,0.,-0.00000086,
 0.00000926,-0.00000268,-0.00000755,0.00000130,0.00000650,0.00000972,-0
 .00000155,0.00000831,-0.00007213,0.00001313,-0.00000813,0.00003609,0.0
 0000078,0.00001728,-0.00001141,0.00001541,0.00001198,0.00007958,0.0000
 3763,0.00006790,0.00008277,-0.00015850,0.00018511,0.00020171,-0.000208
 68,-0.00007731,-0.00014058,0.00008564,-0.00001168,0.00190120,-0.000925
 86,0.00015152,0.00904823,-0.01857491,-0.01590758,-0.08612714,0.0730490
 7,0.05932605,0.00000063,-0.00000171,0.00000019,-0.00000026,0.00000152,
 0.00000039,0.00000032,-0.00000123,0.00000074,0.00000313,-0.00000111,-0
 .00000114,-0.00000134,0.00000040,0.00000005,-0.00000301,-0.00001061,0.
 00000132,0.00002646,-0.00002006,-0.00001463,0.00001332,-0.00001238,-0.
 00000539,-0.00013304,0.00015870,0.00007693,-0.00003317,0.00002984,-0.0
 0002759,0.00003572,0.00000399,-0.00000187,-0.00016769,0.00051364,0.000
 29141,-0.00010469,0.00011164,-0.00001227,-0.00327765,-0.00341057,-0.00
 260236,0.00123975,0.00074530,0.00047463,-0.00683097,0.01199113,0.00829
 462,-0.00818176,0.01351034,0.01284576,0.09241288,-0.00000433,0.0000084
 8,-0.00000754,-0.00000247,-0.00001069,0.00001361,0.00000794,0.00001268
 ,-0.00002348,-0.00000580,0.00001981,0.00002366,0.00016780,-0.00007207,
 -0.00013190,-0.00005661,-0.00000278,0.00001150,-0.00003695,0.00003610,
 0.00001510,-0.00030448,0.00010944,0.00002820,0.00004808,0.00008029,0.0
 0027349,0.00038867,-0.00007158,0.00005411,-0.00020407,0.00002155,0.000
 00512,0.00092032,0.00051321,0.00097303,0.00716321,-0.01542635,-0.01190
 481,0.07211040,-0.18016633,-0.10808060,0.00000160,0.00000163,0.0000023
 9,-0.00000190,-0.00000140,0.00000260,0.00000157,-0.00000100,0.00000116
 ,0.00000196,-0.00000321,0.00000031,-0.00001192,-0.00000044,0.00000744,
 -0.00001044,-0.00000643,0.00001237,0.00007116,-0.00002385,-0.00001094,
 -0.00000452,-0.00002489,-0.00001362,-0.00011470,0.00015513,0.00004383,
 -0.00004709,0.00001841,-0.00001279,0.00005370,0.00000424,-0.00000415,-
 0.00058054,0.00069781,-0.00028508,-0.00006512,0.00007663,0.00001274,-0
 .00363624,-0.00138932,-0.00120196,0.00037791,0.00034839,0.00055356,-0.
 00566932,0.01104408,0.00862371,0.00638899,-0.01250609,-0.01047122,-0.0
 7694681,0.19655856,0.00000579,0.00000382,-0.00000116,0.00000149,0.0000
 0485,-0.00000293,-0.00000749,0.00002019,0.00001610,0.00000293,0.000006
 74,0.00001112,0.00002720,-0.00008232,-0.00005498,-0.00000741,0.0000033
 4,0.00000752,-0.00002014,0.00004539,0.00001747,-0.00012941,0.00009676,
 -0.00000257,-0.00016061,0.00013915,0.00026114,0.00031861,-0.00007265,-
 0.00002729,-0.00011379,0.00008571,0.00005176,0.00130410,-0.00049534,0.
 00013592,0.00420061,-0.00833739,-0.00762329,0.05856866,-0.10808284,-0.
 13583369,-0.00000173,-0.00000171,0.00000096,-0.00000360,-0.00000151,0.
 00000254,-0.00000171,-0.00000142,0.00000065,0.00001226,-0.00000297,-0.
 00000598,-0.00000188,-0.00000335,-0.00000262,-0.00000384,0.00000134,0.
 00000361,0.00004129,-0.00002177,-0.00001489,0.00003208,0.00002425,-0.0
 0002074,-0.00008677,0.00011082,0.00001928,-0.00002178,0.00000413,-0.00
 000773,0.00003352,-0.00000945,0.00000057,-0.00073304,0.00040636,-0.000
 02334,-0.00001515,-0.00005045,-0.00003979,-0.00220119,-0.00126773,0.00
 032380,-0.00036271,0.00046719,0.00074174,0.00921936,-0.01791301,-0.014
 01939,-0.00680758,0.01343372,0.01126250,-0.06308808,0.12149017,0.14482
 370\\-0.00000010,0.00000040,-0.00000286,-0.00000005,-0.00000265,0.0000
 0303,0.00000633,0.00000283,-0.00000600,-0.00000440,-0.00000753,-0.0000
 0069,0.00001263,0.00000453,0.00000608,-0.00001162,-0.00000374,0.000000
 23,0.00000902,0.00000052,-0.00000671,0.00000063,0.00000322,0.00000042,
 -0.00000285,0.00000123,0.00000026,0.00001097,0.00000890,0.00000701,-0.
 00001204,-0.00000841,-0.00000381,0.00000035,0.00000089,0.00000014,0.00
 000223,0.00000038,-0.00000078,-0.00000114,0.00000161,-0.00000069,-0.00
 000207,-0.00000162,-0.00000145,-0.00000147,-0.00000079,-0.00000068,-0.
 00000184,-0.00000078,-0.00000140,-0.00000131,-0.00000144,0.00000003,-0
 .00000045,-0.00000117,0.00000052,-0.00000162,-0.00000123,-0.00000099,-
 0.00000428,-0.00000129,0.00000400,0.00000089,-0.00000073,-0.00000004,-
 0.00000066,0.00000016,0.00000149,0.00000016,-0.00000104,-0.00000020,0.
 00000244,0.00000006,0.00000178,-0.00000051,0.00000006,0.00000003,0.000
 00017,0.00000030,0.00000008,0.00000016,0.00000030,0.00000084,-0.000000
 37,0.00000194,0.00000032,-0.00000037,0.00000205,-0.00000015,0.00000091
 ,0.00000179,-0.00000037,0.00000028,0.00000124,0.00000052\\\@


 WHEN HAVING A MEETING OF THE MINDS,
 MAKE SURE YOU HAVE THE EQUIPMENT FOR IT.
 Job cpu time:       0 days  6 hours 55 minutes 24.1 seconds.
 Elapsed time:       0 days  1 hours 43 minutes 53.5 seconds.
 File lengths (MBytes):  RWF=    580 Int=      0 D2E=      0 Chk=     20 Scr=      1
 Normal termination of Gaussian 16 at Tue May 23 07:27:59 2023.
### All Done ###
