### Starting Gaussian ###
 Entering Gaussian System, Link 0=g16
 Initial command:
 /cluster/software/gaussian/gaussian-16-A.03/avx2/g16/l1.exe "/local/scratch/cz9n3/Gau-16378.inp" -scrdir="/local/scratch/cz9n3/"
 Entering Link 1 = /cluster/software/gaussian/gaussian-16-A.03/avx2/g16/l1.exe PID=     16379.
  
 Copyright (c) 1988,1990,1992,1993,1995,1998,2003,2009,2016,
            Gaussian, Inc.  All Rights Reserved.
  
 This is part of the Gaussian(R) 16 program.  It is based on
 the Gaussian(R) 09 system (copyright 2009, Gaussian, Inc.),
 the Gaussian(R) 03 system (copyright 2003, Gaussian, Inc.),
 the Gaussian(R) 98 system (copyright 1998, Gaussian, Inc.),
 the Gaussian(R) 94 system (copyright 1995, Gaussian, Inc.),
 the Gaussian 92(TM) system (copyright 1992, Gaussian, Inc.),
 the Gaussian 90(TM) system (copyright 1990, Gaussian, Inc.),
 the Gaussian 88(TM) system (copyright 1988, Gaussian, Inc.),
 the Gaussian 86(TM) system (copyright 1986, Carnegie Mellon
 University), and the Gaussian 82(TM) system (copyright 1983,
 Carnegie Mellon University). Gaussian is a federally registered
 trademark of Gaussian, Inc.
  
 This software contains proprietary and confidential information,
 including trade secrets, belonging to Gaussian, Inc.
  
 This software is provided under written license and may be
 used, copied, transmitted, or stored only in accord with that
 written license.
  
 The following legend is applicable only to US Government
 contracts under FAR:
  
                    RESTRICTED RIGHTS LEGEND
  
 Use, reproduction and disclosure by the US Government is
 subject to restrictions as set forth in subparagraphs (a)
 and (c) of the Commercial Computer Software - Restricted
 Rights clause in FAR 52.227-19.
  
 Gaussian, Inc.
 340 Quinnipiac St., Bldg. 40, Wallingford CT 06492
  
  
 ---------------------------------------------------------------
 Warning -- This program may not be used in any manner that
 competes with the business of Gaussian, Inc. or will provide
 assistance to any competitor of Gaussian, Inc.  The licensee
 of this program is prohibited from giving any competitor of
 Gaussian, Inc. access to this program.  By using this program,
 the user acknowledges that Gaussian, Inc. is engaged in the
 business of creating and licensing software in the field of
 computational chemistry and represents and warrants to the
 licensee that it is not a competitor of Gaussian, Inc. and that
 it will not use this program in any manner prohibited above.
 ---------------------------------------------------------------
  

 Cite this work as:
 Gaussian 16, Revision A.03,
 M. J. Frisch, G. W. Trucks, H. B. Schlegel, G. E. Scuseria, 
 M. A. Robb, J. R. Cheeseman, G. Scalmani, V. Barone, 
 G. A. Petersson, H. Nakatsuji, X. Li, M. Caricato, A. V. Marenich, 
 J. Bloino, B. G. Janesko, R. Gomperts, B. Mennucci, H. P. Hratchian, 
 J. V. Ortiz, A. F. Izmaylov, J. L. Sonnenberg, D. Williams-Young, 
 F. Ding, F. Lipparini, F. Egidi, J. Goings, B. Peng, A. Petrone, 
 T. Henderson, D. Ranasinghe, V. G. Zakrzewski, J. Gao, N. Rega, 
 G. Zheng, W. Liang, M. Hada, M. Ehara, K. Toyota, R. Fukuda, 
 J. Hasegawa, M. Ishida, T. Nakajima, Y. Honda, O. Kitao, H. Nakai, 
 T. Vreven, K. Throssell, J. A. Montgomery, Jr., J. E. Peralta, 
 F. Ogliaro, M. J. Bearpark, J. J. Heyd, E. N. Brothers, K. N. Kudin, 
 V. N. Staroverov, T. A. Keith, R. Kobayashi, J. Normand, 
 K. Raghavachari, A. P. Rendell, J. C. Burant, S. S. Iyengar, 
 J. Tomasi, M. Cossi, J. M. Millam, M. Klene, C. Adamo, R. Cammi, 
 J. W. Ochterski, R. L. Martin, K. Morokuma, O. Farkas, 
 J. B. Foresman, and D. J. Fox, Gaussian, Inc., Wallingford CT, 2016.
 
 ******************************************
 Gaussian 16:  ES64L-G16RevA.03 25-Dec-2016
                29-May-2023 
 ******************************************
 %chk=CdCCC1dCCCqOCrCdCC1.chk
 %NProcShared=20
 Will use up to   20 processors via shared memory.
 -----------------------------
 # opt freq b3lyp/6-31g(2df,p)
 -----------------------------
 1/18=20,19=15,26=3,38=1/1,3;
 2/9=110,12=2,17=6,18=5,40=1/2;
 3/5=1,6=6,7=104,11=2,25=1,30=1,71=1,74=-5/1,2,3;
 4//1;
 5/5=2,38=5/2;
 6/7=2,8=2,9=2,10=2,28=1/1;
 7//1,2,3,16;
 1/18=20,19=15,26=3/3(2);
 2/9=110/2;
 99//99;
 2/9=110/2;
 3/5=1,6=6,7=104,11=2,25=1,30=1,71=1,74=-5/1,2,3;
 4/5=5,16=3,69=1/1;
 5/5=2,38=5/2;
 7//1,2,3,16;
 1/18=20,19=15,26=3/3(-5);
 2/9=110/2;
 6/7=2,8=2,9=2,10=2,19=2,28=1/1;
 99/9=1/99;
 -------------------
 Title Card Required
 -------------------
 Symbolic Z-matrix:
 Charge =  0 Multiplicity = 1
 C                     1.03176   0.01101   0.02094 
 C                     2.3696    0.01177   0.06771 
 C                     3.12564  -0.00599   1.36478 
 C                     4.61751  -0.03539   1.11261 
 C                     5.18604  -1.23864   0.90383 
 C                     6.61494  -1.56788   0.60221 
 C                     7.65223  -0.61993   1.20161 
 O                     7.43325  -0.5133    2.62093 
 C                     8.35996   0.34111   3.27725 
 C                     7.64137   0.73647   0.56935 
 C                     6.61546   1.60207   0.6506 
 C                     5.21124   1.35885   1.09766 
 H                     0.50955   0.01163  -0.92815 
 H                     0.44848   0.00488   0.93488 
 H                     2.93501   0.01181  -0.86299 
 H                     2.82959  -0.88025   1.95794 
 H                     2.86886   0.87775   1.9616 
 H                     4.54662  -2.12149   0.96509 
 H                     6.73084  -1.64075  -0.48665 
 H                     6.80087  -2.57256   1.00504 
 H                     8.64176  -1.06934   1.05371 
 H                     8.10827   0.37286   4.33936 
 H                     8.30191   1.36871   2.9043 
 H                     9.37419  -0.04352   3.15205 
 H                     8.58772   1.08517   0.17083 
 H                     6.82944   2.64099   0.41018 
 H                     4.60361   1.93867   0.38862 
 H                     5.06705   1.81588   2.08451 
 

 GradGradGradGradGradGradGradGradGradGradGradGradGradGradGradGradGradGrad
 Berny optimization.
 Initialization pass.
                           ----------------------------
                           !    Initial Parameters    !
                           ! (Angstroms and Degrees)  !
 --------------------------                            --------------------------
 ! Name  Definition              Value          Derivative Info.                !
 --------------------------------------------------------------------------------
 ! R1    R(1,2)                  1.3387         estimate D2E/DX2                !
 ! R2    R(1,13)                 1.0833         estimate D2E/DX2                !
 ! R3    R(1,14)                 1.0842         estimate D2E/DX2                !
 ! R4    R(2,3)                  1.5014         estimate D2E/DX2                !
 ! R5    R(2,15)                 1.089          estimate D2E/DX2                !
 ! R6    R(3,4)                  1.5133         estimate D2E/DX2                !
 ! R7    R(3,16)                 1.0972         estimate D2E/DX2                !
 ! R8    R(3,17)                 1.0969         estimate D2E/DX2                !
 ! R9    R(4,5)                  1.3471         estimate D2E/DX2                !
 ! R10   R(4,12)                 1.5155         estimate D2E/DX2                !
 ! R11   R(5,6)                  1.497          estimate D2E/DX2                !
 ! R12   R(5,18)                 1.0918         estimate D2E/DX2                !
 ! R13   R(6,7)                  1.5277         estimate D2E/DX2                !
 ! R14   R(6,19)                 1.0974         estimate D2E/DX2                !
 ! R15   R(6,20)                 1.0983         estimate D2E/DX2                !
 ! R16   R(7,8)                  1.4401         estimate D2E/DX2                !
 ! R17   R(7,10)                 1.4966         estimate D2E/DX2                !
 ! R18   R(7,21)                 1.0968         estimate D2E/DX2                !
 ! R19   R(8,9)                  1.4211         estimate D2E/DX2                !
 ! R20   R(9,22)                 1.092          estimate D2E/DX2                !
 ! R21   R(9,23)                 1.0947         estimate D2E/DX2                !
 ! R22   R(9,24)                 1.0919         estimate D2E/DX2                !
 ! R23   R(10,11)                1.3448         estimate D2E/DX2                !
 ! R24   R(10,25)                1.0844         estimate D2E/DX2                !
 ! R25   R(11,12)                1.4936         estimate D2E/DX2                !
 ! R26   R(11,26)                1.0876         estimate D2E/DX2                !
 ! R27   R(12,27)                1.0992         estimate D2E/DX2                !
 ! R28   R(12,28)                1.0971         estimate D2E/DX2                !
 ! A1    A(2,1,13)             120.8227         estimate D2E/DX2                !
 ! A2    A(2,1,14)             120.5436         estimate D2E/DX2                !
 ! A3    A(13,1,14)            118.633          estimate D2E/DX2                !
 ! A4    A(1,2,3)              122.2364         estimate D2E/DX2                !
 ! A5    A(1,2,15)             119.2769         estimate D2E/DX2                !
 ! A6    A(3,2,15)             118.4816         estimate D2E/DX2                !
 ! A7    A(2,3,4)              110.6517         estimate D2E/DX2                !
 ! A8    A(2,3,16)             109.9128         estimate D2E/DX2                !
 ! A9    A(2,3,17)             110.0378         estimate D2E/DX2                !
 ! A10   A(4,3,16)             109.9139         estimate D2E/DX2                !
 ! A11   A(4,3,17)             109.7006         estimate D2E/DX2                !
 ! A12   A(16,3,17)            106.539          estimate D2E/DX2                !
 ! A13   A(3,4,5)              117.3383         estimate D2E/DX2                !
 ! A14   A(3,4,12)             111.7155         estimate D2E/DX2                !
 ! A15   A(5,4,12)             130.9118         estimate D2E/DX2                !
 ! A16   A(4,5,6)              129.0876         estimate D2E/DX2                !
 ! A17   A(4,5,18)             117.8015         estimate D2E/DX2                !
 ! A18   A(6,5,18)             113.108          estimate D2E/DX2                !
 ! A19   A(5,6,7)              115.6305         estimate D2E/DX2                !
 ! A20   A(5,6,19)             108.3795         estimate D2E/DX2                !
 ! A21   A(5,6,20)             106.7904         estimate D2E/DX2                !
 ! A22   A(7,6,19)             111.0255         estimate D2E/DX2                !
 ! A23   A(7,6,20)             107.9851         estimate D2E/DX2                !
 ! A24   A(19,6,20)            106.5766         estimate D2E/DX2                !
 ! A25   A(6,7,8)              109.2323         estimate D2E/DX2                !
 ! A26   A(6,7,10)             113.0608         estimate D2E/DX2                !
 ! A27   A(6,7,21)             107.7833         estimate D2E/DX2                !
 ! A28   A(8,7,10)             110.3757         estimate D2E/DX2                !
 ! A29   A(8,7,21)             107.4834         estimate D2E/DX2                !
 ! A30   A(10,7,21)            108.72           estimate D2E/DX2                !
 ! A31   A(7,8,9)              113.6119         estimate D2E/DX2                !
 ! A32   A(8,9,22)             108.4441         estimate D2E/DX2                !
 ! A33   A(8,9,23)             111.8664         estimate D2E/DX2                !
 ! A34   A(8,9,24)             109.9359         estimate D2E/DX2                !
 ! A35   A(22,9,23)            106.9684         estimate D2E/DX2                !
 ! A36   A(22,9,24)            109.6246         estimate D2E/DX2                !
 ! A37   A(23,9,24)            109.9284         estimate D2E/DX2                !
 ! A38   A(7,10,11)            124.2922         estimate D2E/DX2                !
 ! A39   A(7,10,25)            116.1269         estimate D2E/DX2                !
 ! A40   A(11,10,25)           118.7498         estimate D2E/DX2                !
 ! A41   A(10,11,12)           129.0878         estimate D2E/DX2                !
 ! A42   A(10,11,26)           116.8342         estimate D2E/DX2                !
 ! A43   A(12,11,26)           113.9963         estimate D2E/DX2                !
 ! A44   A(4,12,11)            121.4062         estimate D2E/DX2                !
 ! A45   A(4,12,27)            105.9678         estimate D2E/DX2                !
 ! A46   A(4,12,28)            108.8386         estimate D2E/DX2                !
 ! A47   A(11,12,27)           103.9308         estimate D2E/DX2                !
 ! A48   A(11,12,28)           108.9641         estimate D2E/DX2                !
 ! A49   A(27,12,28)           106.7296         estimate D2E/DX2                !
 ! D1    D(13,1,2,3)          -179.2358         estimate D2E/DX2                !
 ! D2    D(13,1,2,15)           -0.0734         estimate D2E/DX2                !
 ! D3    D(14,1,2,3)             0.4648         estimate D2E/DX2                !
 ! D4    D(14,1,2,15)          179.6272         estimate D2E/DX2                !
 ! D5    D(1,2,3,4)            178.5999         estimate D2E/DX2                !
 ! D6    D(1,2,3,16)            57.0206         estimate D2E/DX2                !
 ! D7    D(1,2,3,17)           -60.0055         estimate D2E/DX2                !
 ! D8    D(15,2,3,4)            -0.5689         estimate D2E/DX2                !
 ! D9    D(15,2,3,16)         -122.1482         estimate D2E/DX2                !
 ! D10   D(15,2,3,17)          120.8257         estimate D2E/DX2                !
 ! D11   D(2,3,4,5)            -84.9773         estimate D2E/DX2                !
 ! D12   D(2,3,4,12)            93.1243         estimate D2E/DX2                !
 ! D13   D(16,3,4,5)            36.6014         estimate D2E/DX2                !
 ! D14   D(16,3,4,12)         -145.297          estimate D2E/DX2                !
 ! D15   D(17,3,4,5)           153.4292         estimate D2E/DX2                !
 ! D16   D(17,3,4,12)          -28.4692         estimate D2E/DX2                !
 ! D17   D(3,4,5,6)            178.468          estimate D2E/DX2                !
 ! D18   D(3,4,5,18)            -2.2042         estimate D2E/DX2                !
 ! D19   D(12,4,5,6)             0.802          estimate D2E/DX2                !
 ! D20   D(12,4,5,18)         -179.8703         estimate D2E/DX2                !
 ! D21   D(3,4,12,11)         -169.9416         estimate D2E/DX2                !
 ! D22   D(3,4,12,27)          -52.0308         estimate D2E/DX2                !
 ! D23   D(3,4,12,28)           62.4242         estimate D2E/DX2                !
 ! D24   D(5,4,12,11)            7.8268         estimate D2E/DX2                !
 ! D25   D(5,4,12,27)          125.7376         estimate D2E/DX2                !
 ! D26   D(5,4,12,28)         -119.8074         estimate D2E/DX2                !
 ! D27   D(4,5,6,7)             30.7792         estimate D2E/DX2                !
 ! D28   D(4,5,6,19)           -94.5829         estimate D2E/DX2                !
 ! D29   D(4,5,6,20)           150.9436         estimate D2E/DX2                !
 ! D30   D(18,5,6,7)          -148.5743         estimate D2E/DX2                !
 ! D31   D(18,5,6,19)           86.0637         estimate D2E/DX2                !
 ! D32   D(18,5,6,20)          -28.4099         estimate D2E/DX2                !
 ! D33   D(5,6,7,8)             53.8238         estimate D2E/DX2                !
 ! D34   D(5,6,7,10)           -69.4955         estimate D2E/DX2                !
 ! D35   D(5,6,7,21)           170.3144         estimate D2E/DX2                !
 ! D36   D(19,6,7,8)           177.8161         estimate D2E/DX2                !
 ! D37   D(19,6,7,10)           54.4967         estimate D2E/DX2                !
 ! D38   D(19,6,7,21)          -65.6934         estimate D2E/DX2                !
 ! D39   D(20,6,7,8)           -65.6883         estimate D2E/DX2                !
 ! D40   D(20,6,7,10)          170.9923         estimate D2E/DX2                !
 ! D41   D(20,6,7,21)           50.8022         estimate D2E/DX2                !
 ! D42   D(6,7,8,9)            179.4409         estimate D2E/DX2                !
 ! D43   D(10,7,8,9)           -55.6604         estimate D2E/DX2                !
 ! D44   D(21,7,8,9)            62.7599         estimate D2E/DX2                !
 ! D45   D(6,7,10,11)           65.4716         estimate D2E/DX2                !
 ! D46   D(6,7,10,25)         -125.1323         estimate D2E/DX2                !
 ! D47   D(8,7,10,11)          -57.2137         estimate D2E/DX2                !
 ! D48   D(8,7,10,25)          112.1823         estimate D2E/DX2                !
 ! D49   D(21,7,10,11)        -174.875          estimate D2E/DX2                !
 ! D50   D(21,7,10,25)          -5.479          estimate D2E/DX2                !
 ! D51   D(7,8,9,22)           179.1075         estimate D2E/DX2                !
 ! D52   D(7,8,9,23)            61.3753         estimate D2E/DX2                !
 ! D53   D(7,8,9,24)           -61.0527         estimate D2E/DX2                !
 ! D54   D(7,10,11,12)         -13.9088         estimate D2E/DX2                !
 ! D55   D(7,10,11,26)         162.5757         estimate D2E/DX2                !
 ! D56   D(25,10,11,12)        176.9533         estimate D2E/DX2                !
 ! D57   D(25,10,11,26)         -6.5621         estimate D2E/DX2                !
 ! D58   D(10,11,12,4)         -20.312          estimate D2E/DX2                !
 ! D59   D(10,11,12,27)       -139.2283         estimate D2E/DX2                !
 ! D60   D(10,11,12,28)        107.2664         estimate D2E/DX2                !
 ! D61   D(26,11,12,4)         163.1216         estimate D2E/DX2                !
 ! D62   D(26,11,12,27)         44.2053         estimate D2E/DX2                !
 ! D63   D(26,11,12,28)        -69.3            estimate D2E/DX2                !
 --------------------------------------------------------------------------------
 Trust Radius=3.00D-01 FncErr=1.00D-07 GrdErr=1.00D-06 EigMax=2.50D+02 EigMin=1.00D-04
 Number of steps in this run=    150 maximum allowed number of steps=    168.
 GradGradGradGradGradGradGradGradGradGradGradGradGradGradGradGradGradGrad

                          Input orientation:                          
 ---------------------------------------------------------------------
 Center     Atomic      Atomic             Coordinates (Angstroms)
 Number     Number       Type             X           Y           Z
 ---------------------------------------------------------------------
      1          6           0        1.031760    0.011010    0.020940
      2          6           0        2.369600    0.011770    0.067710
      3          6           0        3.125640   -0.005990    1.364780
      4          6           0        4.617510   -0.035390    1.112610
      5          6           0        5.186040   -1.238640    0.903830
      6          6           0        6.614940   -1.567880    0.602210
      7          6           0        7.652230   -0.619930    1.201610
      8          8           0        7.433250   -0.513300    2.620930
      9          6           0        8.359960    0.341110    3.277250
     10          6           0        7.641370    0.736470    0.569350
     11          6           0        6.615460    1.602070    0.650600
     12          6           0        5.211240    1.358850    1.097660
     13          1           0        0.509550    0.011630   -0.928150
     14          1           0        0.448480    0.004880    0.934880
     15          1           0        2.935010    0.011810   -0.862990
     16          1           0        2.829590   -0.880250    1.957940
     17          1           0        2.868860    0.877750    1.961600
     18          1           0        4.546620   -2.121490    0.965090
     19          1           0        6.730840   -1.640750   -0.486650
     20          1           0        6.800870   -2.572560    1.005040
     21          1           0        8.641760   -1.069340    1.053710
     22          1           0        8.108270    0.372860    4.339360
     23          1           0        8.301910    1.368710    2.904300
     24          1           0        9.374190   -0.043520    3.152050
     25          1           0        8.587720    1.085170    0.170830
     26          1           0        6.829440    2.640990    0.410180
     27          1           0        4.603610    1.938670    0.388620
     28          1           0        5.067050    1.815880    2.084510
 ---------------------------------------------------------------------
                    Distance matrix (angstroms):
                    1          2          3          4          5
     1  C    0.000000
     2  C    1.338657   0.000000
     3  C    2.488077   1.501433   0.000000
     4  C    3.748533   2.479343   1.513318   0.000000
     5  C    4.427094   3.192954   2.444821   1.347081   0.000000
     6  C    5.831181   4.561129   3.898234   2.568805   1.497040
     7  C    6.754457   5.439757   4.570948   3.091785   2.559994
     8  O    6.929208   5.695189   4.515615   3.229833   2.919675
     9  C    8.025898   6.803971   5.583559   4.339741   4.266439
    10  C    6.671881   5.344941   4.644973   3.167748   3.168845
    11  C    5.840004   4.571230   3.908293   2.624220   3.190141
    12  C    4.521510   3.309130   2.506765   1.515468   2.604834
    13  H    1.083271   2.109863   3.478759   4.587183   5.175798
    14  H    1.084223   2.107779   2.711479   4.173011   4.898141
    15  H    2.098498   1.088986   2.235982   2.595386   3.122886
    16  H    2.788997   2.140154   1.097185   2.150588   2.606233
    17  H    2.809330   2.141495   1.096871   2.147647   3.311692
    18  H    4.218201   3.177342   2.579588   2.092511   1.091803
    19  H    5.955289   4.696653   4.370092   3.098544   2.116963
    20  H    6.397337   5.214739   4.497111   3.349009   2.096965
    21  H    7.755377   6.440573   5.626283   4.155371   3.463109
    22  H    8.297993   7.163080   5.815347   4.771162   4.789491
    23  H    7.938022   6.714152   5.572584   4.330872   4.528664
    24  H    8.910834   7.653789   6.499240   5.175460   4.901368
    25  H    7.633401   6.310930   5.696531   4.231450   4.184353
    26  H    6.378197   5.188473   4.651440   3.542464   4.242167
    27  H    4.075435   2.967613   2.630397   2.102681   3.271080
    28  H    4.878467   3.820802   2.757951   2.138662   3.276928
                    6          7          8          9         10
     6  C    0.000000
     7  C    1.527698   0.000000
     8  O    2.420124   1.440066   0.000000
     9  C    3.720911   2.394318   1.421114   0.000000
    10  C    2.522829   1.496560   2.411269   2.829382   0.000000
    11  C    3.170319   2.513123   3.004292   3.395967   1.344751
    12  C    3.283534   3.144011   3.280644   3.962429   2.563591
    13  H    6.489425   7.480149   7.798022   8.911952   7.323302
    14  H    6.372556   7.235713   7.204047   8.257800   7.239234
    15  H    4.264284   5.187854   5.713808   6.832284   4.972580
    16  H    4.079180   4.888523   4.665608   5.815264   5.262622
    17  H    4.675699   5.069641   4.816990   5.671957   4.973447
    18  H    2.171661   3.457664   3.696040   5.094315   4.231078
    19  H    1.097433   2.177442   3.379582   4.555079   2.755971
    20  H    1.098282   2.139210   2.692871   4.010383   3.441794
    21  H    2.135508   1.096820   2.055689   2.648190   2.120456
    22  H    4.467975   3.322511   2.047909   1.091986   3.816174
    23  H    4.095003   2.697393   2.092088   1.094725   2.507595
    24  H    4.054481   2.664885   2.066405   1.091915   3.206460
    25  H    3.334160   2.201139   3.144980   3.202397   1.084430
    26  H    4.218705   3.454988   3.898916   3.981461   2.076478
    27  H    4.048081   4.062200   4.359154   5.000655   3.271992
    28  H    4.005372   3.660033   3.363291   3.800109   3.176155
                   11         12         13         14         15
    11  C    0.000000
    12  C    1.493604   0.000000
    13  H    6.504159   5.293845   0.000000
    14  H    6.376792   4.954151   1.864043   0.000000
    15  H    4.285510   3.292399   2.426335   3.068422   0.000000
    16  H    4.712097   3.380223   3.808878   2.738575   2.960495
    17  H    4.034894   2.542557   3.829773   2.770252   2.955087
    18  H    4.271288   3.545710   4.942924   4.617046   3.238847
    19  H    3.438391   3.717099   6.452111   6.648074   4.157032
    20  H    4.193750   4.241637   7.070783   6.855726   5.011325
    21  H    3.377102   4.203154   8.439734   8.264255   6.116340
    22  H    4.164900   4.457979   9.252983   8.390368   7.345572
    23  H    2.824488   3.579984   8.789210   8.210664   6.696064
    24  H    4.071340   4.849465   9.758735   9.197091   7.588587
    25  H    2.094558   3.512055   8.222960   8.246092   5.845855
    26  H    1.087632   2.176025   6.974645   6.923947   4.868278
    27  H    2.056568   1.099156   4.712610   4.615523   2.839638
    28  H    2.121176   1.097060   5.753455   5.092402   4.060544
                   16         17         18         19         20
    16  H    0.000000
    17  H    1.758442   0.000000
    18  H    2.339791   3.578177   0.000000
    19  H    4.666276   5.220312   2.666360   0.000000
    20  H    4.420746   5.317927   2.299283   1.760203   0.000000
    21  H    5.885126   6.159691   4.229071   2.520086   2.377165
    22  H    5.925024   5.775818   5.503892   5.407616   4.637077
    23  H    5.991636   5.536042   5.481262   4.798297   4.625356
    24  H    6.705058   6.677217   5.692643   4.772691   4.198532
    25  H    6.341348   5.996269   5.219579   3.363172   4.155446
    26  H    5.549188   4.604575   5.310406   4.375765   5.247454
    27  H    3.681878   2.570832   4.101276   4.254815   5.055603
    28  H    3.505904   2.393164   4.126358   4.618155   4.840433
                   21         22         23         24         25
    21  H    0.000000
    22  H    3.627678   0.000000
    23  H    3.079654   1.757444   0.000000
    24  H    2.447814   1.784834   1.790407   0.000000
    25  H    2.329015   4.256043   2.762959   3.283314   0.000000
    26  H    4.179137   4.713627   3.163463   4.604367   2.359960
    27  H    5.079087   5.508425   4.508982   5.858674   4.080322
    28  H    4.708035   4.051626   3.366948   4.811285   4.073233
                   26         27         28
    26  H    0.000000
    27  H    2.334103   0.000000
    28  H    2.567140   1.762356   0.000000
 Stoichiometry    C11H16O
 Framework group  C1[X(C11H16O)]
 Deg. of freedom    78
 Full point group                 C1      NOp   1
 Largest Abelian subgroup         C1      NOp   1
 Largest concise Abelian subgroup C1      NOp   1
                         Standard orientation:                         
 ---------------------------------------------------------------------
 Center     Atomic      Atomic             Coordinates (Angstroms)
 Number     Number       Type             X           Y           Z
 ---------------------------------------------------------------------
      1          6           0       -4.635822    0.019829    0.109242
      2          6           0       -3.335213    0.005340   -0.207316
      3          6           0       -2.256588    0.015440    0.837083
      4          6           0       -0.888679   -0.039684    0.192166
      5          6           0       -0.402849   -1.255389   -0.125099
      6          6           0        0.889809   -1.610845   -0.791294
      7          6           0        2.054516   -0.659019   -0.524187
      8          8           0        2.228064   -0.508989    0.897489
      9          6           0        3.301320    0.352348    1.252151
     10          6           0        1.878704    0.678706   -1.171701
     11          6           0        0.916641    1.558938   -0.843091
     12          6           0       -0.315308    1.346082   -0.025872
     13          1           0       -5.395281   -0.000315   -0.662957
     14          1           0       -4.950163    0.047166    1.146538
     15          1           0       -3.042635   -0.028344   -1.255721
     16          1           0       -2.384805   -0.837697    1.514971
     17          1           0       -2.338665    0.919062    1.453409
     18          1           0       -1.005544   -2.128119    0.134004
     19          1           0        0.706553   -1.716368   -1.868160
     20          1           0        1.173573   -2.605778   -0.422769
     21          1           0        2.965265   -1.124725   -0.919998
     22          1           0        3.346442    0.417687    2.341246
     23          1           0        3.148846    1.369461    0.877111
     24          1           0        4.242259   -0.048265    0.869502
     25          1           0        2.683426    1.004062   -1.821743
     26          1           0        1.061950    2.587796   -1.164464
     27          1           0       -1.089650    1.912804   -0.561936
     28          1           0       -0.185274    1.833000    0.948572
 ---------------------------------------------------------------------
 Rotational constants (GHZ):           1.9894275           0.4927255           0.4701399
 Standard basis: 6-31G(2df,p) (6D, 7F)
 There are   452 symmetry adapted cartesian basis functions of A   symmetry.
 There are   416 symmetry adapted basis functions of A   symmetry.
   416 basis functions,   640 primitive gaussians,   452 cartesian basis functions
    45 alpha electrons       45 beta electrons
       nuclear repulsion energy       699.5836124516 Hartrees.
 NAtoms=   28 NActive=   28 NUniq=   28 SFac= 1.00D+00 NAtFMM=   60 NAOKFM=F Big=F
 Integral buffers will be    131072 words long.
 Raffenetti 2 integral format.
 Two-electron integral symmetry is turned on.
 One-electron integrals computed using PRISM.
 PrsmSu:  requested number of processors reduced to:  13 ShMem   1 Linda.
 NBasis=   416 RedAO= T EigKep=  4.25D-04  NBF=   416
 NBsUse=   416 1.00D-06 EigRej= -1.00D+00 NBFU=   416
 ExpMin= 1.61D-01 ExpMax= 5.48D+03 ExpMxC= 8.25D+02 IAcc=3 IRadAn=         5 AccDes= 0.00D+00
 Harris functional with IExCor=  402 and IRadAn=       5 diagonalized for initial guess.
 HarFok:  IExCor=  402 AccDes= 0.00D+00 IRadAn=         5 IDoV= 1 UseB2=F ITyADJ=14
 ICtDFT=  3500011 ScaDFX=  1.000000  1.000000  1.000000  1.000000
 FoFCou: FMM=F IPFlag=           0 FMFlag=      100000 FMFlg1=           0
         NFxFlg=           0 DoJE=T BraDBF=F KetDBF=T FulRan=T
         wScrn=  0.000000 ICntrl=       500 IOpCl=  0 I1Cent=   200000004 NGrid=           0
         NMat0=    1 NMatS0=      1 NMatT0=    0 NMatD0=    1 NMtDS0=    0 NMtDT0=    0
 Petite list used in FoFCou.
 Requested convergence on RMS density matrix=1.00D-08 within 128 cycles.
 Requested convergence on MAX density matrix=1.00D-06.
 Requested convergence on             energy=1.00D-06.
 No special actions if energy rises.
 Integral accuracy reduced to 1.0D-05 until final iterations.
 Initial convergence to 1.0D-05 achieved.  Increase integral accuracy.
 SCF Done:  E(RB3LYP) =  -503.969325218     A.U. after   13 cycles
            NFock= 13  Conv=0.10D-07     -V/T= 2.0082

 **********************************************************************

            Population analysis using the SCF density.

 **********************************************************************

 Orbital symmetries:
       Occupied  (A) (A) (A) (A) (A) (A) (A) (A) (A) (A) (A) (A)
                 (A) (A) (A) (A) (A) (A) (A) (A) (A) (A) (A) (A)
                 (A) (A) (A) (A) (A) (A) (A) (A) (A) (A) (A) (A)
                 (A) (A) (A) (A) (A) (A) (A) (A) (A)
       Virtual   (A) (A) (A) (A) (A) (A) (A) (A) (A) (A) (A) (A)
                 (A) (A) (A) (A) (A) (A) (A) (A) (A) (A) (A) (A)
                 (A) (A) (A) (A) (A) (A) (A) (A) (A) (A) (A) (A)
                 (A) (A) (A) (A) (A) (A) (A) (A) (A) (A) (A) (A)
                 (A) (A) (A) (A) (A) (A) (A) (A) (A) (A) (A) (A)
                 (A) (A) (A) (A) (A) (A) (A) (A) (A) (A) (A) (A)
                 (A) (A) (A) (A) (A) (A) (A) (A) (A) (A) (A) (A)
                 (A) (A) (A) (A) (A) (A) (A) (A) (A) (A) (A) (A)
                 (A) (A) (A) (A) (A) (A) (A) (A) (A) (A) (A) (A)
                 (A) (A) (A) (A) (A) (A) (A) (A) (A) (A) (A) (A)
                 (A) (A) (A) (A) (A) (A) (A) (A) (A) (A) (A) (A)
                 (A) (A) (A) (A) (A) (A) (A) (A) (A) (A) (A) (A)
                 (A) (A) (A) (A) (A) (A) (A) (A) (A) (A) (A) (A)
                 (A) (A) (A) (A) (A) (A) (A) (A) (A) (A) (A) (A)
                 (A) (A) (A) (A) (A) (A) (A) (A) (A) (A) (A) (A)
                 (A) (A) (A) (A) (A) (A) (A) (A) (A) (A) (A) (A)
                 (A) (A) (A) (A) (A) (A) (A) (A) (A) (A) (A) (A)
                 (A) (A) (A) (A) (A) (A) (A) (A) (A) (A) (A) (A)
                 (A) (A) (A) (A) (A) (A) (A) (A) (A) (A) (A) (A)
                 (A) (A) (A) (A) (A) (A) (A) (A) (A) (A) (A) (A)
                 (A) (A) (A) (A) (A) (A) (A) (A) (A) (A) (A) (A)
                 (A) (A) (A) (A) (A) (A) (A) (A) (A) (A) (A) (A)
                 (A) (A) (A) (A) (A) (A) (A) (A) (A) (A) (A) (A)
                 (A) (A) (A) (A) (A) (A) (A) (A) (A) (A) (A) (A)
                 (A) (A) (A) (A) (A) (A) (A) (A) (A) (A) (A) (A)
                 (A) (A) (A) (A) (A) (A) (A) (A) (A) (A) (A) (A)
                 (A) (A) (A) (A) (A) (A) (A) (A) (A) (A) (A) (A)
                 (A) (A) (A) (A) (A) (A) (A) (A) (A) (A) (A) (A)
                 (A) (A) (A) (A) (A) (A) (A) (A) (A) (A) (A) (A)
                 (A) (A) (A) (A) (A) (A) (A) (A) (A) (A) (A) (A)
                 (A) (A) (A) (A) (A) (A) (A) (A) (A) (A) (A)
 The electronic state is 1-A.
 Alpha  occ. eigenvalues --  -19.12965 -10.22797 -10.21344 -10.19034 -10.18530
 Alpha  occ. eigenvalues --  -10.18077 -10.18045 -10.17914 -10.17787 -10.17391
 Alpha  occ. eigenvalues --  -10.16997 -10.16727  -1.01569  -0.83034  -0.79158
 Alpha  occ. eigenvalues --   -0.76567  -0.74898  -0.68414  -0.67978  -0.64227
 Alpha  occ. eigenvalues --   -0.61407  -0.55027  -0.52996  -0.50584  -0.49746
 Alpha  occ. eigenvalues --   -0.47473  -0.45119  -0.44408  -0.43724  -0.43077
 Alpha  occ. eigenvalues --   -0.42269  -0.41096  -0.40585  -0.38982  -0.37700
 Alpha  occ. eigenvalues --   -0.36313  -0.35923  -0.34456  -0.33952  -0.31090
 Alpha  occ. eigenvalues --   -0.29550  -0.24925  -0.24613  -0.24425  -0.22263
 Alpha virt. eigenvalues --    0.00494   0.01951   0.03094   0.07915   0.11617
 Alpha virt. eigenvalues --    0.11784   0.12674   0.13259   0.13515   0.14295
 Alpha virt. eigenvalues --    0.16073   0.16271   0.16900   0.17510   0.18032
 Alpha virt. eigenvalues --    0.18967   0.19079   0.20183   0.20965   0.21426
 Alpha virt. eigenvalues --    0.23060   0.24307   0.24583   0.26768   0.27901
 Alpha virt. eigenvalues --    0.29196   0.31030   0.34021   0.34192   0.39113
 Alpha virt. eigenvalues --    0.42101   0.44138   0.45316   0.46318   0.46879
 Alpha virt. eigenvalues --    0.47327   0.48615   0.49507   0.49918   0.51374
 Alpha virt. eigenvalues --    0.51765   0.52538   0.53006   0.54719   0.55797
 Alpha virt. eigenvalues --    0.56277   0.57050   0.58380   0.59708   0.60036
 Alpha virt. eigenvalues --    0.62667   0.63607   0.64377   0.65762   0.66759
 Alpha virt. eigenvalues --    0.68094   0.69179   0.69939   0.72142   0.72642
 Alpha virt. eigenvalues --    0.73055   0.73481   0.74217   0.75130   0.75711
 Alpha virt. eigenvalues --    0.76834   0.77682   0.77709   0.78547   0.79270
 Alpha virt. eigenvalues --    0.80344   0.80619   0.81578   0.81966   0.82460
 Alpha virt. eigenvalues --    0.82596   0.84558   0.85774   0.86583   0.87336
 Alpha virt. eigenvalues --    0.88939   0.89218   0.90113   0.91824   0.92838
 Alpha virt. eigenvalues --    0.94722   0.96883   0.99338   1.00318   1.02670
 Alpha virt. eigenvalues --    1.03822   1.06072   1.06884   1.07418   1.10466
 Alpha virt. eigenvalues --    1.12195   1.13895   1.16275   1.17960   1.21074
 Alpha virt. eigenvalues --    1.22861   1.24202   1.26044   1.28948   1.31011
 Alpha virt. eigenvalues --    1.32063   1.33601   1.34262   1.36065   1.37363
 Alpha virt. eigenvalues --    1.38140   1.39487   1.40300   1.41258   1.41949
 Alpha virt. eigenvalues --    1.43365   1.47118   1.47523   1.48589   1.49359
 Alpha virt. eigenvalues --    1.51239   1.53160   1.55206   1.57501   1.59006
 Alpha virt. eigenvalues --    1.60982   1.63804   1.66209   1.67805   1.68162
 Alpha virt. eigenvalues --    1.69817   1.70934   1.71905   1.73526   1.76202
 Alpha virt. eigenvalues --    1.77321   1.78515   1.79968   1.82050   1.83559
 Alpha virt. eigenvalues --    1.86729   1.88382   1.89459   1.91912   1.93907
 Alpha virt. eigenvalues --    1.94571   1.95557   1.97457   1.98507   2.01579
 Alpha virt. eigenvalues --    2.03402   2.04195   2.06341   2.10248   2.17107
 Alpha virt. eigenvalues --    2.17639   2.18836   2.19601   2.20753   2.22295
 Alpha virt. eigenvalues --    2.23692   2.27150   2.29178   2.31456   2.33401
 Alpha virt. eigenvalues --    2.34389   2.35721   2.39849   2.40920   2.42291
 Alpha virt. eigenvalues --    2.45105   2.47969   2.49172   2.49563   2.50321
 Alpha virt. eigenvalues --    2.53854   2.54185   2.57284   2.61993   2.66299
 Alpha virt. eigenvalues --    2.68763   2.71215   2.71856   2.74898   2.76752
 Alpha virt. eigenvalues --    2.77117   2.78033   2.78460   2.80272   2.80525
 Alpha virt. eigenvalues --    2.81515   2.82871   2.83924   2.85925   2.87292
 Alpha virt. eigenvalues --    2.88489   2.89159   2.91131   2.92175   2.93392
 Alpha virt. eigenvalues --    2.94609   2.95392   2.96447   2.98326   2.98941
 Alpha virt. eigenvalues --    3.00460   3.02267   3.05931   3.08033   3.10836
 Alpha virt. eigenvalues --    3.11696   3.12070   3.14431   3.15924   3.17583
 Alpha virt. eigenvalues --    3.19665   3.20443   3.22251   3.23422   3.25184
 Alpha virt. eigenvalues --    3.25920   3.27698   3.28562   3.29935   3.30825
 Alpha virt. eigenvalues --    3.31404   3.32032   3.33011   3.35023   3.37400
 Alpha virt. eigenvalues --    3.38115   3.40502   3.41232   3.42674   3.44239
 Alpha virt. eigenvalues --    3.46228   3.46567   3.48097   3.49312   3.51896
 Alpha virt. eigenvalues --    3.52415   3.54048   3.55008   3.57196   3.59906
 Alpha virt. eigenvalues --    3.60770   3.63274   3.64707   3.65831   3.67375
 Alpha virt. eigenvalues --    3.68177   3.69051   3.71802   3.72136   3.74170
 Alpha virt. eigenvalues --    3.75560   3.77931   3.78870   3.82624   3.84113
 Alpha virt. eigenvalues --    3.85206   3.87550   3.90962   3.92841   3.97503
 Alpha virt. eigenvalues --    3.99592   4.01741   4.02571   4.04600   4.09175
 Alpha virt. eigenvalues --    4.15095   4.15359   4.20049   4.21942   4.24159
 Alpha virt. eigenvalues --    4.26018   4.26728   4.30667   4.31755   4.33469
 Alpha virt. eigenvalues --    4.38962   4.40049   4.41917   4.42679   4.43187
 Alpha virt. eigenvalues --    4.44595   4.45389   4.46527   4.48307   4.49908
 Alpha virt. eigenvalues --    4.52977   4.53109   4.54198   4.55586   4.57257
 Alpha virt. eigenvalues --    4.57419   4.59370   4.60555   4.62508   4.63574
 Alpha virt. eigenvalues --    4.64671   4.65359   4.67702   4.68377   4.70774
 Alpha virt. eigenvalues --    4.72329   4.73161   4.74592   4.75246   4.76615
 Alpha virt. eigenvalues --    4.78392   4.79439   4.80020   4.82046   4.83077
 Alpha virt. eigenvalues --    4.84432   4.86570   4.88362   4.88543   4.91904
 Alpha virt. eigenvalues --    4.93481   4.94891   4.97421   4.99150   5.01626
 Alpha virt. eigenvalues --    5.02762   5.08411   5.09315   5.12237   5.13768
 Alpha virt. eigenvalues --    5.21076   5.23771   5.26703   5.30256   5.35684
 Alpha virt. eigenvalues --    5.36850   5.38182   5.41440   5.45000   5.45512
 Alpha virt. eigenvalues --    5.48108   5.50969   5.52926   5.60921   5.61276
 Alpha virt. eigenvalues --    5.66719   5.71529   5.74381   5.79829   5.86952
 Alpha virt. eigenvalues --    5.87758   5.90755   6.03197   6.08688   6.20041
 Alpha virt. eigenvalues --    6.21484   6.33415   6.90957   7.21081  10.28912
 Alpha virt. eigenvalues --   10.52178  10.79012  11.23054  11.42682  11.48463
 Alpha virt. eigenvalues --   11.85350  12.12742  12.29080  12.45164  12.59915
 Alpha virt. eigenvalues --   13.59549
          Condensed to atoms (all electrons):
               1          2          3          4          5          6
     1  C    5.044201   0.646751  -0.023700   0.001927   0.000794   0.000002
     2  C    0.646751   4.635456   0.406603  -0.024238  -0.007384  -0.000033
     3  C   -0.023700   0.406603   5.058085   0.374681  -0.037443   0.006951
     4  C    0.001927  -0.024238   0.374681   4.436675   0.702685   0.005292
     5  C    0.000794  -0.007384  -0.037443   0.702685   4.848714   0.352136
     6  C    0.000002  -0.000033   0.006951   0.005292   0.352136   4.999091
     7  C   -0.000000   0.000004  -0.000393  -0.004349  -0.012009   0.381945
     8  O    0.000000   0.000000  -0.000047  -0.000405   0.002324  -0.026552
     9  C   -0.000000  -0.000000   0.000006  -0.000171   0.000450   0.005240
    10  C    0.000000  -0.000012   0.000434  -0.006892  -0.014027  -0.004470
    11  C   -0.000004  -0.000008   0.003937  -0.007614  -0.008607  -0.011776
    12  C   -0.000038  -0.000908  -0.062812   0.375978  -0.019826  -0.017799
    13  H    0.358582  -0.007101   0.005020  -0.000150  -0.000011  -0.000000
    14  H    0.360252  -0.016046  -0.016038   0.000526   0.000008   0.000000
    15  H   -0.046833   0.378187  -0.070574   0.002597   0.003590  -0.000138
    16  H   -0.007726  -0.025588   0.344471  -0.015062  -0.006010  -0.000022
    17  H   -0.005273  -0.031176   0.347472  -0.026490   0.003569  -0.000227
    18  H   -0.000086   0.001609  -0.022137  -0.032244   0.358443  -0.064788
    19  H   -0.000002   0.000017  -0.000037  -0.006108  -0.023966   0.352961
    20  H    0.000000  -0.000002  -0.000182   0.002215  -0.026517   0.343307
    21  H   -0.000000   0.000000   0.000002   0.000309   0.005080  -0.040772
    22  H   -0.000000   0.000000  -0.000000   0.000007   0.000010  -0.000229
    23  H   -0.000000  -0.000000  -0.000000   0.000081  -0.000069   0.000352
    24  H    0.000000   0.000000  -0.000000   0.000001   0.000036  -0.000101
    25  H    0.000000   0.000000   0.000001  -0.000288   0.000178   0.004579
    26  H   -0.000000   0.000001  -0.000216   0.003850   0.000103  -0.000165
    27  H   -0.000359   0.003672  -0.002162  -0.035828   0.000974  -0.000091
    28  H    0.000036  -0.000032  -0.004636  -0.015942   0.000058   0.000158
               7          8          9         10         11         12
     1  C   -0.000000   0.000000  -0.000000   0.000000  -0.000004  -0.000038
     2  C    0.000004   0.000000  -0.000000  -0.000012  -0.000008  -0.000908
     3  C   -0.000393  -0.000047   0.000006   0.000434   0.003937  -0.062812
     4  C   -0.004349  -0.000405  -0.000171  -0.006892  -0.007614   0.375978
     5  C   -0.012009   0.002324   0.000450  -0.014027  -0.008607  -0.019826
     6  C    0.381945  -0.026552   0.005240  -0.004470  -0.011776  -0.017799
     7  C    4.699227   0.358840  -0.083021   0.335656   0.002687  -0.017514
     8  O    0.358840   7.728386   0.374945  -0.059492  -0.004806   0.004627
     9  C   -0.083021   0.374945   4.837714  -0.011499  -0.005507   0.000593
    10  C    0.335656  -0.059492  -0.011499   4.916921   0.689138  -0.004985
    11  C    0.002687  -0.004806  -0.005507   0.689138   4.734096   0.357409
    12  C   -0.017514   0.004627   0.000593  -0.004985   0.357409   5.080044
    13  H    0.000000  -0.000000   0.000000  -0.000000  -0.000000   0.000001
    14  H    0.000000  -0.000000  -0.000000  -0.000000   0.000000  -0.000012
    15  H    0.000004  -0.000000  -0.000000  -0.000002  -0.000042   0.000248
    16  H    0.000019   0.000002   0.000000  -0.000001  -0.000204   0.003269
    17  H    0.000016   0.000001  -0.000001  -0.000013   0.000370  -0.006179
    18  H    0.003282   0.000056   0.000011   0.000121  -0.000444   0.008962
    19  H   -0.021430   0.001665  -0.000171  -0.002829   0.000105   0.000730
    20  H   -0.019045   0.000433  -0.000259   0.004431   0.000554  -0.000447
    21  H    0.350335  -0.037815  -0.004416  -0.060931   0.006637   0.000185
    22  H    0.005066  -0.019634   0.383400   0.000184   0.000175  -0.000010
    23  H   -0.008748  -0.035127   0.361245   0.021002   0.005184  -0.000165
    24  H   -0.007148  -0.034213   0.368902  -0.002534   0.000634   0.000032
    25  H   -0.053548   0.002537   0.000190   0.361636  -0.042802   0.007722
    26  H    0.005810  -0.000062  -0.000136  -0.044008   0.365308  -0.055621
    27  H    0.000250   0.000057  -0.000004   0.001191  -0.032185   0.351664
    28  H    0.000836   0.000673   0.000369  -0.003584  -0.022818   0.334747
              13         14         15         16         17         18
     1  C    0.358582   0.360252  -0.046833  -0.007726  -0.005273  -0.000086
     2  C   -0.007101  -0.016046   0.378187  -0.025588  -0.031176   0.001609
     3  C    0.005020  -0.016038  -0.070574   0.344471   0.347472  -0.022137
     4  C   -0.000150   0.000526   0.002597  -0.015062  -0.026490  -0.032244
     5  C   -0.000011   0.000008   0.003590  -0.006010   0.003569   0.358443
     6  C   -0.000000   0.000000  -0.000138  -0.000022  -0.000227  -0.064788
     7  C    0.000000   0.000000   0.000004   0.000019   0.000016   0.003282
     8  O   -0.000000  -0.000000  -0.000000   0.000002   0.000001   0.000056
     9  C    0.000000  -0.000000  -0.000000   0.000000  -0.000001   0.000011
    10  C   -0.000000  -0.000000  -0.000002  -0.000001  -0.000013   0.000121
    11  C   -0.000000   0.000000  -0.000042  -0.000204   0.000370  -0.000444
    12  C    0.000001  -0.000012   0.000248   0.003269  -0.006179   0.008962
    13  H    0.592653  -0.045769  -0.008882  -0.000096  -0.000121   0.000005
    14  H   -0.045769   0.605860   0.006979   0.002313   0.002295   0.000005
    15  H   -0.008882   0.006979   0.631270   0.004364   0.004468   0.000515
    16  H   -0.000096   0.002313   0.004364   0.610444  -0.035157   0.006192
    17  H   -0.000121   0.002295   0.004468  -0.035157   0.636058   0.000155
    18  H    0.000005   0.000005   0.000515   0.006192   0.000155   0.670225
    19  H    0.000000  -0.000000  -0.000016  -0.000016  -0.000001   0.003271
    20  H   -0.000000   0.000000   0.000005  -0.000004   0.000006  -0.008878
    21  H    0.000000   0.000000  -0.000000  -0.000000  -0.000000  -0.000240
    22  H    0.000000  -0.000000  -0.000000  -0.000000  -0.000000  -0.000000
    23  H    0.000000   0.000000   0.000000   0.000000  -0.000000  -0.000000
    24  H   -0.000000   0.000000  -0.000000   0.000000   0.000000  -0.000000
    25  H   -0.000000  -0.000000  -0.000000  -0.000000  -0.000000   0.000007
    26  H    0.000000   0.000000   0.000005   0.000002   0.000002   0.000004
    27  H    0.000011   0.000008   0.000726   0.000286  -0.000054  -0.000171
    28  H   -0.000000   0.000001   0.000083  -0.000075   0.005172  -0.000191
              19         20         21         22         23         24
     1  C   -0.000002   0.000000  -0.000000  -0.000000  -0.000000   0.000000
     2  C    0.000017  -0.000002   0.000000   0.000000  -0.000000   0.000000
     3  C   -0.000037  -0.000182   0.000002  -0.000000  -0.000000  -0.000000
     4  C   -0.006108   0.002215   0.000309   0.000007   0.000081   0.000001
     5  C   -0.023966  -0.026517   0.005080   0.000010  -0.000069   0.000036
     6  C    0.352961   0.343307  -0.040772  -0.000229   0.000352  -0.000101
     7  C   -0.021430  -0.019045   0.350335   0.005066  -0.008748  -0.007148
     8  O    0.001665   0.000433  -0.037815  -0.019634  -0.035127  -0.034213
     9  C   -0.000171  -0.000259  -0.004416   0.383400   0.361245   0.368902
    10  C   -0.002829   0.004431  -0.060931   0.000184   0.021002  -0.002534
    11  C    0.000105   0.000554   0.006637   0.000175   0.005184   0.000634
    12  C    0.000730  -0.000447   0.000185  -0.000010  -0.000165   0.000032
    13  H    0.000000  -0.000000   0.000000   0.000000   0.000000  -0.000000
    14  H   -0.000000   0.000000   0.000000  -0.000000   0.000000   0.000000
    15  H   -0.000016   0.000005  -0.000000  -0.000000   0.000000  -0.000000
    16  H   -0.000016  -0.000004  -0.000000  -0.000000   0.000000   0.000000
    17  H   -0.000001   0.000006  -0.000000  -0.000000  -0.000000   0.000000
    18  H    0.003271  -0.008878  -0.000240  -0.000000  -0.000000  -0.000000
    19  H    0.620454  -0.039258   0.000892   0.000003   0.000006   0.000001
    20  H   -0.039258   0.649438  -0.006650  -0.000010   0.000013  -0.000048
    21  H    0.000892  -0.006650   0.725379  -0.000122  -0.002152   0.013077
    22  H    0.000003  -0.000010  -0.000122   0.582932  -0.038253  -0.035140
    23  H    0.000006   0.000013  -0.002152  -0.038253   0.638515  -0.049402
    24  H    0.000001  -0.000048   0.013077  -0.035140  -0.049402   0.647524
    25  H    0.000065  -0.000316  -0.008233   0.000031  -0.001176   0.000189
    26  H   -0.000018   0.000010  -0.000267  -0.000003   0.000335  -0.000011
    27  H    0.000116  -0.000009   0.000012   0.000001  -0.000000   0.000000
    28  H   -0.000041   0.000033   0.000011  -0.000063  -0.000274   0.000002
              25         26         27         28
     1  C    0.000000  -0.000000  -0.000359   0.000036
     2  C    0.000000   0.000001   0.003672  -0.000032
     3  C    0.000001  -0.000216  -0.002162  -0.004636
     4  C   -0.000288   0.003850  -0.035828  -0.015942
     5  C    0.000178   0.000103   0.000974   0.000058
     6  C    0.004579  -0.000165  -0.000091   0.000158
     7  C   -0.053548   0.005810   0.000250   0.000836
     8  O    0.002537  -0.000062   0.000057   0.000673
     9  C    0.000190  -0.000136  -0.000004   0.000369
    10  C    0.361636  -0.044008   0.001191  -0.003584
    11  C   -0.042802   0.365308  -0.032185  -0.022818
    12  C    0.007722  -0.055621   0.351664   0.334747
    13  H   -0.000000   0.000000   0.000011  -0.000000
    14  H   -0.000000   0.000000   0.000008   0.000001
    15  H   -0.000000   0.000005   0.000726   0.000083
    16  H   -0.000000   0.000002   0.000286  -0.000075
    17  H   -0.000000   0.000002  -0.000054   0.005172
    18  H    0.000007   0.000004  -0.000171  -0.000191
    19  H    0.000065  -0.000018   0.000116  -0.000041
    20  H   -0.000316   0.000010  -0.000009   0.000033
    21  H   -0.008233  -0.000267   0.000012   0.000011
    22  H    0.000031  -0.000003   0.000001  -0.000063
    23  H   -0.001176   0.000335  -0.000000  -0.000274
    24  H    0.000189  -0.000011   0.000000   0.000002
    25  H    0.659174  -0.012752  -0.000215  -0.000227
    26  H   -0.012752   0.652645  -0.006132   0.002549
    27  H   -0.000215  -0.006132   0.638156  -0.039317
    28  H   -0.000227   0.002549  -0.039317   0.615240
 Mulliken charges:
               1
     1  C   -0.328525
     2  C    0.040225
     3  C   -0.307288
     4  C    0.268960
     5  C   -0.123281
     6  C   -0.284848
     7  C    0.083226
     8  O   -0.256394
     9  C   -0.227881
    10  C   -0.115437
    11  C   -0.029419
    12  C   -0.339896
    13  H    0.105858
    14  H    0.099619
    15  H    0.093445
    16  H    0.118598
    17  H    0.105108
    18  H    0.076318
    19  H    0.113608
    20  H    0.101180
    21  H    0.059680
    22  H    0.121655
    23  H    0.108634
    24  H    0.098202
    25  H    0.083249
    26  H    0.088767
    27  H    0.119405
    28  H    0.127232
 Sum of Mulliken charges =  -0.00000
 Mulliken charges with hydrogens summed into heavy atoms:
               1
     1  C   -0.123047
     2  C    0.133669
     3  C   -0.083582
     4  C    0.268960
     5  C   -0.046962
     6  C   -0.070060
     7  C    0.142906
     8  O   -0.256394
     9  C    0.100610
    10  C   -0.032188
    11  C    0.059347
    12  C   -0.093259
 Electronic spatial extent (au):  <R**2>=           2604.5320
 Charge=             -0.0000 electrons
 Dipole moment (field-independent basis, Debye):
    X=              0.7027    Y=              0.8447    Z=             -0.4925  Tot=              1.2041
 Quadrupole moment (field-independent basis, Debye-Ang):
   XX=            -71.1205   YY=            -71.3986   ZZ=            -72.2292
   XY=              1.1376   XZ=             -1.7260   YZ=              1.7288
 Traceless Quadrupole moment (field-independent basis, Debye-Ang):
   XX=              0.4623   YY=              0.1841   ZZ=             -0.6464
   XY=              1.1376   XZ=             -1.7260   YZ=              1.7288
 Octapole moment (field-independent basis, Debye-Ang**2):
  XXX=             31.7090  YYY=             -1.2836  ZZZ=              8.2469  XYY=              8.4615
  XXY=              1.8566  XXZ=              1.9625  XZZ=              2.0701  YZZ=              1.4134
  YYZ=              0.1623  XYZ=              3.5728
 Hexadecapole moment (field-independent basis, Debye-Ang**3):
 XXXX=          -2589.3555 YYYY=           -504.7897 ZZZZ=           -367.4597 XXXY=              2.6185
 XXXZ=             19.1691 YYYX=             -1.6575 YYYZ=             -6.3331 ZZZX=             16.3549
 ZZZY=              5.3777 XXYY=           -554.8491 XXZZ=           -469.0215 YYZZ=           -148.3344
 XXYZ=              5.3353 YYXZ=             -3.0067 ZZXY=              4.0660
 N-N= 6.995836124516D+02 E-N=-2.569250065783D+03  KE= 4.998732848056D+02
 PrsmSu:  requested number of processors reduced to:  13 ShMem   1 Linda.
 Calling FoFJK, ICntrl=      2127 FMM=F ISym2X=0 I1Cent= 0 IOpClX= 0 NMat=1 NMatS=1 NMatT=0.
 ***** Axes restored to original set *****
 -------------------------------------------------------------------
 Center     Atomic                   Forces (Hartrees/Bohr)
 Number     Number              X              Y              Z
 -------------------------------------------------------------------
      1        6           0.013329696    0.000086650   -0.004923410
      2        6          -0.024905921    0.001901164   -0.002616436
      3        6           0.007241536   -0.000392380    0.001982685
      4        6           0.004248839   -0.014859529    0.005867256
      5        6          -0.003385194    0.017996022    0.004152537
      6        6          -0.002966590   -0.008331003    0.008405442
      7        6           0.000939484   -0.000082305    0.000982822
      8        8          -0.002623376   -0.000360356   -0.001590574
      9        6          -0.007638488   -0.004468936   -0.003124301
     10        6          -0.009442863    0.016690035    0.002381539
     11        6           0.019077834   -0.009024495   -0.001147535
     12        6           0.004743991   -0.009099354   -0.007643685
     13        1          -0.003084628   -0.000007937    0.000713462
     14        1          -0.003256405   -0.000097652   -0.000507015
     15        1           0.001410802   -0.000054872    0.002371208
     16        1          -0.000075706    0.001104301   -0.000906309
     17        1          -0.001470957   -0.000440801    0.000394057
     18        1          -0.001558345    0.003909429   -0.000258846
     19        1           0.006602990    0.000931564    0.000626534
     20        1           0.001694373   -0.000037083   -0.001698503
     21        1           0.003294670   -0.000894339   -0.001732753
     22        1          -0.001259985   -0.004847042    0.000521144
     23        1           0.002173718    0.000717616   -0.001907694
     24        1           0.006750468    0.001134001    0.001094173
     25        1           0.001264705    0.003004071   -0.000156801
     26        1          -0.002298821    0.000402645   -0.006771620
     27        1          -0.005721488    0.002888161    0.004197783
     28        1          -0.003084339    0.002232427    0.001294840
 -------------------------------------------------------------------
 Cartesian Forces:  Max     0.024905921 RMS     0.006057732

 GradGradGradGradGradGradGradGradGradGradGradGradGradGradGradGradGradGrad
 Berny optimization.
 FormGI is forming the generalized inverse of G from B-inverse, IUseBI=4.
 Internal  Forces:  Max     0.013229002 RMS     0.004086828
 Search for a local minimum.
 Step number   1 out of a maximum of  150
 All quantities printed in internal units (Hartrees-Bohrs-Radians)
 Mixed Optimization -- RFO/linear search
 Second derivative matrix not updated -- first step.
 ITU=  0
     Eigenvalues ---    0.00590   0.00721   0.00747   0.00899   0.01162
     Eigenvalues ---    0.01176   0.01325   0.01412   0.01551   0.01617
     Eigenvalues ---    0.01733   0.01799   0.01933   0.02900   0.02900
     Eigenvalues ---    0.03702   0.04029   0.05109   0.05171   0.05418
     Eigenvalues ---    0.06424   0.06496   0.06677   0.07786   0.09712
     Eigenvalues ---    0.09913   0.10087   0.10344   0.10453   0.11258
     Eigenvalues ---    0.12509   0.13115   0.15046   0.15974   0.15997
     Eigenvalues ---    0.15999   0.16000   0.16000   0.16000   0.16000
     Eigenvalues ---    0.16000   0.16005   0.16860   0.19986   0.21927
     Eigenvalues ---    0.21956   0.22000   0.23539   0.24986   0.25000
     Eigenvalues ---    0.28774   0.30295   0.31019   0.31729   0.31962
     Eigenvalues ---    0.32227   0.32897   0.33776   0.33873   0.33968
     Eigenvalues ---    0.33995   0.34009   0.34031   0.34036   0.34272
     Eigenvalues ---    0.34584   0.34592   0.34605   0.34930   0.35088
     Eigenvalues ---    0.35464   0.35489   0.35602   0.39576   0.42293
     Eigenvalues ---    0.53012   0.55753   0.57507
 RFO step:  Lambda=-1.35764937D-02 EMin= 5.89781177D-03
 Linear search not attempted -- first point.
 Iteration  1 RMS(Cart)=  0.11289920 RMS(Int)=  0.00353893
 Iteration  2 RMS(Cart)=  0.00521038 RMS(Int)=  0.00037823
 Iteration  3 RMS(Cart)=  0.00001111 RMS(Int)=  0.00037812
 Iteration  4 RMS(Cart)=  0.00000000 RMS(Int)=  0.00037812
 Variable       Old X    -DE/DX   Delta X   Delta X   Delta X     New X
                                 (Linear)    (Quad)   (Total)
    R1        2.52970  -0.00682   0.00000  -0.01158  -0.01158   2.51811
    R2        2.04709   0.00086   0.00000   0.00233   0.00233   2.04942
    R3        2.04888   0.00133   0.00000   0.00360   0.00360   2.05248
    R4        2.83730   0.01262   0.00000   0.03757   0.03757   2.87487
    R5        2.05789  -0.00129   0.00000  -0.00357  -0.00357   2.05432
    R6        2.85976   0.01012   0.00000   0.03125   0.03125   2.89101
    R7        2.07338  -0.00135   0.00000  -0.00382  -0.00382   2.06956
    R8        2.07279   0.00020   0.00000   0.00058   0.00058   2.07336
    R9        2.54561  -0.01306   0.00000  -0.02429  -0.02418   2.52143
   R10        2.86382  -0.00054   0.00000  -0.00653  -0.00636   2.85746
   R11        2.82900   0.00860   0.00000   0.02691   0.02689   2.85589
   R12        2.06321  -0.00226   0.00000  -0.00629  -0.00629   2.05692
   R13        2.88693  -0.00168   0.00000  -0.00281  -0.00288   2.88405
   R14        2.07385   0.00001   0.00000   0.00004   0.00004   2.07389
   R15        2.07545  -0.00030   0.00000  -0.00086  -0.00086   2.07459
   R16        2.72133  -0.00512   0.00000  -0.01251  -0.01251   2.70882
   R17        2.82809   0.00992   0.00000   0.03441   0.03422   2.86230
   R18        2.07269   0.00357   0.00000   0.01009   0.01009   2.08278
   R19        2.68552  -0.00605   0.00000  -0.01386  -0.01386   2.67166
   R20        2.06355   0.00066   0.00000   0.00183   0.00183   2.06538
   R21        2.06873   0.00121   0.00000   0.00339   0.00339   2.07212
   R22        2.06342   0.00575   0.00000   0.01598   0.01598   2.07940
   R23        2.54121  -0.01323   0.00000  -0.02242  -0.02249   2.51872
   R24        2.04928   0.00213   0.00000   0.00578   0.00578   2.05505
   R25        2.82250   0.00895   0.00000   0.02247   0.02256   2.84506
   R26        2.05533   0.00143   0.00000   0.00392   0.00392   2.05925
   R27        2.07710   0.00198   0.00000   0.00563   0.00563   2.08273
   R28        2.07314   0.00250   0.00000   0.00707   0.00707   2.08021
    A1        2.10875   0.00210   0.00000   0.01208   0.01208   2.12084
    A2        2.10388   0.00204   0.00000   0.01176   0.01176   2.11565
    A3        2.07054  -0.00414   0.00000  -0.02385  -0.02385   2.04668
    A4        2.13343   0.00999   0.00000   0.04278   0.04278   2.17621
    A5        2.08177  -0.00249   0.00000  -0.00695  -0.00695   2.07482
    A6        2.06789  -0.00750   0.00000  -0.03584  -0.03584   2.03206
    A7        1.93124   0.01037   0.00000   0.04858   0.04849   1.97973
    A8        1.91834  -0.00251   0.00000  -0.00728  -0.00755   1.91079
    A9        1.92052  -0.00439   0.00000  -0.02305  -0.02324   1.89728
   A10        1.91836  -0.00296   0.00000  -0.00800  -0.00815   1.91021
   A11        1.91464  -0.00170   0.00000  -0.00197  -0.00182   1.91282
   A12        1.85946   0.00074   0.00000  -0.01084  -0.01108   1.84837
   A13        2.04794   0.00508   0.00000   0.02163   0.02146   2.06940
   A14        1.94980   0.00057   0.00000   0.00464   0.00452   1.95432
   A15        2.28484  -0.00569   0.00000  -0.02733  -0.02750   2.25734
   A16        2.25300   0.00477   0.00000   0.02421   0.02388   2.27689
   A17        2.05602  -0.00593   0.00000  -0.03252  -0.03243   2.02359
   A18        1.97411   0.00117   0.00000   0.00849   0.00857   1.98268
   A19        2.01813  -0.00146   0.00000   0.00272   0.00260   2.02074
   A20        1.89158   0.00359   0.00000   0.03180   0.03170   1.92328
   A21        1.86384   0.00308   0.00000   0.02263   0.02259   1.88643
   A22        1.93776  -0.00394   0.00000  -0.04585  -0.04607   1.89169
   A23        1.88470  -0.00055   0.00000  -0.00042  -0.00040   1.88429
   A24        1.86011  -0.00044   0.00000  -0.00977  -0.01056   1.84955
   A25        1.90646  -0.01155   0.00000  -0.06670  -0.06629   1.84017
   A26        1.97328   0.00042   0.00000   0.00925   0.00865   1.98193
   A27        1.88117   0.00186   0.00000  -0.00304  -0.00327   1.87790
   A28        1.92642   0.00938   0.00000   0.05759   0.05794   1.98436
   A29        1.87594   0.00062   0.00000  -0.00039  -0.00184   1.87410
   A30        1.89752  -0.00081   0.00000   0.00195   0.00207   1.89959
   A31        1.98290   0.00606   0.00000   0.02301   0.02301   2.00591
   A32        1.89271  -0.00673   0.00000  -0.03973  -0.03958   1.85312
   A33        1.95244   0.00139   0.00000   0.01011   0.01006   1.96250
   A34        1.91874   0.00563   0.00000   0.03131   0.03131   1.95005
   A35        1.86695   0.00390   0.00000   0.02485   0.02495   1.89190
   A36        1.91331  -0.00134   0.00000  -0.01210  -0.01190   1.90141
   A37        1.91861  -0.00305   0.00000  -0.01574  -0.01590   1.90271
   A38        2.16931  -0.00119   0.00000   0.01742   0.01559   2.18490
   A39        2.02680   0.00330   0.00000   0.01140   0.01088   2.03768
   A40        2.07257  -0.00179   0.00000  -0.01564  -0.01633   2.05625
   A41        2.25301   0.00050   0.00000   0.00630   0.00547   2.25847
   A42        2.03914   0.00072   0.00000   0.00345   0.00347   2.04261
   A43        1.98961  -0.00118   0.00000  -0.00760  -0.00760   1.98201
   A44        2.11894   0.00456   0.00000   0.01748   0.01732   2.13625
   A45        1.84949  -0.00344   0.00000  -0.01172  -0.01220   1.83729
   A46        1.89959  -0.00136   0.00000  -0.00877  -0.00913   1.89046
   A47        1.81393   0.00346   0.00000   0.03863   0.03848   1.85241
   A48        1.90178  -0.00112   0.00000   0.00005   0.00011   1.90189
   A49        1.86278  -0.00292   0.00000  -0.04314  -0.04331   1.81947
    D1       -3.12826   0.00002   0.00000   0.00059   0.00060  -3.12766
    D2       -0.00128  -0.00003   0.00000  -0.00081  -0.00081  -0.00210
    D3        0.00811  -0.00005   0.00000  -0.00112  -0.00111   0.00700
    D4        3.13509  -0.00011   0.00000  -0.00252  -0.00253   3.13256
    D5        3.11716  -0.00017   0.00000  -0.00209  -0.00194   3.11522
    D6        0.99520  -0.00160   0.00000  -0.01912  -0.01905   0.97614
    D7       -1.04729   0.00160   0.00000   0.01207   0.01186  -1.03544
    D8       -0.00993  -0.00016   0.00000  -0.00092  -0.00077  -0.01070
    D9       -2.13189  -0.00159   0.00000  -0.01795  -0.01789  -2.14977
   D10        2.10881   0.00161   0.00000   0.01324   0.01302   2.12183
   D11       -1.48313  -0.00078   0.00000  -0.03706  -0.03677  -1.51991
   D12        1.62533  -0.00207   0.00000  -0.06700  -0.06718   1.55815
   D13        0.63881   0.00091   0.00000  -0.01960  -0.01933   0.61949
   D14       -2.53591  -0.00038   0.00000  -0.04954  -0.04973  -2.58565
   D15        2.67784  -0.00092   0.00000  -0.03858  -0.03844   2.63940
   D16       -0.49688  -0.00221   0.00000  -0.06852  -0.06885  -0.56573
   D17        3.11485  -0.00012   0.00000  -0.01363  -0.01370   3.10116
   D18       -0.03847   0.00127   0.00000   0.00695   0.00664  -0.03183
   D19        0.01400   0.00126   0.00000   0.02215   0.02177   0.03577
   D20       -3.13933   0.00265   0.00000   0.04272   0.04211  -3.09722
   D21       -2.96604  -0.00079   0.00000  -0.00361  -0.00411  -2.97015
   D22       -0.90811   0.00390   0.00000   0.04955   0.04909  -0.85902
   D23        1.08951  -0.00185   0.00000  -0.01037  -0.01043   1.07908
   D24        0.13660  -0.00202   0.00000  -0.03745  -0.03732   0.09928
   D25        2.19453   0.00268   0.00000   0.01570   0.01587   2.21041
   D26       -2.09103  -0.00307   0.00000  -0.04421  -0.04364  -2.13467
   D27        0.53720   0.00077   0.00000   0.01072   0.01025   0.54745
   D28       -1.65078   0.00417   0.00000   0.04381   0.04401  -1.60677
   D29        2.63446   0.00140   0.00000   0.02842   0.02828   2.66274
   D30       -2.59311  -0.00053   0.00000  -0.00883  -0.00948  -2.60259
   D31        1.50209   0.00288   0.00000   0.02426   0.02428   1.52638
   D32       -0.49585   0.00011   0.00000   0.00886   0.00855  -0.48730
   D33        0.93940   0.00503   0.00000   0.05901   0.05895   0.99835
   D34       -1.21293   0.00116   0.00000   0.02748   0.02766  -1.18527
   D35        2.97255   0.00064   0.00000   0.02138   0.02192   2.99447
   D36        3.10348   0.00546   0.00000   0.06599   0.06555  -3.11416
   D37        0.95115   0.00158   0.00000   0.03445   0.03426   0.98540
   D38       -1.14657   0.00107   0.00000   0.02836   0.02852  -1.11804
   D39       -1.14648   0.00242   0.00000   0.02854   0.02838  -1.11809
   D40        2.98438  -0.00146   0.00000  -0.00300  -0.00291   2.98147
   D41        0.88667  -0.00197   0.00000  -0.00909  -0.00864   0.87803
   D42        3.13184  -0.00397   0.00000  -0.13965  -0.13839   2.99345
   D43       -0.97146  -0.00506   0.00000  -0.13495  -0.13617  -1.10763
   D44        1.09537  -0.00042   0.00000  -0.10063  -0.10067   0.99469
   D45        1.14270  -0.00446   0.00000  -0.09270  -0.09272   1.04997
   D46       -2.18397  -0.00258   0.00000  -0.01114  -0.01040  -2.19437
   D47       -0.99857   0.00328   0.00000  -0.05540  -0.05557  -1.05414
   D48        1.95795   0.00516   0.00000   0.02616   0.02675   1.98470
   D49       -3.05215  -0.00241   0.00000  -0.08934  -0.08990   3.14114
   D50       -0.09563  -0.00052   0.00000  -0.00778  -0.00758  -0.10321
   D51        3.12602   0.00182   0.00000   0.03083   0.03092  -3.12625
   D52        1.07120   0.00045   0.00000   0.01936   0.01956   1.09076
   D53       -1.06557  -0.00058   0.00000   0.01044   0.01016  -1.05541
   D54       -0.24275   0.00417   0.00000   0.09033   0.09057  -0.15218
   D55        2.83748   0.00497   0.00000   0.13632   0.13661   2.97409
   D56        3.08842   0.00175   0.00000   0.00402   0.00474   3.09315
   D57       -0.11453   0.00254   0.00000   0.05001   0.05077  -0.06376
   D58       -0.35451  -0.00090   0.00000  -0.02389  -0.02323  -0.37774
   D59       -2.42999  -0.00207   0.00000  -0.05144  -0.05173  -2.48172
   D60        1.87215   0.00005   0.00000  -0.02102  -0.02089   1.85126
   D61        2.84701  -0.00173   0.00000  -0.06911  -0.06826   2.77875
   D62        0.77153  -0.00289   0.00000  -0.09666  -0.09676   0.67477
   D63       -1.20951  -0.00078   0.00000  -0.06625  -0.06593  -1.27544
         Item               Value     Threshold  Converged?
 Maximum Force            0.013229     0.000450     NO 
 RMS     Force            0.004087     0.000300     NO 
 Maximum Displacement     0.467160     0.001800     NO 
 RMS     Displacement     0.112570     0.001200     NO 
 Predicted change in Energy=-8.145755D-03
 GradGradGradGradGradGradGradGradGradGradGradGradGradGradGradGradGradGrad

                          Input orientation:                          
 ---------------------------------------------------------------------
 Center     Atomic      Atomic             Coordinates (Angstroms)
 Number     Number       Type             X           Y           Z
 ---------------------------------------------------------------------
      1          6           0        0.950965   -0.003428    0.024698
      2          6           0        2.282587    0.009111    0.072188
      3          6           0        3.103325    0.003449    1.353109
      4          6           0        4.613291   -0.016158    1.108007
      5          6           0        5.218972   -1.194650    0.951077
      6          6           0        6.663971   -1.522668    0.653889
      7          6           0        7.694626   -0.543631    1.209261
      8          8           0        7.462455   -0.506676    2.623297
      9          6           0        8.433371    0.201165    3.368318
     10          6           0        7.651935    0.819162    0.549575
     11          6           0        6.598811    1.636083    0.541923
     12          6           0        5.186309    1.378583    0.994898
     13          1           0        0.417433   -0.011439   -0.919457
     14          1           0        0.355350   -0.012478    0.932900
     15          1           0        2.841219    0.009301   -0.860396
     16          1           0        2.821747   -0.861173    1.963461
     17          1           0        2.838050    0.888429    1.944916
     18          1           0        4.582471   -2.072970    1.041597
     19          1           0        6.817704   -1.609675   -0.429255
     20          1           0        6.880803   -2.514985    1.070443
     21          1           0        8.692230   -0.984605    1.050875
     22          1           0        8.128510    0.125649    4.415171
     23          1           0        8.477728    1.262529    3.096485
     24          1           0        9.435034   -0.240092    3.255256
     25          1           0        8.584723    1.189836    0.131085
     26          1           0        6.759470    2.647780    0.170277
     27          1           0        4.534219    1.902991    0.277627
     28          1           0        5.015463    1.901148    1.948576
 ---------------------------------------------------------------------
                    Distance matrix (angstroms):
                    1          2          3          4          5
     1  C    0.000000
     2  C    1.332527   0.000000
     3  C    2.529304   1.521316   0.000000
     4  C    3.819208   2.550636   1.529855   0.000000
     5  C    4.526927   3.292999   2.464353   1.334286   0.000000
     6  C    5.944948   4.677740   3.936513   2.584779   1.511270
     7  C    6.868185   5.557754   4.626017   3.127795   2.572809
     8  O    7.028903   5.797002   4.568985   3.264115   2.881466
     9  C    8.198052   6.980939   5.701715   4.444013   4.257196
    10  C    6.771643   5.451053   4.690512   3.200463   3.183700
    11  C    5.903700   4.636537   3.942326   2.644360   3.175596
    12  C    4.559537   3.340427   2.521533   1.512100   2.573813
    13  H    1.084504   2.112482   3.518351   4.660027   5.287122
    14  H    1.086127   2.110814   2.779964   4.261542   5.005265
    15  H    2.087250   1.087099   2.228977   2.648679   3.222521
    16  H    2.827429   2.150582   1.095165   2.157656   2.623512
    17  H    2.836148   2.142160   1.097176   2.161059   3.315980
    18  H    4.301735   3.250274   2.568352   2.058114   1.088473
    19  H    6.099568   4.841405   4.424432   3.124405   2.152558
    20  H    6.524146   5.339585   4.548819   3.374486   2.125845
    21  H    7.870384   6.559637   5.683613   4.192720   3.481035
    22  H    8.414871   7.283536   5.885884   4.828478   4.712594
    23  H    8.227435   7.006940   5.788683   4.530228   4.610856
    24  H    9.081407   7.832722   6.615740   5.282995   4.898531
    25  H    7.727190   6.412060   5.739912   4.263927   4.205525
    26  H    6.386613   5.197564   4.664651   3.547110   4.212724
    27  H    4.066708   2.949379   2.610054   2.092587   3.243116
    28  H    4.883529   3.816968   2.759006   2.131751   3.258893
                    6          7          8          9         10
     6  C    0.000000
     7  C    1.526171   0.000000
     8  O    2.355500   1.433446   0.000000
     9  C    3.670218   2.400415   1.413780   0.000000
    10  C    2.543840   1.514666   2.468617   2.989628   0.000000
    11  C    3.161406   2.529290   3.109569   3.662391   1.332850
    12  C    3.273687   3.167414   3.374423   4.190805   2.567212
    13  H    6.616529   7.600802   7.901183   9.093156   7.428726
    14  H    6.492859   7.363659   7.322064   8.439866   7.353823
    15  H    4.387872   5.305165   5.810179   7.013630   5.078079
    16  H    4.112813   4.941113   4.700768   5.881540   5.305969
    17  H    4.702957   5.116475   4.877668   5.814295   5.012510
    18  H    2.187645   3.471670   3.639967   5.041305   4.245954
    19  H    1.097454   2.142469   3.309136   4.506781   2.748327
    20  H    1.097828   2.137244   2.604415   3.881773   3.461572
    21  H    2.135637   1.102161   2.052626   2.616027   2.141750
    22  H    4.359938   3.303642   2.013523   1.092952   3.956123
    23  H    4.124719   2.727101   2.093985   1.096519   2.713901
    24  H    4.011347   2.703193   2.088423   1.100372   3.409130
    25  H    3.364564   2.227026   3.216949   3.388223   1.087487
    26  H    4.199480   3.484123   4.057350   4.360658   2.069832
    27  H    4.051241   4.103910   4.459062   5.258514   3.311917
    28  H    4.014512   3.701546   3.498662   4.072801   3.174725
                   11         12         13         14         15
    11  C    0.000000
    12  C    1.505541   0.000000
    13  H    6.561965   5.323447   0.000000
    14  H    6.469268   5.027630   1.853398   0.000000
    15  H    4.328096   3.288845   2.424594   3.065278   0.000000
    16  H    4.745868   3.397907   3.848895   2.804542   2.955042
    17  H    4.082977   2.580137   3.856654   2.828358   2.939839
    18  H    4.251162   3.504286   5.044124   4.703828   3.314422
    19  H    3.395003   3.690441   6.614992   6.794743   4.315020
    20  H    4.194069   4.246986   7.211283   6.990208   5.139884
    21  H    3.392557   4.228390   8.561631   8.394196   6.234994
    22  H    4.429835   4.682377   9.377513   8.518644   7.469979
    23  H    3.193065   3.906863   9.095006   8.501751   6.999838
    24  H    4.350445   5.077499   9.939700   9.374744   7.776837
    25  H    2.076481   3.511555   8.321738   8.355301   5.946809
    26  H    1.089707   2.183047   6.962786   6.976483   4.834930
    27  H    2.098483   1.102136   4.695314   4.643421   2.783417
    28  H    2.134460   1.100801   5.746780   5.139088   4.024518
                   16         17         18         19         20
    16  H    0.000000
    17  H    1.749776   0.000000
    18  H    2.327753   3.553712   0.000000
    19  H    4.717310   5.264490   2.715569   0.000000
    20  H    4.473087   5.356471   2.340629   1.752900   0.000000
    21  H    5.942274   6.211199   4.251441   2.468876   2.371437
    22  H    5.928442   5.888374   5.365568   5.310181   4.440374
    23  H    6.146867   5.768192   5.524595   4.841082   4.574344
    24  H    6.766834   6.819879   5.639779   4.722478   4.058650
    25  H    6.385619   6.033663   5.243373   3.357618   4.184666
    26  H    5.570809   4.649967   5.271053   4.299855   5.242057
    27  H    3.662677   2.585765   4.048981   4.248860   5.064931
    28  H    3.527468   2.401404   4.099233   4.607389   4.873689
                   21         22         23         24         25
    21  H    0.000000
    22  H    3.587329   0.000000
    23  H    3.046332   1.775776   0.000000
    24  H    2.442407   1.784986   1.788718   0.000000
    25  H    2.363422   4.437794   2.968220   3.539515   0.000000
    26  H    4.207759   5.123918   3.665246   5.001554   2.336384
    27  H    5.121053   5.761696   4.889521   6.121852   4.115416
    28  H    4.759417   4.350580   3.703081   5.081824   4.068029
                   26         27         28
    26  H    0.000000
    27  H    2.349037   0.000000
    28  H    2.600262   1.738870   0.000000
 Stoichiometry    C11H16O
 Framework group  C1[X(C11H16O)]
 Deg. of freedom    78
 Full point group                 C1      NOp   1
 Largest Abelian subgroup         C1      NOp   1
 Largest concise Abelian subgroup C1      NOp   1
                         Standard orientation:                         
 ---------------------------------------------------------------------
 Center     Atomic      Atomic             Coordinates (Angstroms)
 Number     Number       Type             X           Y           Z
 ---------------------------------------------------------------------
      1          6           0       -4.712265   -0.085400    0.130298
      2          6           0       -3.418098    0.004201   -0.174221
      3          6           0       -2.279645   -0.218507    0.810019
      4          6           0       -0.893338   -0.086626    0.176604
      5          6           0       -0.346535   -1.162851   -0.391784
      6          6           0        0.964842   -1.324957   -1.125235
      7          6           0        2.102153   -0.420119   -0.659413
      8          8           0        2.263470   -0.698565    0.737445
      9          6           0        3.396473   -0.102238    1.337004
     10          6           0        1.873719    1.045601   -0.965508
     11          6           0        0.853639    1.774697   -0.513462
     12          6           0       -0.380718    1.335005    0.227946
     13          1           0       -5.482610    0.071564   -0.616749
     14          1           0       -5.038096   -0.325524    1.138190
     15          1           0       -3.134440    0.238416   -1.197189
     16          1           0       -2.379501   -1.209288    1.265836
     17          1           0       -2.378847    0.501821    1.631653
     18          1           0       -0.929335   -2.080284   -0.333168
     19          1           0        0.818411   -1.170493   -2.201852
     20          1           0        1.292538   -2.366526   -1.011319
     21          1           0        3.021467   -0.751120   -1.169372
     22          1           0        3.388534   -0.417427    2.383492
     23          1           0        3.359100    0.993183    1.305209
     24          1           0        4.332032   -0.442839    0.868454
     25          1           0        2.655230    1.556863   -1.522716
     26          1           0        0.901286    2.850443   -0.680683
     27          1           0       -1.206418    1.955357   -0.156873
     28          1           0       -0.288482    1.631546    1.284033
 ---------------------------------------------------------------------
 Rotational constants (GHZ):           1.9703835           0.4759768           0.4548536
 Standard basis: 6-31G(2df,p) (6D, 7F)
 There are   452 symmetry adapted cartesian basis functions of A   symmetry.
 There are   416 symmetry adapted basis functions of A   symmetry.
   416 basis functions,   640 primitive gaussians,   452 cartesian basis functions
[...]
 .00000582,-0.00000968,-0.00000324,0.00000831,0.00000668,0.00000731,-0.
 00001516,-0.00004764,-0.00002615,0.00002295,0.00014900,0.00010989,0.00
 006796,0.00059363,-0.00022910,-0.00122943,-0.00289729,-0.00203716,-0.0
 0051287,0.00257470,-0.00427321,-0.02994615,-0.06351561,0.00113012,0.06
 684462,0.00018146,-0.00032369,0.00008690,0.00006830,0.00009618,-0.0000
 1135,0.00001358,-0.00001857,-0.00007003,0.00000011,0.00000243,0.000001
 39,-0.00000302,0.00000002,0.00000153,0.00000215,-0.00000065,0.00000482
 ,-0.00000031,-0.00000040,-0.00000117,-0.00002305,0.00000541,0.00000510
 ,-0.00000849,-0.00000279,-0.00000268,-0.00027273,-0.00037437,-0.000093
 53,0.00000890,-0.00000046,0.00004523,0.00058687,-0.00032340,-0.0003786
 3,0.06603366,-0.00000464,0.00000481,-0.00000581,-0.00001201,-0.0000089
 3,0.00001483,0.00000759,0.00003919,0.00000394,-0.00002414,-0.00004379,
 -0.00001206,0.00013036,-0.00006449,0.00000355,0.00010049,0.00013278,-0
 .00124905,-0.00313628,-0.00239335,-0.00037345,0.00141740,-0.00403404,-
 0.02975348,-0.00100082,-0.04829301,0.01164160,0.00049574,-0.00007288,0
 .00015821,-0.00020157,0.00043694,0.00018924,-0.00005952,-0.00002985,-0
 .00001884,0.00000019,0.00000404,-0.00000112,0.00000005,-0.00000015,0.0
 0000029,0.00000304,-0.00000171,-0.00000063,0.00000864,-0.00000302,-0.0
 0000485,-0.00002062,0.00000626,0.00000247,-0.00007476,-0.00000773,0.00
 000149,-0.00023654,-0.00033074,-0.00011805,0.00004647,0.00001644,0.000
 04670,-0.00002794,-0.00000877,0.00024113,0.00612101,0.05229062,-0.0000
 1035,-0.00000239,-0.00002481,-0.00002330,-0.00003171,0.00004584,0.0000
 2749,0.00000748,-0.00003062,-0.00003811,0.00002119,0.00001927,0.000163
 25,-0.00008639,0.00000360,0.00030548,0.00036280,-0.00087141,-0.0026521
 6,-0.00130742,0.00249032,-0.00240442,-0.00640888,-0.01894476,0.0576711
 3,0.00377096,-0.29843831,-0.00008176,-0.00037687,0.00014565,0.00022176
 ,0.00008494,-0.00011488,0.00002845,-0.00004831,-0.00007282,-0.00000368
 ,0.00001494,-0.00000681,-0.00000175,0.00000215,0.00000816,0.00000739,0
 .00000502,0.00001070,-0.00001056,-0.00000715,-0.00001119,-0.00004574,0
 .00001574,0.00001010,-0.00010141,-0.00001626,-0.00000599,-0.00022229,-
 0.00029766,-0.00009842,-0.00000361,-0.00002835,0.00003640,0.00008492,0
 .00004906,0.00011217,-0.05827126,0.00225496,0.32844631,-0.00000138,0.0
 0001271,-0.00001209,-0.00000573,-0.00001556,0.00001857,0.00000701,0.00
 002858,-0.00001156,-0.00004003,-0.00008862,0.00001555,0.00016388,0.000
 05949,0.00003260,0.00006530,0.00003444,-0.00029132,0.00043444,0.000315
 65,0.00331081,-0.00102015,-0.03167153,0.00346179,-0.05547712,0.0330970
 1,-0.01243502,-0.00007953,0.00000941,-0.00052930,-0.00013165,0.0003273
 3,-0.00007709,-0.00002433,-0.00011572,0.00000044,-0.00000256,0.0000060
 0,-0.00000192,-0.00000421,-0.00000172,0.00000436,0.00000140,0.00000062
 ,0.00000195,0.00000449,0.00000730,0.00000094,-0.00002290,-0.00000257,0
 .00000679,-0.00003516,0.00000890,-0.00000455,-0.00012647,-0.00001111,-
 0.00016809,-0.00001242,0.00019816,0.00005894,-0.00015210,0.00001547,-0
 .00065151,0.00164543,-0.00723271,0.00402646,0.05795904,-0.00000562,0.0
 0002566,-0.00002717,-0.00001936,-0.00002485,0.00004944,0.00001615,0.00
 008326,-0.00002046,-0.00001562,-0.00012288,-0.00001786,0.00031099,0.00
 009125,-0.00005053,0.00000298,-0.00001947,-0.00037709,-0.00042842,0.00
 039784,0.00561064,-0.01230156,-0.02874317,-0.00402604,0.02981955,-0.25
 170116,0.08488239,0.00109284,0.00022322,-0.00022302,-0.00024721,0.0008
 0123,0.00051072,-0.00026892,-0.00008054,-0.00004015,-0.00000628,0.0000
 1044,-0.00000280,-0.00000548,-0.00000620,0.00000397,0.00000324,-0.0000
 0354,-0.00000350,0.00002094,0.00001467,0.00000137,-0.00004377,-0.00000
 363,0.00001342,-0.00006772,0.00000897,-0.00000056,-0.00019376,-0.00013
 565,-0.00020716,0.00002080,0.00031675,0.00005881,0.00045202,-0.0002194
 1,-0.00048287,0.00123555,0.00155265,0.00064042,-0.02273647,0.28603351,
 0.00000451,0.00000309,0.00000650,0.00000007,0.00000308,-0.00001169,-0.
 00000511,0.00005842,0.00000967,0.00006380,-0.00009819,-0.00006314,0.00
 005570,0.00003324,0.00002666,-0.00004514,-0.00004064,-0.00027010,0.000
 82644,-0.00169428,0.00366393,-0.00195094,-0.01946031,0.00612292,-0.010
 43582,0.08924515,-0.08951907,0.00035529,0.00047438,-0.00020670,-0.0006
 2935,-0.00003906,-0.00013341,-0.00001652,0.00012741,0.00024813,-0.0000
 0119,-0.00000091,-0.00000122,-0.00000104,0.00000016,-0.00000063,-0.000
 00249,-0.00000303,-0.00000087,0.00002188,0.00000537,0.00000413,0.00000
 085,-0.00000308,-0.00000263,0.00000402,0.00000503,0.00000543,-0.000074
 83,0.00000841,-0.00009575,0.00001905,0.00017058,-0.00003651,-0.0000223
 9,-0.00007068,-0.00031393,-0.00503666,0.02831765,-0.01005665,0.0146740
 6,-0.09159238,0.08812236,-0.00002182,-0.00001200,-0.00003041,-0.000038
 44,-0.00003663,0.00006804,0.00005560,0.00000891,-0.00004884,0.00010749
 ,0.00011471,-0.00001091,0.00009532,0.00025826,0.00014941,0.00064401,-0
 .00013578,-0.00025132,0.00059763,0.00102802,0.00594260,-0.03211934,-0.
 00869012,-0.00877504,-0.25042405,0.07604283,0.03416555,-0.00018355,-0.
 00006777,-0.00031989,0.00009516,-0.00000952,0.00009734,-0.00006576,-0.
 00004573,0.00009371,-0.00000453,0.00001783,-0.00001053,0.00000797,0.00
 000068,0.00000240,0.00000843,0.00000533,-0.00000569,-0.00001989,-0.000
 01975,-0.00001096,-0.00000909,0.00000539,0.00000101,0.00001335,-0.0000
 3623,-0.00001358,-0.00010983,-0.00013828,-0.00013867,-0.00004419,0.000
 05024,0.00009137,0.00099029,-0.00058157,-0.00213938,-0.00500421,0.0036
 7094,0.00146855,-0.00300512,0.00328694,0.00235171,0.28828958,-0.000001
 93,0.00000736,-0.00001173,-0.00001342,-0.00000801,0.00001486,0.0000139
 3,0.00001930,-0.00002076,0.00002710,-0.00001764,0.00001437,0.00010581,
 0.00000119,-0.00001018,-0.00009537,0.00009471,0.00024108,-0.00196790,0
 .00143477,0.00374286,-0.03046974,0.00521292,-0.00281708,0.07907917,-0.
 07978637,-0.01319529,0.00056490,-0.00039527,-0.00023981,-0.00013112,0.
 00020684,0.00025453,-0.00012996,0.00001049,-0.00006529,-0.00000043,0.0
 0000328,0.00000102,-0.00000354,-0.00000177,0.00000253,0.00000163,-0.00
 000052,0.00000142,0.00000258,0.00000555,-0.00000026,-0.00001758,0.0000
 0142,0.00000735,-0.00003140,0.00000564,-0.00002550,0.00004719,-0.00003
 394,0.00000119,-0.00002953,-0.00001535,0.00001321,0.00139369,0.0000515
 0,0.00035931,-0.00126139,0.00068089,0.00129504,0.02760681,-0.00858986,
 -0.00554858,-0.07472285,0.08126338,0.00000259,-0.00000186,-0.00000312,
 -0.00000471,-0.00000137,0.00000194,0.00001660,-0.00000727,-0.00000854,
 0.00003727,-0.00000932,0.00000382,0.00002320,0.00005109,-0.00006284,0.
 00001601,-0.00009304,0.00014449,-0.00461800,0.00191244,0.00403123,-0.0
 1896212,-0.00072576,-0.00058669,0.03659888,-0.01189813,-0.05849728,0.0
 0031216,-0.00014432,-0.00031670,-0.00002987,-0.00008132,0.00004776,0.0
 0000797,-0.00000118,-0.00003152,-0.00000181,0.00000119,-0.00000038,-0.
 00000186,0.00000051,0.00000155,0.00000002,-0.00000004,0.00000403,-0.00
 000294,0.00000009,0.00000024,-0.00000907,0.00000382,0.00000291,0.00001
 620,0.00000089,-0.00003242,0.00004730,-0.00002969,-0.00001871,0.000000
 56,0.00002910,0.00000877,0.00161637,0.00009249,0.00067358,0.02860096,-
 0.01109073,-0.00268843,-0.01159299,0.00592802,0.00299962,-0.03224993,0
 .01603049,0.05440098,-0.00002383,-0.00005508,-0.00002508,-0.00002167,-
 0.00000133,0.00007763,0.00003160,-0.00003971,0.00000144,0.00084129,0.0
 0076606,-0.00023537,-0.00019829,0.00002053,-0.00009084,0.00001254,0.00
 035231,-0.00021436,0.00553259,0.00510011,-0.00468824,0.00030745,0.0010
 7074,-0.00174250,0.00004472,-0.00030389,0.00004390,-0.19748051,-0.0669
 7049,0.12171565,-0.01980565,-0.01185856,0.01896500,-0.00088459,0.00570
 768,0.00086009,-0.00000721,0.00000478,-0.00001057,0.00002674,0.0000014
 8,-0.00001344,0.00000141,0.00000056,-0.00002148,-0.00003490,-0.0000574
 3,-0.00003326,0.00005907,0.00000932,-0.00005136,0.00008395,-0.00010924
 ,0.00001492,0.00008850,-0.00006439,-0.00002504,0.00010737,0.00007360,0
 .00004109,0.00104347,-0.00050478,-0.00023193,-0.00003898,-0.00000822,-
 0.00003466,-0.00001176,0.00005638,-0.00021796,-0.00003628,-0.00000375,
 0.00004179,0.21185079,-0.00000429,0.00001074,-0.00000837,-0.00002454,0
 .00002351,-0.00002281,0.00004026,0.00036436,0.00008454,0.00082897,-0.0
 0001130,-0.00066914,0.00042443,0.00020773,-0.00007596,0.00099294,-0.00
 151161,0.00126062,-0.01700336,-0.00407541,0.01235846,0.00034297,-0.002
 49629,0.00234031,-0.00072103,-0.00034701,-0.00049857,-0.07046805,-0.08
 239143,0.06821108,0.01416420,0.00778939,-0.00899176,0.00382065,0.00244
 493,0.00539792,0.00000223,0.00000280,0.00000294,-0.00000629,-0.0000021
 9,0.00000178,0.00000091,-0.00000052,-0.00000124,0.00013483,0.00003885,
 0.00004643,-0.00006836,-0.00001938,0.00001148,-0.00010167,0.00000785,0
 .00002639,-0.00010850,-0.00039033,-0.00023166,-0.00016884,-0.00084956,
 -0.00024094,0.00043039,0.00095017,-0.00019039,0.00012627,0.00004587,0.
 00009327,0.00023358,0.00018801,0.00007198,0.00017315,0.00003842,0.0000
 8537,0.06876851,0.08175723,0.00000246,-0.00002418,0.00002087,0.0000083
 0,0.00004125,-0.00007218,0.00004113,0.00021504,0.00010268,0.00098005,0
 .00073783,-0.00056258,-0.00018422,-0.00007454,-0.00003452,-0.00114976,
 0.00045249,-0.00152499,0.01262174,0.00309563,-0.00259946,-0.00141805,0
 .00167997,-0.00404454,0.00103621,0.00096095,0.00053826,0.12318084,0.06
 660333,-0.13699695,-0.00043059,0.00289220,0.00230799,0.00215687,0.0035
 2571,0.00746108,0.00000358,-0.00001035,0.00000403,0.00000224,0.0000032
 9,-0.00000378,-0.00000204,0.00000725,0.00000252,0.00007540,0.00000231,
 0.00003015,0.00000731,-0.00002903,-0.00002199,0.00010002,-0.00003495,0
 .00001726,0.00006362,0.00003414,0.00008289,0.00035399,0.00044884,0.000
 17379,-0.00040300,-0.00034511,0.00035679,-0.00012037,-0.00022599,0.000
 00139,0.00005863,-0.00050315,-0.00024869,-0.00024574,0.00000957,-0.000
 06692,-0.13321089,-0.07524084,0.13810927,-0.00002044,0.00013002,-0.000
 06741,0.00010672,-0.00011465,0.00014955,-0.00013534,-0.00052609,-0.000
 20874,-0.00128558,0.00052854,0.00228534,-0.00049672,-0.00032358,-0.000
 17436,-0.00051465,0.00043679,-0.00060639,-0.00273312,0.00213786,0.0053
 2461,0.00031700,-0.00084098,-0.00003748,0.00022899,0.00015320,0.000117
 24,-0.00279385,0.02750722,-0.01647544,-0.05500456,0.02898381,-0.014378
 92,0.00166930,-0.01841650,0.01392685,-0.00003001,0.00000466,-0.0000165
 1,-0.00000525,-0.00001854,0.00000057,-0.00001999,-0.00001960,-0.000039
 42,-0.00019467,-0.00007762,-0.00009663,0.00010369,0.00002224,-0.000023
 93,0.00012737,-0.00006855,-0.00016481,0.00011697,-0.00000944,-0.000055
 68,0.00038531,0.00035795,0.00007578,-0.00035580,0.00118705,-0.00078392
 ,-0.00002190,-0.00003019,-0.00006334,-0.00005602,-0.00005099,-0.000035
 89,-0.00000803,0.00000216,0.00004229,0.00005697,-0.00160095,-0.0022247
 0,0.06093018,-0.00001655,0.00004186,-0.00007050,0.00002003,-0.00002377
 ,0.00014504,0.00005961,-0.00028693,0.00005325,-0.00084546,0.00033603,0
 .00011496,-0.00015718,-0.00011076,-0.00011459,-0.00041440,0.00139195,-
 0.00059892,0.00539981,0.00465559,0.00311763,-0.00013874,-0.00049217,0.
 00135787,-0.00032029,-0.00046166,-0.00024075,0.00038389,-0.01017287,0.
 01172127,0.03292866,-0.23521347,0.13127703,0.00329160,-0.00261109,0.00
 510815,-0.00003052,0.00001346,-0.00001616,0.00001003,-0.00001471,-0.00
 001353,-0.00002059,-0.00004004,-0.00005296,-0.00010797,-0.00004167,-0.
 00005080,0.00002437,0.00001573,-0.00001687,-0.00005781,-0.00004982,-0.
 00000720,-0.00000124,-0.00012711,-0.00013483,0.00022012,0.00029855,0.0
 0003750,0.00036362,-0.00106631,0.00035768,0.00000410,0.00004620,0.0000
 2503,-0.00000202,0.00009674,-0.00007535,0.00004683,0.00001147,-0.00000
 516,-0.00149681,-0.00166577,-0.00408971,-0.03776427,0.24517737,0.00002
 101,-0.00002173,0.00008289,0.00004008,0.00003260,-0.00009955,-0.000188
 14,0.00055732,0.00004573,0.00078429,-0.00127099,-0.00195758,0.00021874
 ,-0.00023441,0.00008510,-0.00028440,0.00166915,-0.00076508,0.00334051,
 0.00428464,0.00740517,-0.00005556,-0.00136865,0.00166599,-0.00007049,-
 0.00010717,-0.00008679,0.00214107,0.00083505,0.00445720,-0.01604926,0.
 13324481,-0.12907519,-0.00104250,0.01403266,-0.00355920,0.00002140,-0.
 00001440,0.00001241,0.00000686,0.00001397,-0.00001112,0.00000119,0.000
 00142,0.00002196,0.00021134,0.00004098,0.00006585,-0.00002132,-0.00002
 072,-0.00000146,-0.00006122,0.00007384,0.00002240,-0.00012464,-0.00010
 800,-0.00011797,0.00021288,0.00042348,0.00004537,0.00019488,-0.0003689
 0,-0.00025822,0.00000961,0.00000030,-0.00000165,-0.00006175,0.00001415
 ,-0.00014543,0.00000620,-0.00003147,0.00003081,-0.00236403,-0.00411648
 ,-0.00391368,0.01228066,-0.14723400,0.12640201,-0.00055886,0.00005529,
 -0.00011742,-0.00041756,-0.00140767,0.00000237,-0.00042721,-0.00154629
 ,-0.00005174,0.00837685,-0.00593302,0.00243358,-0.00068587,-0.00200426
 ,-0.00073323,-0.00025870,-0.00015519,0.00001890,0.00041523,-0.00068719
 ,0.00002137,-0.00039108,0.00029099,-0.00030784,0.00022298,0.00016696,0
 .00019397,-0.00226653,-0.00295106,0.00352202,-0.02188762,0.01584863,-0
 .00498967,-0.19990129,0.12280946,-0.03520139,-0.00000423,0.00000107,0.
 00000599,-0.00006544,-0.00006901,0.00000461,0.00002550,0.00004955,0.00
 002757,0.00002801,0.00007334,-0.00013095,0.00027926,-0.00009914,0.0000
 0925,0.00035547,-0.00036031,-0.00056554,0.00007210,0.00002741,-0.00000
 629,0.00006612,0.00002879,-0.00001171,-0.00001422,0.00009216,-0.000013
 94,-0.00000455,0.00001196,-0.00003799,0.00000792,-0.00000434,0.0000391
 3,-0.00004751,-0.00002149,-0.00000760,-0.00101448,0.00072496,0.0002530
 7,0.00120933,-0.00019578,-0.00013773,0.22259504,-0.00017539,0.00053682
 ,-0.00003962,-0.00000768,-0.00009886,-0.00040949,0.00182198,-0.0000276
 7,-0.00003238,0.02372408,-0.02401980,0.00562736,-0.00400681,-0.0040428
 5,-0.00020255,-0.00064652,0.00022188,0.00016521,-0.00026948,-0.0002402
 6,0.00011871,0.00002470,0.00028876,0.00001479,0.00000616,-0.00011784,-
 0.00002178,-0.00111625,0.00008513,0.00110595,-0.01013362,0.00531037,-0
 .00101917,0.12235350,-0.14570506,0.02951603,0.00005370,0.00009407,0.00
 003756,-0.00011455,-0.00000528,0.00006407,0.00003174,-0.00000543,0.000
 05416,0.00022433,0.00043419,0.00014774,-0.00057546,0.00001053,0.000495
 07,0.00077035,-0.00119624,-0.00132714,0.00012944,0.00000405,-0.0000283
 6,0.00010295,0.00000637,0.00000884,0.00006918,0.00011608,0.00001414,0.
 00000824,0.00001450,0.00001622,0.00002653,0.00003975,0.00000828,0.0000
 2526,0.00002115,0.00000994,-0.00029772,0.00025039,0.00022631,-0.000464
 60,0.00108239,-0.00040248,-0.12905871,0.16492675,-0.00034747,0.0005746
 3,-0.00001334,0.00027001,-0.00077123,0.00004088,-0.00033789,0.00046047
 ,0.00084700,0.00587204,-0.00562099,0.00024816,-0.00091214,-0.00075073,
 0.00033980,0.00006154,0.00007331,0.00017168,0.00002777,0.00019774,-0.0
 0105026,-0.00129056,0.00052353,0.00020689,0.00025804,0.00031154,0.0002
 4220,0.00241162,0.00196373,-0.00189784,0.01808548,-0.01310108,0.001988
 81,-0.03806405,0.03177627,-0.05626513,-0.00008310,-0.00007642,-0.00007
 557,0.00012909,-0.00002823,-0.00005208,-0.00003928,-0.00002876,-0.0001
 1134,0.00017397,0.00003468,-0.00020074,0.00010232,0.00016561,-0.000305
 70,0.00013926,-0.00046914,-0.00000715,-0.00009885,0.00001294,0.0000260
 8,-0.00003328,-0.00002829,-0.00000925,-0.00005238,-0.00007307,0.000143
 14,0.00000998,-0.00001273,0.00001489,0.00003382,-0.00007164,-0.0000392
 0,-0.00010508,-0.00003779,-0.00001997,0.00099221,-0.00027066,0.0000386
 9,-0.00028490,-0.00044082,0.00095930,0.03739449,-0.03417737,0.06007427
 ,0.00010203,-0.00041951,-0.00008693,-0.00045114,0.00011953,0.00007682,
 0.00054544,-0.00030925,-0.00022106,-0.00165321,-0.00311213,-0.00829874
 ,-0.00080408,0.00072336,0.00023540,-0.00012555,0.00047562,-0.00081749,
 0.00059402,0.00043852,0.00329648,0.00016282,-0.00024882,-0.00104531,-0
 .00107087,-0.00054365,-0.00075741,-0.00070375,-0.00035254,0.00020116,0
 .00400882,0.00186129,0.02674998,-0.05580682,-0.00366709,-0.05742614,-0
 .00000900,0.00000716,0.00001694,-0.00000877,0.00003193,0.00000112,-0.0
 0001331,-0.00004343,0.00005706,-0.00010826,-0.00005654,0.00031720,-0.0
 0037314,0.00011503,0.00030794,0.00001887,-0.00008603,0.00026067,0.0000
 0607,-0.00014742,-0.00014499,0.00010194,0.00043502,-0.00000606,0.00015
 707,0.00000880,-0.00037521,-0.00001805,0.00005608,0.00000153,-0.000080
 28,0.00007714,0.00005880,0.00023679,0.00005642,0.00010074,-0.00053030,
 -0.00093336,-0.00155609,-0.00157589,-0.00118306,0.00097032,-0.00570865
 ,-0.00250536,-0.02431266,0.06310723,0.00005465,0.00039455,0.00005546,0
 .00059679,-0.00012959,0.00015038,0.00061471,-0.00107118,0.00003999,-0.
 00836613,-0.00968660,-0.03175283,-0.00239596,-0.00027227,0.00034138,0.
 00019641,-0.00007098,-0.00144406,0.00044142,-0.00057102,-0.00071936,-0
 .00070232,0.00001390,0.00048020,0.00063056,0.00090378,0.00055905,0.000
 59203,0.00046222,-0.00013957,0.00015475,0.00029764,0.00898660,-0.00404
 603,-0.04043509,-0.02206215,-0.00002549,0.00000156,-0.00000803,-0.0000
 2892,-0.00000468,0.00000711,0.00000018,-0.00003792,0.00005511,-0.00011
 599,-0.00003317,0.00033468,-0.00033954,0.00025756,0.00025036,0.0001625
 1,-0.00051430,0.00241385,0.00055010,0.00008262,0.00007764,0.00026106,0
 .00017180,0.00008939,-0.00014016,0.00013235,0.00031541,0.00002487,0.00
 002127,-0.00004784,-0.00010999,-0.00023358,0.00009430,-0.00023911,-0.0
 0022156,-0.00005625,-0.00016066,-0.00035945,-0.00035824,-0.00112495,-0
 .00078921,0.00007503,0.00431290,0.00201609,0.01986449,0.00920229,0.049
 67526,0.00006855,-0.00003750,-0.00004374,-0.00009897,0.00006439,0.0000
 7526,0.00021157,-0.00047998,-0.00047475,-0.00228087,-0.00605403,-0.004
 75636,-0.00144877,0.00120803,0.00110519,0.00045813,-0.00059493,0.00005
 239,0.00017058,-0.00061467,-0.00191063,-0.00193656,0.00136527,0.000298
 61,0.00026791,0.00009474,0.00036312,-0.00075234,0.00153322,0.00124647,
 0.00095891,0.00105332,-0.01855931,-0.05783388,-0.02003184,-0.27883545,
 -0.00001090,0.00000710,0.00001088,-0.00000816,0.00000827,0.00000513,0.
 00002948,-0.00002182,0.00004755,-0.00011269,-0.00006702,0.00003816,-0.
 00027679,-0.00000560,0.00000339,-0.00001747,-0.00021312,0.00032922,0.0
 0004526,0.00017440,0.00008228,-0.00018229,-0.00011756,-0.00011360,-0.0
 0006156,-0.00004994,0.00000324,-0.00001423,-0.00000957,0.00002195,0.00
 013149,-0.00006696,-0.00006371,-0.00008195,0.00001492,-0.00001820,0.00
 045729,0.00056623,0.00084262,0.00153557,-0.00015323,-0.00130926,-0.001
 61328,0.00002997,-0.00529420,0.06239592,0.02239788,0.30685375\\0.00000
 154,0.00000018,-0.00000536,-0.00000511,0.00000798,0.00001068,-0.000006
 65,-0.00000857,-0.00000687,0.00000920,0.00000443,0.00000326,0.00000032
 ,0.00000475,-0.00000065,0.00000202,-0.00000169,0.00000548,0.00000673,0
 .00000161,-0.00001791,-0.00000378,0.00000101,0.00001288,-0.00000450,-0
 .00000264,-0.00001052,0.00000247,0.00000358,0.00000553,-0.00000477,-0.
 00001684,-0.00000474,0.00000531,0.00000125,-0.00000121,-0.00000040,-0.
 00000289,0.00000004,-0.00000050,-0.00000096,0.00000042,0.00000257,-0.0
 0000537,-0.00000104,0.00000078,0.00000233,-0.00000207,0.00000139,0.000
 00047,0.00000250,-0.00000112,0.00000066,-0.00000296,0.00000016,-0.0000
 0068,0.00000381,0.00000182,0.00000269,0.00000468,0.00000059,0.00000022
 ,-0.00000214,-0.00000271,-0.00000117,-0.00000120,0.00000022,0.00000135
 ,0.00000132,0.00000117,0.00000051,0.00000148,-0.00000110,0.00000032,0.
 00000144,0.00000040,0.00000354,0.00000182,-0.00000476,0.00000075,0.000
 00161,-0.00000129,0.00000316,-0.00000028\\\@


 GOD GAVE US TWO ENDS... ONE TO SIT ON...    
 AND THE OTHER TO THINK WITH...              
 YOUR SUCCESS DEPENDS UPON WHICH END YOU     
 USE THE MOST...                             
                                             
 IT'S A CASE OF HEADS YOU WIN TAILS YOU LOSE.
          SOURCE UNKNOWN(IT'S JUST AS WELL.) 
 Job cpu time:       0 days  4 hours 56 minutes 50.8 seconds.
 Elapsed time:       0 days  1 hours 14 minutes 13.4 seconds.
 File lengths (MBytes):  RWF=    348 Int=      0 D2E=      0 Chk=     15 Scr=      1
 Normal termination of Gaussian 16 at Tue May 30 00:32:03 2023.
### All Done ###
