### Starting Gaussian ###
 Entering Gaussian System, Link 0=g16
 Initial command:
 /cluster/software/gaussian/gaussian-16-A.03/avx2/g16/l1.exe "/local/scratch/cz9n3/Gau-31006.inp" -scrdir="/local/scratch/cz9n3/"
 Entering Link 1 = /cluster/software/gaussian/gaussian-16-A.03/avx2/g16/l1.exe PID=     31007.
  
 Copyright (c) 1988,1990,1992,1993,1995,1998,2003,2009,2016,
            Gaussian, Inc.  All Rights Reserved.
  
 This is part of the Gaussian(R) 16 program.  It is based on
 the Gaussian(R) 09 system (copyright 2009, Gaussian, Inc.),
 the Gaussian(R) 03 system (copyright 2003, Gaussian, Inc.),
 the Gaussian(R) 98 system (copyright 1998, Gaussian, Inc.),
 the Gaussian(R) 94 system (copyright 1995, Gaussian, Inc.),
 the Gaussian 92(TM) system (copyright 1992, Gaussian, Inc.),
 the Gaussian 90(TM) system (copyright 1990, Gaussian, Inc.),
 the Gaussian 88(TM) system (copyright 1988, Gaussian, Inc.),
 the Gaussian 86(TM) system (copyright 1986, Carnegie Mellon
 University), and the Gaussian 82(TM) system (copyright 1983,
 Carnegie Mellon University). Gaussian is a federally registered
 trademark of Gaussian, Inc.
  
 This software contains proprietary and confidential information,
 including trade secrets, belonging to Gaussian, Inc.
  
 This software is provided under written license and may be
 used, copied, transmitted, or stored only in accord with that
 written license.
  
 The following legend is applicable only to US Government
 contracts under FAR:
  
                    RESTRICTED RIGHTS LEGEND
  
 Use, reproduction and disclosure by the US Government is
 subject to restrictions as set forth in subparagraphs (a)
 and (c) of the Commercial Computer Software - Restricted
 Rights clause in FAR 52.227-19.
  
 Gaussian, Inc.
 340 Quinnipiac St., Bldg. 40, Wallingford CT 06492
  
  
 ---------------------------------------------------------------
 Warning -- This program may not be used in any manner that
 competes with the business of Gaussian, Inc. or will provide
 assistance to any competitor of Gaussian, Inc.  The licensee
 of this program is prohibited from giving any competitor of
 Gaussian, Inc. access to this program.  By using this program,
 the user acknowledges that Gaussian, Inc. is engaged in the
 business of creating and licensing software in the field of
 computational chemistry and represents and warrants to the
 licensee that it is not a competitor of Gaussian, Inc. and that
 it will not use this program in any manner prohibited above.
 ---------------------------------------------------------------
  

 Cite this work as:
 Gaussian 16, Revision A.03,
 M. J. Frisch, G. W. Trucks, H. B. Schlegel, G. E. Scuseria, 
 M. A. Robb, J. R. Cheeseman, G. Scalmani, V. Barone, 
 G. A. Petersson, H. Nakatsuji, X. Li, M. Caricato, A. V. Marenich, 
 J. Bloino, B. G. Janesko, R. Gomperts, B. Mennucci, H. P. Hratchian, 
 J. V. Ortiz, A. F. Izmaylov, J. L. Sonnenberg, D. Williams-Young, 
 F. Ding, F. Lipparini, F. Egidi, J. Goings, B. Peng, A. Petrone, 
 T. Henderson, D. Ranasinghe, V. G. Zakrzewski, J. Gao, N. Rega, 
 G. Zheng, W. Liang, M. Hada, M. Ehara, K. Toyota, R. Fukuda, 
 J. Hasegawa, M. Ishida, T. Nakajima, Y. Honda, O. Kitao, H. Nakai, 
 T. Vreven, K. Throssell, J. A. Montgomery, Jr., J. E. Peralta, 
 F. Ogliaro, M. J. Bearpark, J. J. Heyd, E. N. Brothers, K. N. Kudin, 
 V. N. Staroverov, T. A. Keith, R. Kobayashi, J. Normand, 
 K. Raghavachari, A. P. Rendell, J. C. Burant, S. S. Iyengar, 
 J. Tomasi, M. Cossi, J. M. Millam, M. Klene, C. Adamo, R. Cammi, 
 J. W. Ochterski, R. L. Martin, K. Morokuma, O. Farkas, 
 J. B. Foresman, and D. J. Fox, Gaussian, Inc., Wallingford CT, 2016.
 
 ******************************************
 Gaussian 16:  ES64L-G16RevA.03 25-Dec-2016
                28-May-2023 
 ******************************************
 %chk=CdCCCqdCC1CC1COOrCCqCrC.chk
 %NProcShared=20
 Will use up to   20 processors via shared memory.
 -----------------------------
 # opt freq b3lyp/6-31g(2df,p)
 -----------------------------
 1/18=20,19=15,26=3,38=1/1,3;
 2/9=110,12=2,17=6,18=5,40=1/2;
 3/5=1,6=6,7=104,11=2,25=1,30=1,71=1,74=-5/1,2,3;
 4//1;
 5/5=2,38=5/2;
 6/7=2,8=2,9=2,10=2,28=1/1;
 7//1,2,3,16;
 1/18=20,19=15,26=3/3(2);
 2/9=110/2;
 99//99;
 2/9=110/2;
 3/5=1,6=6,7=104,11=2,25=1,30=1,71=1,74=-5/1,2,3;
 4/5=5,16=3,69=1/1;
 5/5=2,38=5/2;
 7//1,2,3,16;
 1/18=20,19=15,26=3/3(-5);
 2/9=110/2;
 6/7=2,8=2,9=2,10=2,19=2,28=1/1;
 99/9=1/99;
 -------------------
 Title Card Required
 -------------------
 Symbolic Z-matrix:
 Charge =  0 Multiplicity = 1
 C                     0.72389  -0.57866  -0.67965 
 C                     1.96963  -0.94311  -0.37197 
 C                     3.07573  -1.11741  -1.33759 
 C                     4.42517  -0.5367   -0.90878 
 C                     4.69572   0.41669   0.02299 
 C                     3.8957    1.12729   1.04298 
 C                     3.51942   2.56295   0.78823 
 C                     2.44233   1.50705   0.88773 
 C                     1.5038    1.2399    2.07387 
 O                     1.17565  -0.16542   2.2585 
 O                    -0.27615  -0.28016   2.45521 
 C                     5.53636  -1.23628  -1.7065 
 C                     7.00181  -1.00941  -1.28926 
 C                     7.28512  -1.53306   0.12515 
 C                     7.95242  -1.70857  -2.264 
 H                     0.07205  -0.12624   0.06615 
 H                     0.34153  -0.57629  -1.69164 
 H                     2.34072  -0.96093   0.65008 
 H                     2.80719  -0.64949  -2.29114 
 H                     3.16368  -2.19728  -1.48341 
 H                     5.74127   0.70947   0.12771 
 H                     4.24854   0.91669   2.05173 
 H                     3.76818   2.94632  -0.2027 
 H                     3.53148   3.32346   1.55375 
 H                     1.91516   1.49154  -0.05748 
 H                     0.58165   1.80619   1.93071 
 H                     1.98506   1.5148    3.01098 
 H                    -0.38139  -1.16527   2.04717 
 H                     5.40899  -0.95592  -2.76114 
 H                     5.35259  -2.32069  -1.65771 
 H                     7.21912   0.06407  -1.3406 
 H                     7.16214  -2.61982   0.17284 
 H                     6.62533  -1.10931   0.88543 
 H                     8.30851  -1.28481   0.42161 
 H                     7.82196  -2.79591  -2.2354 
 H                     8.99182  -1.48606  -1.99964 
 H                     7.78776  -1.37116  -3.292 
 

 GradGradGradGradGradGradGradGradGradGradGradGradGradGradGradGradGradGrad
 Berny optimization.
 Initialization pass.
                           ----------------------------
                           !    Initial Parameters    !
                           ! (Angstroms and Degrees)  !
 --------------------------                            --------------------------
 ! Name  Definition              Value          Derivative Info.                !
 --------------------------------------------------------------------------------
 ! R1    R(1,2)                  1.3339         estimate D2E/DX2                !
 ! R2    R(1,16)                 1.0889         estimate D2E/DX2                !
 ! R3    R(1,17)                 1.0818         estimate D2E/DX2                !
 ! R4    R(2,3)                  1.4786         estimate D2E/DX2                !
 ! R5    R(2,18)                 1.0875         estimate D2E/DX2                !
 ! R6    R(3,4)                  1.5304         estimate D2E/DX2                !
 ! R7    R(3,19)                 1.0956         estimate D2E/DX2                !
 ! R8    R(3,20)                 1.0932         estimate D2E/DX2                !
 ! R9    R(4,5)                  1.3603         estimate D2E/DX2                !
 ! R10   R(4,12)                 1.5364         estimate D2E/DX2                !
 ! R11   R(5,6)                  1.4783         estimate D2E/DX2                !
 ! R12   R(5,21)                 1.0908         estimate D2E/DX2                !
 ! R13   R(6,7)                  1.5059         estimate D2E/DX2                !
 ! R14   R(6,8)                  1.5102         estimate D2E/DX2                !
 ! R15   R(6,22)                 1.0892         estimate D2E/DX2                !
 ! R16   R(7,8)                  1.5116         estimate D2E/DX2                !
 ! R17   R(7,23)                 1.0912         estimate D2E/DX2                !
 ! R18   R(7,24)                 1.0791         estimate D2E/DX2                !
 ! R19   R(8,9)                  1.5359         estimate D2E/DX2                !
 ! R20   R(8,25)                 1.0824         estimate D2E/DX2                !
 ! R21   R(9,10)                 1.4549         estimate D2E/DX2                !
 ! R22   R(9,26)                 1.0916         estimate D2E/DX2                !
 ! R23   R(9,27)                 1.0887         estimate D2E/DX2                !
 ! R24   R(10,11)                1.4696         estimate D2E/DX2                !
 ! R25   R(11,28)                0.9803         estimate D2E/DX2                !
 ! R26   R(12,13)                1.5405         estimate D2E/DX2                !
 ! R27   R(12,29)                1.0987         estimate D2E/DX2                !
 ! R28   R(12,30)                1.101          estimate D2E/DX2                !
 ! R29   R(13,14)                1.5346         estimate D2E/DX2                !
 ! R30   R(13,15)                1.5306         estimate D2E/DX2                !
 ! R31   R(13,31)                1.0965         estimate D2E/DX2                !
 ! R32   R(14,32)                1.0947         estimate D2E/DX2                !
 ! R33   R(14,33)                1.0922         estimate D2E/DX2                !
 ! R34   R(14,34)                1.094          estimate D2E/DX2                !
 ! R35   R(15,35)                1.0955         estimate D2E/DX2                !
 ! R36   R(15,36)                1.0953         estimate D2E/DX2                !
 ! R37   R(15,37)                1.0944         estimate D2E/DX2                !
 ! A1    A(2,1,16)             120.9683         estimate D2E/DX2                !
 ! A2    A(2,1,17)             123.1234         estimate D2E/DX2                !
 ! A3    A(16,1,17)            115.3532         estimate D2E/DX2                !
 ! A4    A(1,2,3)              125.4639         estimate D2E/DX2                !
 ! A5    A(1,2,18)             122.6793         estimate D2E/DX2                !
 ! A6    A(3,2,18)             110.8896         estimate D2E/DX2                !
 ! A7    A(2,3,4)              115.5885         estimate D2E/DX2                !
 ! A8    A(2,3,19)             109.5536         estimate D2E/DX2                !
 ! A9    A(2,3,20)             105.2918         estimate D2E/DX2                !
 ! A10   A(4,3,19)             107.3337         estimate D2E/DX2                !
 ! A11   A(4,3,20)             109.9535         estimate D2E/DX2                !
 ! A12   A(19,3,20)            108.9963         estimate D2E/DX2                !
 ! A13   A(3,4,5)              129.291          estimate D2E/DX2                !
 ! A14   A(3,4,12)             108.6308         estimate D2E/DX2                !
 ! A15   A(5,4,12)             122.0693         estimate D2E/DX2                !
 ! A16   A(4,5,6)              134.5791         estimate D2E/DX2                !
 ! A17   A(4,5,21)             116.3928         estimate D2E/DX2                !
 ! A18   A(6,5,21)             108.8725         estimate D2E/DX2                !
 ! A19   A(5,6,7)              118.4755         estimate D2E/DX2                !
 ! A20   A(5,6,8)              124.8039         estimate D2E/DX2                !
 ! A21   A(5,6,22)             111.7618         estimate D2E/DX2                !
 ! A22   A(7,6,22)             114.9578         estimate D2E/DX2                !
 ! A23   A(8,6,22)             117.1022         estimate D2E/DX2                !
 ! A24   A(6,7,23)             115.5692         estimate D2E/DX2                !
 ! A25   A(6,7,24)             123.3043         estimate D2E/DX2                !
 ! A26   A(8,7,23)             117.8794         estimate D2E/DX2                !
 ! A27   A(8,7,24)             116.9716         estimate D2E/DX2                !
 ! A28   A(23,7,24)            113.2061         estimate D2E/DX2                !
 ! A29   A(6,8,9)              117.7059         estimate D2E/DX2                !
 ! A30   A(6,8,25)             123.7035         estimate D2E/DX2                !
 ! A31   A(7,8,9)              127.4253         estimate D2E/DX2                !
 ! A32   A(7,8,25)             107.4317         estimate D2E/DX2                !
 ! A33   A(9,8,25)             111.98           estimate D2E/DX2                !
 ! A34   A(8,9,10)             113.8177         estimate D2E/DX2                !
 ! A35   A(8,9,26)             108.9467         estimate D2E/DX2                !
 ! A36   A(8,9,27)             110.529          estimate D2E/DX2                !
 ! A37   A(10,9,26)            109.0994         estimate D2E/DX2                !
 ! A38   A(10,9,27)            103.5541         estimate D2E/DX2                !
 ! A39   A(26,9,27)            110.813          estimate D2E/DX2                !
 ! A40   A(9,10,11)            108.3747         estimate D2E/DX2                !
 ! A41   A(10,11,28)            96.9405         estimate D2E/DX2                !
 ! A42   A(4,12,13)            118.7068         estimate D2E/DX2                !
 ! A43   A(4,12,29)            107.3594         estimate D2E/DX2                !
 ! A44   A(4,12,30)            107.7439         estimate D2E/DX2                !
 ! A45   A(13,12,29)           109.4325         estimate D2E/DX2                !
 ! A46   A(13,12,30)           106.9684         estimate D2E/DX2                !
 ! A47   A(29,12,30)           105.9343         estimate D2E/DX2                !
 ! A48   A(12,13,14)           112.0245         estimate D2E/DX2                !
 ! A49   A(12,13,15)           110.5527         estimate D2E/DX2                !
 ! A50   A(12,13,31)           108.6655         estimate D2E/DX2                !
 ! A51   A(14,13,15)           108.4476         estimate D2E/DX2                !
 ! A52   A(14,13,31)           109.916          estimate D2E/DX2                !
 ! A53   A(15,13,31)           107.1164         estimate D2E/DX2                !
 ! A54   A(13,14,32)           110.9868         estimate D2E/DX2                !
 ! A55   A(13,14,33)           113.4321         estimate D2E/DX2                !
 ! A56   A(13,14,34)           110.1835         estimate D2E/DX2                !
 ! A57   A(32,14,33)           106.6763         estimate D2E/DX2                !
 ! A58   A(32,14,34)           108.5751         estimate D2E/DX2                !
 ! A59   A(33,14,34)           106.7638         estimate D2E/DX2                !
 ! A60   A(13,15,35)           111.2726         estimate D2E/DX2                !
 ! A61   A(13,15,36)           110.0519         estimate D2E/DX2                !
 ! A62   A(13,15,37)           111.3416         estimate D2E/DX2                !
 ! A63   A(35,15,36)           107.9588         estimate D2E/DX2                !
 ! A64   A(35,15,37)           108.2164         estimate D2E/DX2                !
 ! A65   A(36,15,37)           107.8694         estimate D2E/DX2                !
 ! D1    D(16,1,2,3)          -157.5604         estimate D2E/DX2                !
 ! D2    D(16,1,2,18)           10.1462         estimate D2E/DX2                !
 ! D3    D(17,1,2,3)            13.4941         estimate D2E/DX2                !
 ! D4    D(17,1,2,18)         -178.7993         estimate D2E/DX2                !
 ! D5    D(1,2,3,4)            136.6114         estimate D2E/DX2                !
 ! D6    D(1,2,3,19)            15.2365         estimate D2E/DX2                !
 ! D7    D(1,2,3,20)          -101.8424         estimate D2E/DX2                !
 ! D8    D(18,2,3,4)           -32.3294         estimate D2E/DX2                !
 ! D9    D(18,2,3,19)         -153.7044         estimate D2E/DX2                !
 ! D10   D(18,2,3,20)           89.2168         estimate D2E/DX2                !
 ! D11   D(2,3,4,5)            -20.2984         estimate D2E/DX2                !
 ! D12   D(2,3,4,12)           158.6153         estimate D2E/DX2                !
 ! D13   D(19,3,4,5)           102.2629         estimate D2E/DX2                !
 ! D14   D(19,3,4,12)          -78.8234         estimate D2E/DX2                !
 ! D15   D(20,3,4,5)          -139.3073         estimate D2E/DX2                !
 ! D16   D(20,3,4,12)           39.6064         estimate D2E/DX2                !
 ! D17   D(3,4,5,6)              7.9674         estimate D2E/DX2                !
 ! D18   D(3,4,5,21)          -177.1745         estimate D2E/DX2                !
 ! D19   D(12,4,5,6)          -170.8179         estimate D2E/DX2                !
 ! D20   D(12,4,5,21)            4.0402         estimate D2E/DX2                !
 ! D21   D(3,4,12,13)         -169.4721         estimate D2E/DX2                !
 ! D22   D(3,4,12,29)           65.8743         estimate D2E/DX2                !
 ! D23   D(3,4,12,30)          -47.8309         estimate D2E/DX2                !
 ! D24   D(5,4,12,13)            9.5358         estimate D2E/DX2                !
 ! D25   D(5,4,12,29)         -115.1178         estimate D2E/DX2                !
 ! D26   D(5,4,12,30)          131.177          estimate D2E/DX2                !
 ! D27   D(4,5,6,7)           -105.5624         estimate D2E/DX2                !
 ! D28   D(4,5,6,8)            -33.7665         estimate D2E/DX2                !
 ! D29   D(4,5,6,22)           117.2666         estimate D2E/DX2                !
 ! D30   D(21,5,6,7)            79.3046         estimate D2E/DX2                !
 ! D31   D(21,5,6,8)           151.1004         estimate D2E/DX2                !
 ! D32   D(21,5,6,22)          -57.8664         estimate D2E/DX2                !
 ! D33   D(5,6,7,23)             7.1157         estimate D2E/DX2                !
 ! D34   D(5,6,7,24)          -139.7088         estimate D2E/DX2                !
 ! D35   D(22,6,7,23)          142.9772         estimate D2E/DX2                !
 ! D36   D(22,6,7,24)           -3.8472         estimate D2E/DX2                !
 ! D37   D(5,6,8,9)            135.0556         estimate D2E/DX2                !
 ! D38   D(5,6,8,25)           -14.0861         estimate D2E/DX2                !
 ! D39   D(22,6,8,9)           -14.5952         estimate D2E/DX2                !
 ! D40   D(22,6,8,25)         -163.7368         estimate D2E/DX2                !
 ! D41   D(23,7,8,9)          -151.5995         estimate D2E/DX2                !
 ! D42   D(23,7,8,25)          -14.354          estimate D2E/DX2                !
 ! D43   D(24,7,8,9)           -11.2995         estimate D2E/DX2                !
 ! D44   D(24,7,8,25)          125.946          estimate D2E/DX2                !
 ! D45   D(6,8,9,10)           -73.7509         estimate D2E/DX2                !
 ! D46   D(6,8,9,26)           164.2644         estimate D2E/DX2                !
 ! D47   D(6,8,9,27)            42.2795         estimate D2E/DX2                !
 ! D48   D(7,8,9,10)          -145.4505         estimate D2E/DX2                !
 ! D49   D(7,8,9,26)            92.5648         estimate D2E/DX2                !
 ! D50   D(7,8,9,27)           -29.4201         estimate D2E/DX2                !
 ! D51   D(25,8,9,10)           78.8521         estimate D2E/DX2                !
 ! D52   D(25,8,9,26)          -43.1325         estimate D2E/DX2                !
 ! D53   D(25,8,9,27)         -165.1175         estimate D2E/DX2                !
 ! D54   D(8,9,10,11)         -133.1092         estimate D2E/DX2                !
 ! D55   D(26,9,10,11)         -11.209          estimate D2E/DX2                !
 ! D56   D(27,9,10,11)         106.8428         estimate D2E/DX2                !
 ! D57   D(9,10,11,28)         148.7565         estimate D2E/DX2                !
 ! D58   D(4,12,13,14)          62.949          estimate D2E/DX2                !
 ! D59   D(4,12,13,15)        -175.9719         estimate D2E/DX2                !
 ! D60   D(4,12,13,31)         -58.6863         estimate D2E/DX2                !
 ! D61   D(29,12,13,14)       -173.4141         estimate D2E/DX2                !
 ! D62   D(29,12,13,15)        -52.335          estimate D2E/DX2                !
 ! D63   D(29,12,13,31)         64.9506         estimate D2E/DX2                !
 ! D64   D(30,12,13,14)        -59.0826         estimate D2E/DX2                !
 ! D65   D(30,12,13,15)         61.9965         estimate D2E/DX2                !
 ! D66   D(30,12,13,31)        179.2821         estimate D2E/DX2                !
 ! D67   D(12,13,14,32)         64.2831         estimate D2E/DX2                !
 ! D68   D(12,13,14,33)        -55.7984         estimate D2E/DX2                !
 ! D69   D(12,13,14,34)       -175.4178         estimate D2E/DX2                !
 ! D70   D(15,13,14,32)        -58.0039         estimate D2E/DX2                !
 ! D71   D(15,13,14,33)       -178.0854         estimate D2E/DX2                !
 ! D72   D(15,13,14,34)         62.2952         estimate D2E/DX2                !
 ! D73   D(31,13,14,32)       -174.8022         estimate D2E/DX2                !
 ! D74   D(31,13,14,33)         65.1163         estimate D2E/DX2                !
 ! D75   D(31,13,14,34)        -54.5031         estimate D2E/DX2                !
 ! D76   D(12,13,15,35)        -64.2003         estimate D2E/DX2                !
 ! D77   D(12,13,15,36)        176.1739         estimate D2E/DX2                !
 ! D78   D(12,13,15,37)         56.6156         estimate D2E/DX2                !
 ! D79   D(14,13,15,35)         58.9788         estimate D2E/DX2                !
 ! D80   D(14,13,15,36)        -60.647          estimate D2E/DX2                !
 ! D81   D(14,13,15,37)        179.7948         estimate D2E/DX2                !
 ! D82   D(31,13,15,35)        177.564          estimate D2E/DX2                !
 ! D83   D(31,13,15,36)         57.9382         estimate D2E/DX2                !
 ! D84   D(31,13,15,37)        -61.6201         estimate D2E/DX2                !
 --------------------------------------------------------------------------------
 Trust Radius=3.00D-01 FncErr=1.00D-07 GrdErr=1.00D-06 EigMax=2.50D+02 EigMin=1.00D-04
 Number of steps in this run=    196 maximum allowed number of steps=    222.
 GradGradGradGradGradGradGradGradGradGradGradGradGradGradGradGradGradGrad

                          Input orientation:                          
 ---------------------------------------------------------------------
 Center     Atomic      Atomic             Coordinates (Angstroms)
 Number     Number       Type             X           Y           Z
 ---------------------------------------------------------------------
      1          6           0        0.723890   -0.578660   -0.679650
      2          6           0        1.969630   -0.943110   -0.371970
      3          6           0        3.075730   -1.117410   -1.337590
      4          6           0        4.425170   -0.536700   -0.908780
      5          6           0        4.695720    0.416690    0.022990
      6          6           0        3.895700    1.127290    1.042980
      7          6           0        3.519420    2.562950    0.788230
      8          6           0        2.442330    1.507050    0.887730
      9          6           0        1.503800    1.239900    2.073870
     10          8           0        1.175650   -0.165420    2.258500
     11          8           0       -0.276150   -0.280160    2.455210
     12          6           0        5.536360   -1.236280   -1.706500
     13          6           0        7.001810   -1.009410   -1.289260
     14          6           0        7.285120   -1.533060    0.125150
     15          6           0        7.952420   -1.708570   -2.264000
     16          1           0        0.072050   -0.126240    0.066150
     17          1           0        0.341530   -0.576290   -1.691640
     18          1           0        2.340720   -0.960930    0.650080
     19          1           0        2.807190   -0.649490   -2.291140
     20          1           0        3.163680   -2.197280   -1.483410
     21          1           0        5.741270    0.709470    0.127710
     22          1           0        4.248540    0.916690    2.051730
     23          1           0        3.768180    2.946320   -0.202700
     24          1           0        3.531480    3.323460    1.553750
     25          1           0        1.915160    1.491540   -0.057480
     26          1           0        0.581650    1.806190    1.930710
     27          1           0        1.985060    1.514800    3.010980
     28          1           0       -0.381390   -1.165270    2.047170
     29          1           0        5.408990   -0.955920   -2.761140
     30          1           0        5.352590   -2.320690   -1.657710
     31          1           0        7.219120    0.064070   -1.340600
     32          1           0        7.162140   -2.619820    0.172840
     33          1           0        6.625330   -1.109310    0.885430
     34          1           0        8.308510   -1.284810    0.421610
     35          1           0        7.821960   -2.795910   -2.235400
     36          1           0        8.991820   -1.486060   -1.999640
     37          1           0        7.787760   -1.371160   -3.292000
 ---------------------------------------------------------------------
                    Distance matrix (angstroms):
                    1          2          3          4          5
     1  C    0.000000
     2  C    1.333926   0.000000
     3  C    2.500857   1.478601   0.000000
     4  C    3.708603   2.546176   1.530389   0.000000
     5  C    4.154499   3.071908   2.613237   1.360274   0.000000
     6  C    3.992255   3.162022   3.373150   2.618887   1.478298
     7  C    4.454141   4.005043   4.273292   3.648021   2.564314
     8  C    3.124084   2.795277   3.498719   3.366900   2.648476
     9  C    3.390766   3.311293   4.434629   4.537280   3.882285
    10  O    3.001263   2.855622   4.177134   4.552899   4.210374
    11  O    3.304017   3.670964   5.130440   5.786592   5.578601
    12  C    4.964550   3.819487   2.490969   1.536396   2.535768
    13  C    6.322140   5.115530   3.927863   2.647129   3.012277
    14  C    6.678946   5.371183   4.475638   3.200165   3.242985
    15  C    7.485887   6.321351   4.998981   3.956184   4.511446
    16  H    1.088943   2.111880   3.460491   4.479801   4.655637
    17  H    1.081817   2.127627   2.809628   4.158191   4.783820
    18  H    2.128016   1.087479   2.124984   2.637223   2.799483
    19  H    2.634778   2.114458   1.095591   2.131080   3.171511
    20  H    3.036204   2.057668   1.093214   2.163119   3.383671
    21  H    5.242634   4.148008   3.548196   2.087911   1.090808
    22  H    4.703155   3.811379   4.123171   3.302750   2.136763
    23  H    4.681951   4.288485   4.275671   3.614085   2.703756
    24  H    5.300677   4.934713   5.318729   4.665144   3.485397
    25  H    2.468187   2.455482   3.129253   3.337457   2.982162
    26  H    3.538604   3.845448   5.044765   5.322075   4.742961
    27  H    4.426497   4.181616   5.198861   5.052456   4.181101
    28  H    3.000217   3.380664   4.838447   5.677654   5.690075
    29  H    5.140534   4.187779   2.738006   2.138898   3.184995
    30  H    5.041442   3.872373   2.595082   2.145606   3.278640
    31  H    6.560333   5.432292   4.308548   2.890251   2.889856
    32  H    6.807653   5.483642   4.608403   3.605592   3.914853
    33  H    6.128463   4.825372   4.188263   2.896166   2.606890
    34  H    7.696615   6.397494   5.523115   4.172522   4.013259
    35  H    7.597312   6.415217   5.113719   4.289771   5.019412
    36  H    8.421663   7.228780   5.964422   4.790152   5.115463
    37  H    7.573024   6.523836   5.107576   4.205125   4.873015
                    6          7          8          9         10
     6  C    0.000000
     7  C    1.505857   0.000000
     8  C    1.510167   1.511604   0.000000
     9  C    2.607029   2.732408   1.535948   0.000000
    10  O    3.247655   3.885737   2.506121   1.454887   0.000000
    11  O    4.623812   5.026773   3.611267   2.371545   1.469552
    12  C    3.979682   4.972512   4.881486   6.056749   5.990305
    13  C    4.433142   5.404143   5.644530   6.826284   6.873359
    14  C    4.405456   5.603344   5.768571   6.701528   6.614170
    15  C    5.952747   6.871207   7.115807   8.312358   8.292100
    16  H    4.140753   4.431422   2.993469   2.819075   2.454764
    17  H    4.797130   5.109165   3.925152   4.339180   4.058100
    18  H    2.633058   3.718353   2.481477   2.751593   2.139448
    19  H    3.931686   4.506613   3.858627   4.931727   4.857517
    20  H    4.239253   5.286463   4.456985   5.217629   4.699214
    21  H    2.102004   2.967877   3.478041   4.693085   5.113764
    22  H    1.089231   2.199595   2.228411   2.763793   3.264409
    23  H    2.208359   1.091236   2.240182   3.636215   4.739372
    24  H    2.284011   1.079139   2.220175   2.953512   4.268359
    25  H    2.294827   2.106370   1.082391   2.185221   2.942134
    26  H    3.497413   3.241672   2.153932   1.091577   2.085073
    27  H    2.770150   2.897153   2.171945   1.088741   2.011097
    28  H    4.955575   5.540837   4.056968   3.056059   1.862454
    29  H    4.593598   5.343309   5.308629   6.591620   6.613837
    30  H    4.615715   5.761343   5.440632   6.435501   6.117901
    31  H    4.225756   4.946120   5.464922   6.760626   7.037735
    32  H    5.046544   6.364685   6.310208   7.108317   6.797950
    33  H    3.532433   4.810574   4.933846   5.758580   5.698707
    34  H    5.067269   6.154271   6.513357   7.443669   7.450160
    35  H    6.446301   7.508100   7.563718   8.647353   8.443225
    36  H    6.485181   7.356213   7.758314   8.949569   8.998242
    37  H    6.338962   7.095366   7.370743   8.665930   8.716757
                   11         12         13         14         15
    11  O    0.000000
    12  C    7.212438   0.000000
    13  C    8.217151   1.540488   0.000000
    14  C    8.010727   2.549741   1.534611   0.000000
    15  C    9.592740   2.524126   1.530556   2.486791   0.000000
    16  H    2.419203   5.850911   7.116087   7.349218   8.368608
    17  H    4.203045   5.236608   6.686466   7.240827   7.715912
    18  H    3.251146   3.980126   5.048678   5.004995   6.367260
    19  H    5.671969   2.852104   4.327602   5.164398   5.253168
    20  H    5.569606   2.569611   4.022433   4.473804   4.876494
    21  H    6.527325   2.681838   2.559553   2.722576   4.056646
    22  H    4.697666   4.518634   4.738414   4.351299   6.263884
    23  H    5.816465   4.783515   5.223483   5.704489   6.589751
    24  H    5.319469   5.953151   6.236959   6.302103   7.709815
    25  H    3.775496   4.824247   5.800521   6.165876   7.180386
    26  H    2.315983   6.858212   7.714549   7.703710   9.180271
    27  H    2.940040   6.514199   7.073293   6.760777   8.592143
    28  H    0.980302   7.008198   8.103561   7.912320   9.398604
    29  H    7.745178   1.098677   2.169416   3.490505   2.698642
    30  H    7.263786   1.100953   2.138957   2.744745   2.738867
    31  H    8.408671   2.157887   1.096457   2.168779   2.129002
    32  H    8.124739   2.844163   2.181023   1.094735   2.719027
    33  H    7.126158   2.814263   2.209297   1.092205   3.469754
    34  H    8.879259   3.495143   2.170342   1.094004   2.742056
    35  H    9.690728   2.817117   2.181607   2.730418   1.095512
    36  H   10.353509   3.476856   2.166097   2.725760   1.095331
    37  H    9.962296   2.756956   2.181639   3.457712   1.094414
                   16         17         18         19         20
    16  H    0.000000
    17  H    1.834391   0.000000
    18  H    2.486875   3.102960   0.000000
    19  H    3.648506   2.538550   2.994222   0.000000
    20  H    4.030945   3.261211   2.599539   1.781900   0.000000
    21  H    5.730816   5.841267   3.824506   4.038122   4.205814
    22  H    4.740601   5.613068   3.021565   4.836417   4.834351
    23  H    4.813967   5.134944   4.246349   4.267896   5.335003
    24  H    5.106960   5.993028   4.537679   5.576030   6.311750
    25  H    2.455514   3.069643   2.587731   3.220088   4.147225
    26  H    2.733233   4.342268   3.520127   5.367253   5.860961
    27  H    3.876163   5.402637   3.439416   5.785545   5.947119
    28  H    2.282462   3.853338   3.066512   5.408697   5.108577
    29  H    6.096299   5.192986   4.588107   2.661609   2.866180
    30  H    5.972554   5.306110   4.030658   3.110178   2.199304
    31  H    7.286685   6.916251   5.367701   4.569225   4.645502
    32  H    7.516562   7.360232   5.121110   5.377638   4.348492
    33  H    6.677060   6.812602   4.293634   4.988008   4.333371
    34  H    8.325137   8.272883   5.980938   6.166617   5.561563
    35  H    8.513834   7.821715   6.460429   5.455103   4.756408
    36  H    9.256290   8.703451   7.178712   6.247757   5.894026
    37  H    8.506420   7.657631   6.736359   5.131141   5.033447
                   21         22         23         24         25
    21  H    0.000000
    22  H    2.443980   0.000000
    23  H    3.000959   3.071254   0.000000
    24  H    3.708060   2.560215   1.812009   0.000000
    25  H    3.909610   3.197481   2.360330   2.926514   0.000000
    26  H    5.574521   3.775174   4.000663   3.338518   2.414571
    27  H    4.803219   2.530067   3.944174   2.790374   3.069344
    28  H    6.684754   5.076498   6.259874   5.975175   4.094183
    29  H    3.351028   5.293112   4.946246   6.360536   5.050414
    30  H    3.538455   5.045741   5.689359   6.744357   5.376780
    31  H    2.180944   4.589031   4.638013   5.709604   5.640573
    32  H    3.620094   4.952393   6.530077   7.100083   6.669867
    33  H    2.159551   3.333776   5.078924   5.446835   5.462527
    34  H    3.264085   4.897678   6.237533   6.733343   6.986599
    35  H    4.711820   6.703149   7.316981   8.379294   7.616814
    36  H    4.462291   6.684722   7.082471   8.097739   7.919419
    37  H    4.495727   6.805570   6.658936   7.977260   7.290034
                   26         27         28         29         30
    26  H    0.000000
    27  H    1.794840   0.000000
    28  H    3.125793   3.702943   0.000000
    29  H    7.276395   7.151582   7.529420   0.000000
    30  H    7.257394   6.917218   6.923847   1.755943   0.000000
    31  H    7.602135   6.959616   8.411659   2.516920   3.044926
    32  H    8.122963   7.207793   7.907824   3.801360   2.591305
    33  H    6.791084   5.738991   7.102598   3.847140   3.091095
    34  H    8.457897   7.384353   8.841442   4.318018   3.759532
    35  H    9.537184   8.954112   9.396507   3.079674   2.580184
    36  H    9.849747   9.121741  10.214531   3.701027   3.749336
    37  H    9.449882   9.040335   9.761359   2.472404   3.082623
                   31         32         33         34         35
    31  H    0.000000
    32  H    3.081722   0.000000
    33  H    2.585463   1.754306   0.000000
    34  H    2.472171   1.777161   1.754715   0.000000
    35  H    3.056725   2.503196   3.743811   3.095134   0.000000
    36  H    2.445343   3.058236   3.750446   2.523859   1.771966
    37  H    2.488212   3.735729   4.344045   3.750938   1.774115
                   36         37
    36  H    0.000000
    37  H    1.770073   0.000000
 Stoichiometry    C13H22O2
 Framework group  C1[X(C13H22O2)]
 Deg. of freedom   105
 Full point group                 C1      NOp   1
 Largest Abelian subgroup         C1      NOp   1
 Largest concise Abelian subgroup C1      NOp   1
                         Standard orientation:                         
 ---------------------------------------------------------------------
 Center     Atomic      Atomic             Coordinates (Angstroms)
 Number     Number       Type             X           Y           Z
 ---------------------------------------------------------------------
      1          6           0       -2.138231   -2.052975   -0.810225
      2          6           0       -1.095722   -1.572493   -0.130762
      3          6           0        0.321258   -1.692621   -0.535730
      4          6           0        1.165766   -0.427207   -0.369523
      5          6           0        0.764763    0.868310   -0.263799
      6          6           0       -0.543566    1.540922   -0.118090
      7          6           0       -1.120997    2.254335   -1.311916
      8          6           0       -1.835404    1.055396   -0.731299
      9          6           0       -3.090432    1.055170    0.154162
     10          8           0       -3.102873   -0.000324    1.155398
     11          8           0       -4.419850   -0.651679    1.125522
     12          6           0        2.646914   -0.830478   -0.305611
     13          6           0        3.685695    0.230699    0.104195
     14          6           0        3.459291    0.734871    1.535830
     15          6           0        5.102727   -0.340069    0.010132
     16          1           0       -3.136183   -1.640009   -0.671126
     17          1           0       -2.039249   -2.762112   -1.621185
     18          1           0       -1.204927   -0.874280    0.695788
     19          1           0        0.377762   -1.986676   -1.589608
     20          1           0        0.730053   -2.497597    0.080726
     21          1           0        1.555501    1.616915   -0.199105
     22          1           0       -0.614733    2.086394    0.822027
     23          1           0       -0.577815    2.120300   -2.248817
     24          1           0       -1.627451    3.204986   -1.246271
     25          1           0       -1.886299    0.301568   -1.506362
     26          1           0       -3.972417    0.955216   -0.481174
     27          1           0       -3.140866    1.968128    0.745196
     28          1           0       -4.115767   -1.545815    1.388285
     29          1           0        2.916166   -1.245896   -1.286438
     30          1           0        2.737647   -1.662121    0.410095
     31          1           0        3.627934    1.068771   -0.600445
     32          1           0        3.603913   -0.070830    2.262725
     33          1           0        2.455423    1.131369    1.703012
     34          1           0        4.160083    1.542570    1.766824
     35          1           0        5.249139   -1.159716    0.722093
     36          1           0        5.837570    0.439806    0.237179
     37          1           0        5.313931   -0.718118   -0.994962
 ---------------------------------------------------------------------
 Rotational constants (GHZ):           1.0670938           0.2796500           0.2541047
 Standard basis: 6-31G(2df,p) (6D, 7F)
 There are   575 symmetry adapted cartesian basis functions of A   symmetry.
 There are   530 symmetry adapted basis functions of A   symmetry.
   530 basis functions,   814 primitive gaussians,   575 cartesian basis functions
    58 alpha electrons       58 beta electrons
       nuclear repulsion energy      1032.2145172755 Hartrees.
 NAtoms=   37 NActive=   37 NUniq=   37 SFac= 1.00D+00 NAtFMM=   60 NAOKFM=F Big=F
 Integral buffers will be    131072 words long.
 Raffenetti 2 integral format.
 Two-electron integral symmetry is turned on.
 One-electron integrals computed using PRISM.
 PrsmSu:  requested number of processors reduced to:  12 ShMem   1 Linda.
 NBasis=   530 RedAO= T EigKep=  4.37D-04  NBF=   530
 NBsUse=   530 1.00D-06 EigRej= -1.00D+00 NBFU=   530
 ExpMin= 1.61D-01 ExpMax= 5.48D+03 ExpMxC= 8.25D+02 IAcc=3 IRadAn=         5 AccDes= 0.00D+00
 Harris functional with IExCor=  402 and IRadAn=       5 diagonalized for initial guess.
 HarFok:  IExCor=  402 AccDes= 0.00D+00 IRadAn=         5 IDoV= 1 UseB2=F ITyADJ=14
 ICtDFT=  3500011 ScaDFX=  1.000000  1.000000  1.000000  1.000000
 FoFCou: FMM=F IPFlag=           0 FMFlag=      100000 FMFlg1=           0
         NFxFlg=           0 DoJE=T BraDBF=F KetDBF=T FulRan=T
         wScrn=  0.000000 ICntrl=       500 IOpCl=  0 I1Cent=   200000004 NGrid=           0
         NMat0=    1 NMatS0=      1 NMatT0=    0 NMatD0=    1 NMtDS0=    0 NMtDT0=    0
 Petite list used in FoFCou.
 Requested convergence on RMS density matrix=1.00D-08 within 128 cycles.
 Requested convergence on MAX density matrix=1.00D-06.
 Requested convergence on             energy=1.00D-06.
 No special actions if energy rises.
 Integral accuracy reduced to 1.0D-05 until final iterations.
 Initial convergence to 1.0D-05 achieved.  Increase integral accuracy.
 SCF Done:  E(RB3LYP) =  -658.911439135     A.U. after   14 cycles
            NFock= 14  Conv=0.26D-08     -V/T= 2.0080

 **********************************************************************

            Population analysis using the SCF density.

 **********************************************************************

 Orbital symmetries:
       Occupied  (A) (A) (A) (A) (A) (A) (A) (A) (A) (A) (A) (A)
                 (A) (A) (A) (A) (A) (A) (A) (A) (A) (A) (A) (A)
                 (A) (A) (A) (A) (A) (A) (A) (A) (A) (A) (A) (A)
                 (A) (A) (A) (A) (A) (A) (A) (A) (A) (A) (A) (A)
                 (A) (A) (A) (A) (A) (A) (A) (A) (A) (A)
       Virtual   (A) (A) (A) (A) (A) (A) (A) (A) (A) (A) (A) (A)
                 (A) (A) (A) (A) (A) (A) (A) (A) (A) (A) (A) (A)
                 (A) (A) (A) (A) (A) (A) (A) (A) (A) (A) (A) (A)
                 (A) (A) (A) (A) (A) (A) (A) (A) (A) (A) (A) (A)
                 (A) (A) (A) (A) (A) (A) (A) (A) (A) (A) (A) (A)
                 (A) (A) (A) (A) (A) (A) (A) (A) (A) (A) (A) (A)
                 (A) (A) (A) (A) (A) (A) (A) (A) (A) (A) (A) (A)
                 (A) (A) (A) (A) (A) (A) (A) (A) (A) (A) (A) (A)
                 (A) (A) (A) (A) (A) (A) (A) (A) (A) (A) (A) (A)
                 (A) (A) (A) (A) (A) (A) (A) (A) (A) (A) (A) (A)
                 (A) (A) (A) (A) (A) (A) (A) (A) (A) (A) (A) (A)
                 (A) (A) (A) (A) (A) (A) (A) (A) (A) (A) (A) (A)
                 (A) (A) (A) (A) (A) (A) (A) (A) (A) (A) (A) (A)
                 (A) (A) (A) (A) (A) (A) (A) (A) (A) (A) (A) (A)
                 (A) (A) (A) (A) (A) (A) (A) (A) (A) (A) (A) (A)
                 (A) (A) (A) (A) (A) (A) (A) (A) (A) (A) (A) (A)
                 (A) (A) (A) (A) (A) (A) (A) (A) (A) (A) (A) (A)
                 (A) (A) (A) (A) (A) (A) (A) (A) (A) (A) (A) (A)
                 (A) (A) (A) (A) (A) (A) (A) (A) (A) (A) (A) (A)
                 (A) (A) (A) (A) (A) (A) (A) (A) (A) (A) (A) (A)
                 (A) (A) (A) (A) (A) (A) (A) (A) (A) (A) (A) (A)
                 (A) (A) (A) (A) (A) (A) (A) (A) (A) (A) (A) (A)
                 (A) (A) (A) (A) (A) (A) (A) (A) (A) (A) (A) (A)
                 (A) (A) (A) (A) (A) (A) (A) (A) (A) (A) (A) (A)
                 (A) (A) (A) (A) (A) (A) (A) (A) (A) (A) (A) (A)
                 (A) (A) (A) (A) (A) (A) (A) (A) (A) (A) (A) (A)
                 (A) (A) (A) (A) (A) (A) (A) (A) (A) (A) (A) (A)
                 (A) (A) (A) (A) (A) (A) (A) (A) (A) (A) (A) (A)
                 (A) (A) (A) (A) (A) (A) (A) (A) (A) (A) (A) (A)
                 (A) (A) (A) (A) (A) (A) (A) (A) (A) (A) (A) (A)
                 (A) (A) (A) (A) (A) (A) (A) (A) (A) (A) (A) (A)
                 (A) (A) (A) (A) (A) (A) (A) (A) (A) (A) (A) (A)
                 (A) (A) (A) (A) (A) (A) (A) (A) (A) (A) (A) (A)
                 (A) (A) (A) (A) (A) (A) (A) (A) (A) (A) (A) (A)
                 (A) (A) (A) (A) (A) (A) (A) (A) (A) (A) (A) (A)
                 (A) (A) (A) (A) (A) (A) (A) (A) (A) (A) (A) (A)
                 (A) (A) (A) (A) (A) (A) (A) (A) (A) (A) (A) (A)
                 (A) (A) (A) (A) (A) (A) (A) (A) (A) (A) (A) (A)
                 (A) (A) (A) (A) (A) (A) (A) (A) (A) (A) (A) (A)
                 (A) (A) (A) (A)
 The electronic state is 1-A.
 Alpha  occ. eigenvalues --  -19.19091 -19.18739 -10.23313 -10.19699 -10.19249
 Alpha  occ. eigenvalues --  -10.18788 -10.18590 -10.18363 -10.18053 -10.17952
 Alpha  occ. eigenvalues --  -10.17671 -10.16959 -10.16912 -10.16496 -10.15866
 Alpha  occ. eigenvalues --   -1.09865  -0.90619  -0.86269  -0.82011  -0.78994
 Alpha  occ. eigenvalues --   -0.74963  -0.70108  -0.67873  -0.67253  -0.66851
 Alpha  occ. eigenvalues --   -0.60071  -0.57692  -0.56929  -0.54190  -0.52388
 Alpha  occ. eigenvalues --   -0.50910  -0.48344  -0.48060  -0.46558  -0.45228
 Alpha  occ. eigenvalues --   -0.44838  -0.43502  -0.43287  -0.41748  -0.41490
 Alpha  occ. eigenvalues --   -0.39409  -0.38852  -0.37948  -0.37735  -0.37426
 Alpha  occ. eigenvalues --   -0.36547  -0.35914  -0.34576  -0.33476  -0.32645
 Alpha  occ. eigenvalues --   -0.32343  -0.31889  -0.30250  -0.29847  -0.27664
 Alpha  occ. eigenvalues --   -0.24510  -0.23295  -0.21898
 Alpha virt. eigenvalues --    0.01346   0.01793   0.01960   0.08498   0.08660
 Alpha virt. eigenvalues --    0.09626   0.10544   0.11176   0.12364   0.13462
 Alpha virt. eigenvalues --    0.14018   0.14271   0.15064   0.15418   0.15862
 Alpha virt. eigenvalues --    0.16050   0.16433   0.18110   0.18379   0.18826
 Alpha virt. eigenvalues --    0.19001   0.19560   0.19689   0.21188   0.21869
 Alpha virt. eigenvalues --    0.22555   0.22781   0.24036   0.24688   0.25242
 Alpha virt. eigenvalues --    0.26056   0.27292   0.27990   0.28904   0.30535
 Alpha virt. eigenvalues --    0.32172   0.35036   0.35468   0.40121   0.43349
 Alpha virt. eigenvalues --    0.44248   0.44407   0.46140   0.46679   0.47229
 Alpha virt. eigenvalues --    0.47924   0.48548   0.49402   0.50304   0.51808
 Alpha virt. eigenvalues --    0.52887   0.53959   0.54444   0.55444   0.55959
 Alpha virt. eigenvalues --    0.57123   0.57824   0.58095   0.59929   0.60446
 Alpha virt. eigenvalues --    0.61441   0.62443   0.63116   0.63933   0.64267
 Alpha virt. eigenvalues --    0.64819   0.66343   0.67487   0.67746   0.68522
 Alpha virt. eigenvalues --    0.69765   0.70097   0.71428   0.71869   0.73172
 Alpha virt. eigenvalues --    0.74077   0.74248   0.74535   0.75056   0.75456
 Alpha virt. eigenvalues --    0.76714   0.76835   0.77196   0.77891   0.79005
 Alpha virt. eigenvalues --    0.79454   0.80039   0.80288   0.80749   0.81217
 Alpha virt. eigenvalues --    0.81840   0.82542   0.83448   0.84118   0.84429
 Alpha virt. eigenvalues --    0.84773   0.85860   0.86661   0.87537   0.87794
 Alpha virt. eigenvalues --    0.88856   0.89639   0.89980   0.90892   0.92026
 Alpha virt. eigenvalues --    0.94431   0.95417   0.96993   0.98667   0.99899
 Alpha virt. eigenvalues --    1.01147   1.01314   1.02975   1.03193   1.04927
 Alpha virt. eigenvalues --    1.06982   1.07309   1.08151   1.08975   1.10990
 Alpha virt. eigenvalues --    1.12273   1.12848   1.13863   1.17070   1.18409
 Alpha virt. eigenvalues --    1.18971   1.19875   1.21827   1.23919   1.25877
 Alpha virt. eigenvalues --    1.26832   1.27972   1.28671   1.30204   1.31845
 Alpha virt. eigenvalues --    1.32644   1.34392   1.36546   1.37397   1.37991
 Alpha virt. eigenvalues --    1.39150   1.40905   1.41349   1.43075   1.43832
 Alpha virt. eigenvalues --    1.46021   1.47427   1.47862   1.48917   1.50031
 Alpha virt. eigenvalues --    1.50719   1.51332   1.52512   1.54258   1.55211
 Alpha virt. eigenvalues --    1.56213   1.56395   1.58085   1.59701   1.61004
 Alpha virt. eigenvalues --    1.61141   1.62907   1.63476   1.64584   1.65695
 Alpha virt. eigenvalues --    1.66711   1.67707   1.69871   1.71458   1.74023
 Alpha virt. eigenvalues --    1.74525   1.76136   1.78470   1.79771   1.82130
 Alpha virt. eigenvalues --    1.83374   1.84321   1.84801   1.85827   1.87037
 Alpha virt. eigenvalues --    1.87953   1.89917   1.90800   1.91494   1.94064
 Alpha virt. eigenvalues --    1.95904   1.96705   1.97828   2.00068   2.01009
 Alpha virt. eigenvalues --    2.02995   2.03779   2.05999   2.09968   2.10271
 Alpha virt. eigenvalues --    2.11543   2.17104   2.18034   2.19580   2.21180
 Alpha virt. eigenvalues --    2.21813   2.22531   2.23846   2.23999   2.26347
 Alpha virt. eigenvalues --    2.27161   2.28912   2.29736   2.31872   2.32571
 Alpha virt. eigenvalues --    2.34281   2.36253   2.39114   2.40115   2.42027
 Alpha virt. eigenvalues --    2.44263   2.45027   2.46842   2.47885   2.48166
 Alpha virt. eigenvalues --    2.53687   2.54814   2.56198   2.57182   2.59386
 Alpha virt. eigenvalues --    2.60942   2.62976   2.65619   2.66243   2.67919
 Alpha virt. eigenvalues --    2.68937   2.70682   2.74382   2.75708   2.76389
 Alpha virt. eigenvalues --    2.77607   2.77855   2.78114   2.78785   2.80653
 Alpha virt. eigenvalues --    2.80776   2.82071   2.83311   2.83417   2.85531
 Alpha virt. eigenvalues --    2.86535   2.87229   2.88067   2.89082   2.89898
 Alpha virt. eigenvalues --    2.91012   2.91909   2.92796   2.93378   2.94294
 Alpha virt. eigenvalues --    2.94946   2.95349   2.95951   2.96835   2.97800
 Alpha virt. eigenvalues --    2.99744   3.01254   3.02770   3.03460   3.04656
 Alpha virt. eigenvalues --    3.05835   3.08202   3.09245   3.10475   3.11500
 Alpha virt. eigenvalues --    3.13470   3.14087   3.15010   3.15929   3.17883
 Alpha virt. eigenvalues --    3.19080   3.19524   3.20438   3.22403   3.25173
 Alpha virt. eigenvalues --    3.26661   3.27721   3.28443   3.28907   3.30038
 Alpha virt. eigenvalues --    3.32240   3.33004   3.33593   3.34145   3.36227
 Alpha virt. eigenvalues --    3.38688   3.39753   3.41036   3.41362   3.42486
 Alpha virt. eigenvalues --    3.44309   3.45738   3.47094   3.48306   3.50094
 Alpha virt. eigenvalues --    3.51024   3.52672   3.52877   3.55022   3.55719
 Alpha virt. eigenvalues --    3.57224   3.58862   3.59792   3.61045   3.61352
 Alpha virt. eigenvalues --    3.64115   3.65020   3.66349   3.67037   3.68250
 Alpha virt. eigenvalues --    3.68549   3.69759   3.71208   3.73581   3.74266
 Alpha virt. eigenvalues --    3.75778   3.79597   3.79849   3.81611   3.82680
 Alpha virt. eigenvalues --    3.84372   3.85916   3.87366   3.89869   3.91627
 Alpha virt. eigenvalues --    3.94067   3.95279   3.96837   4.01113   4.02324
 Alpha virt. eigenvalues --    4.03738   4.05302   4.09742   4.12357   4.12922
 Alpha virt. eigenvalues --    4.13709   4.14518   4.15908   4.18441   4.19741
 Alpha virt. eigenvalues --    4.21325   4.22173   4.25962   4.27977   4.29454
 Alpha virt. eigenvalues --    4.32058   4.34103   4.34632   4.37008   4.38109
 Alpha virt. eigenvalues --    4.39936   4.40288   4.41697   4.42928   4.44204
 Alpha virt. eigenvalues --    4.44585   4.45226   4.46380   4.46828   4.47714
 Alpha virt. eigenvalues --    4.48232   4.49925   4.52042   4.52657   4.52769
 Alpha virt. eigenvalues --    4.54973   4.55177   4.57423   4.58922   4.59616
 Alpha virt. eigenvalues --    4.61337   4.61756   4.62547   4.64584   4.66457
 Alpha virt. eigenvalues --    4.67207   4.67382   4.68258   4.70041   4.71305
 Alpha virt. eigenvalues --    4.72207   4.72468   4.73772   4.74457   4.75002
 Alpha virt. eigenvalues --    4.75589   4.76511   4.77387   4.78999   4.80396
 Alpha virt. eigenvalues --    4.81505   4.81996   4.82142   4.83072   4.83691
 Alpha virt. eigenvalues --    4.84365   4.85533   4.86315   4.87228   4.88259
 Alpha virt. eigenvalues --    4.90723   4.91127   4.94048   4.95602   4.96741
 Alpha virt. eigenvalues --    4.97056   4.99832   5.00902   5.01891   5.03827
 Alpha virt. eigenvalues --    5.07157   5.09133   5.10322   5.12323   5.13747
 Alpha virt. eigenvalues --    5.16040   5.19992   5.26079   5.28472   5.31019
 Alpha virt. eigenvalues --    5.34161   5.36412   5.36870   5.38869   5.41293
 Alpha virt. eigenvalues --    5.41760   5.44621   5.46655   5.48640   5.51081
 Alpha virt. eigenvalues --    5.51635   5.52756   5.54692   5.57416   5.61595
 Alpha virt. eigenvalues --    5.66045   5.67670   5.71969   5.74278   5.77400
 Alpha virt. eigenvalues --    5.78624   5.87919   5.93253   6.07074   6.12051
 Alpha virt. eigenvalues --    6.17517   6.22958   6.25521   6.38961   6.76365
 Alpha virt. eigenvalues --    6.87223   7.15036  10.50628  10.77937  11.09513
 Alpha virt. eigenvalues --   11.32498  11.56008  11.70794  11.79878  11.99631
 Alpha virt. eigenvalues --   12.19724  12.35768  12.43335  12.67177  12.72739
 Alpha virt. eigenvalues --   12.96919  13.45271
          Condensed to atoms (all electrons):
               1          2          3          4          5          6
     1  C    5.113778   0.662078  -0.020374  -0.000769   0.001304  -0.001531
     2  C    0.662078   4.648515   0.388126  -0.018620  -0.009301   0.001116
     3  C   -0.020374   0.388126   5.076003   0.371705  -0.021665  -0.019313
     4  C   -0.000769  -0.018620   0.371705   4.582321   0.694374  -0.001082
     5  C    0.001304  -0.009301  -0.021665   0.694374   4.807485   0.389077
     6  C   -0.001531   0.001116  -0.019313  -0.001082   0.389077   4.840646
     7  C    0.001084   0.001531   0.000156  -0.000516  -0.006620   0.284037
     8  C   -0.011830  -0.015258   0.002448  -0.015489  -0.006067   0.329389
     9  C    0.002026  -0.000878  -0.000388   0.000558   0.001902  -0.009125
    10  O    0.000891  -0.012400   0.001197  -0.000065   0.000105  -0.002501
    11  O   -0.007813   0.000439  -0.000010  -0.000000   0.000002  -0.000024
    12  C   -0.000098   0.002239  -0.075675   0.373131  -0.022045   0.006851
    13  C    0.000002  -0.000121   0.002377  -0.027392  -0.002003   0.000062
    14  C   -0.000000   0.000010   0.000131  -0.005601  -0.005135   0.000185
    15  C   -0.000000   0.000001  -0.000092   0.002986  -0.000100  -0.000010
    16  H    0.345699  -0.012749   0.004822  -0.000084  -0.000047   0.000264
    17  H    0.358544  -0.018975  -0.015542   0.000179  -0.000030  -0.000028
    18  H   -0.049335   0.377440  -0.069868   0.001443  -0.004794   0.003644
    19  H   -0.012460  -0.012463   0.332625  -0.020632  -0.004987   0.000488
    20  H    0.001688  -0.034902   0.348640  -0.034723   0.002505   0.000221
    21  H   -0.000010  -0.000172   0.007741  -0.037092   0.351926  -0.064354
    22  H   -0.000064  -0.000144   0.000197   0.001194  -0.045126   0.385246
    23  H    0.000007   0.000118   0.000016   0.001862  -0.005288  -0.016337
    24  H   -0.000017  -0.000019  -0.000001  -0.000114   0.001505  -0.013336
    25  H    0.002404   0.003801   0.001576  -0.000779  -0.000704  -0.031518
    26  H   -0.001214   0.000051   0.000008  -0.000007  -0.000171   0.003617
    27  H    0.000038  -0.000034   0.000038  -0.000049   0.000515  -0.007740
    28  H    0.004865   0.000569  -0.000014   0.000002  -0.000002   0.000037
    29  H    0.000012   0.000387   0.002750  -0.023835  -0.003008  -0.000100
    30  H   -0.000012   0.000085  -0.005924  -0.029872   0.000329  -0.000130
    31  H   -0.000000  -0.000000   0.000027  -0.004507   0.000706   0.000045
    32  H    0.000000  -0.000000  -0.000016   0.000236   0.000249   0.000001
    33  H    0.000000  -0.000004  -0.000073   0.004125   0.005974  -0.000149
    34  H    0.000000  -0.000000  -0.000000   0.000240  -0.000001  -0.000005
    35  H    0.000000   0.000000  -0.000007   0.000123   0.000008   0.000000
    36  H    0.000000  -0.000000   0.000001  -0.000125   0.000008   0.000000
    37  H    0.000000   0.000000   0.000005   0.000086   0.000026   0.000000
               7          8          9         10         11         12
     1  C    0.001084  -0.011830   0.002026   0.000891  -0.007813  -0.000098
     2  C    0.001531  -0.015258  -0.000878  -0.012400   0.000439   0.002239
     3  C    0.000156   0.002448  -0.000388   0.001197  -0.000010  -0.075675
     4  C   -0.000516  -0.015489   0.000558  -0.000065  -0.000000   0.373131
     5  C   -0.006620  -0.006067   0.001902   0.000105   0.000002  -0.022045
     6  C    0.284037   0.329389  -0.009125  -0.002501  -0.000024   0.006851
     7  C    5.127264   0.279367  -0.007795   0.001859  -0.000027  -0.000107
     8  C    0.279367   4.811471   0.405906  -0.030518   0.001498  -0.000133
     9  C   -0.007795   0.405906   4.770843   0.299805  -0.046385  -0.000001
    10  O    0.001859  -0.030518   0.299805   7.897016   0.106537  -0.000000
    11  O   -0.000027   0.001498  -0.046385   0.106537   7.957959   0.000000
    12  C   -0.000107  -0.000133  -0.000001  -0.000000   0.000000   4.981798
    13  C    0.000011   0.000001   0.000000   0.000000   0.000000   0.417764
    14  C    0.000002  -0.000004   0.000000  -0.000000   0.000000  -0.028657
    15  C    0.000000   0.000000  -0.000000   0.000000   0.000000  -0.034012
    16  H   -0.000050  -0.000549  -0.002149  -0.002423   0.016904   0.000002
    17  H    0.000000  -0.000090  -0.000047   0.000128   0.000090  -0.000000
    18  H    0.000519  -0.002603  -0.008394   0.019269  -0.000725   0.000417
    19  H    0.000070  -0.000117  -0.000009  -0.000010   0.000000   0.001179
    20  H    0.000001  -0.000077   0.000003   0.000001   0.000000  -0.006275
    21  H   -0.002255   0.006016  -0.000136  -0.000001   0.000000  -0.024553
    22  H   -0.037691  -0.037049  -0.002942   0.000245  -0.000009  -0.000107
    23  H    0.369897  -0.013458   0.002229  -0.000024   0.000000  -0.000026
    24  H    0.356276  -0.015457  -0.007944   0.000005   0.000000   0.000002
    25  H   -0.037874   0.388841  -0.045887   0.000532   0.000024  -0.000002
    26  H   -0.000774  -0.022435   0.345921  -0.019495   0.004030   0.000000
    27  H   -0.005540  -0.030767   0.352854  -0.029014   0.003045  -0.000000
    28  H   -0.000002  -0.000291   0.002674  -0.034540   0.285500  -0.000000
    29  H    0.000013  -0.000002  -0.000000  -0.000000  -0.000000   0.344013
    30  H   -0.000002  -0.000003   0.000000  -0.000000   0.000000   0.349099
    31  H   -0.000018  -0.000001   0.000000   0.000000   0.000000  -0.040348
    32  H   -0.000000   0.000000  -0.000000   0.000000  -0.000000  -0.006474
    33  H    0.000028   0.000017  -0.000001   0.000000  -0.000000  -0.003538
    34  H    0.000000   0.000000  -0.000000   0.000000   0.000000   0.003722
    35  H    0.000000  -0.000000   0.000000  -0.000000  -0.000000  -0.005603
    36  H   -0.000000  -0.000000   0.000000   0.000000   0.000000   0.003310
    37  H    0.000000  -0.000000   0.000000   0.000000  -0.000000  -0.003124
              13         14         15         16         17         18
     1  C    0.000002  -0.000000  -0.000000   0.345699   0.358544  -0.049335
     2  C   -0.000121   0.000010   0.000001  -0.012749  -0.018975   0.377440
     3  C    0.002377   0.000131  -0.000092   0.004822  -0.015542  -0.069868
     4  C   -0.027392  -0.005601   0.002986  -0.000084   0.000179   0.001443
     5  C   -0.002003  -0.005135  -0.000100  -0.000047  -0.000030  -0.004794
     6  C    0.000062   0.000185  -0.000010   0.000264  -0.000028   0.003644
     7  C    0.000011   0.000002   0.000000  -0.000050   0.000000   0.000519
     8  C    0.000001  -0.000004   0.000000  -0.000549  -0.000090  -0.002603
     9  C    0.000000   0.000000  -0.000000  -0.002149  -0.000047  -0.008394
    10  O    0.000000  -0.000000   0.000000  -0.002423   0.000128   0.019269
    11  O    0.000000   0.000000   0.000000   0.016904   0.000090  -0.000725
    12  C    0.417764  -0.028657  -0.034012   0.000002  -0.000000   0.000417
    13  C    4.610481   0.413283   0.398182  -0.000000   0.000000  -0.000002
    14  C    0.413283   4.994201  -0.046456   0.000000  -0.000000  -0.000008
    15  C    0.398182  -0.046456   5.017471   0.000000   0.000000   0.000000
    16  H   -0.000000   0.000000   0.000000   0.584415  -0.046234  -0.007324
    17  H    0.000000  -0.000000   0.000000  -0.046234   0.616174   0.006352
    18  H   -0.000002  -0.000008   0.000000  -0.007324   0.006352   0.603431
    19  H   -0.000073  -0.000002   0.000007  -0.000140   0.006010   0.006567
    20  H    0.000511  -0.000003  -0.000015  -0.000227   0.000657   0.000754
    21  H    0.005690  -0.001952  -0.000359  -0.000001  -0.000000  -0.000087
    22  H    0.000009   0.000080  -0.000000  -0.000003   0.000000   0.000272
    23  H   -0.000003  -0.000000  -0.000000   0.000000  -0.000001   0.000015
    24  H   -0.000000   0.000000   0.000000   0.000000  -0.000000  -0.000011
    25  H   -0.000000   0.000000   0.000000  -0.000714   0.000530  -0.001407
    26  H   -0.000000  -0.000000   0.000000   0.001991  -0.000020   0.000641
    27  H    0.000000   0.000000   0.000000   0.000019   0.000001   0.000140
    28  H   -0.000000  -0.000000  -0.000000  -0.000479  -0.000109  -0.000183
    29  H   -0.030155   0.005552  -0.004525  -0.000000   0.000001   0.000017
    30  H   -0.028887  -0.009398  -0.004389  -0.000000   0.000000  -0.000018
    31  H    0.364478  -0.048792  -0.041317   0.000000  -0.000000  -0.000001
    32  H   -0.026246   0.371588  -0.006446   0.000000  -0.000000   0.000001
    33  H   -0.025681   0.368888   0.005341  -0.000000   0.000000   0.000032
    34  H   -0.026245   0.370987  -0.002819  -0.000000   0.000000   0.000000
    35  H   -0.024027  -0.007283   0.372184   0.000000  -0.000000  -0.000000
    36  H   -0.020982  -0.002354   0.369856  -0.000000   0.000000  -0.000000
    37  H   -0.022344   0.005081   0.366050   0.000000  -0.000000  -0.000000
              19         20         21         22         23         24
     1  C   -0.012460   0.001688  -0.000010  -0.000064   0.000007  -0.000017
     2  C   -0.012463  -0.034902  -0.000172  -0.000144   0.000118  -0.000019
     3  C    0.332625   0.348640   0.007741   0.000197   0.000016  -0.000001
     4  C   -0.020632  -0.034723  -0.037092   0.001194   0.001862  -0.000114
     5  C   -0.004987   0.002505   0.351926  -0.045126  -0.005288   0.001505
     6  C    0.000488   0.000221  -0.064354   0.385246  -0.016337  -0.013336
     7  C    0.000070   0.000001  -0.002255  -0.037691   0.369897   0.356276
     8  C   -0.000117  -0.000077   0.006016  -0.037049  -0.013458  -0.015457
     9  C   -0.000009   0.000003  -0.000136  -0.002942   0.002229  -0.007944
    10  O   -0.000010   0.000001  -0.000001   0.000245  -0.000024   0.000005
    11  O    0.000000   0.000000   0.000000  -0.000009   0.000000   0.000000
    12  C    0.001179  -0.006275  -0.024553  -0.000107  -0.000026   0.000002
    13  C   -0.000073   0.000511   0.005690   0.000009  -0.000003  -0.000000
    14  C   -0.000002  -0.000003  -0.001952   0.000080  -0.000000   0.000000
    15  C    0.000007  -0.000015  -0.000359  -0.000000  -0.000000   0.000000
    16  H   -0.000140  -0.000227  -0.000001  -0.000003   0.000000   0.000000
    17  H    0.006010   0.000657  -0.000000   0.000000  -0.000001  -0.000000
    18  H    0.006567   0.000754  -0.000087   0.000272   0.000015  -0.000011
    19  H    0.626750  -0.035214  -0.000259  -0.000011  -0.000041  -0.000001
    20  H   -0.035214   0.638244  -0.000140   0.000023   0.000002   0.000000
    21  H   -0.000259  -0.000140   0.670341  -0.002244   0.000937   0.000270
    22  H   -0.000011   0.000023  -0.002244   0.631338   0.004039  -0.005586
    23  H   -0.000041   0.000002   0.000937   0.004039   0.589545  -0.042155
    24  H   -0.000001   0.000000   0.000270  -0.005586  -0.042155   0.614224
    25  H   -0.000118   0.000090   0.000044   0.003043  -0.008550   0.003846
    26  H   -0.000002   0.000000   0.000003   0.000131   0.000085   0.000536
    27  H   -0.000000   0.000000   0.000008   0.002583  -0.000215   0.003730
    28  H    0.000001  -0.000006   0.000000   0.000001  -0.000000   0.000000
    29  H    0.001775  -0.000555   0.000188  -0.000003  -0.000005  -0.000000
    30  H   -0.000150   0.008307   0.000237   0.000016   0.000001   0.000000
    31  H   -0.000005   0.000015   0.003992   0.000020   0.000013   0.000000
    32  H    0.000001  -0.000016   0.000005  -0.000003   0.000000  -0.000000
    33  H    0.000007  -0.000039  -0.000252   0.000109  -0.000001  -0.000001
    34  H    0.000000  -0.000001   0.000409  -0.000006  -0.000000  -0.000000
    35  H    0.000000  -0.000002   0.000010   0.000000  -0.000000  -0.000000
    36  H   -0.000000   0.000000   0.000023   0.000000   0.000000  -0.000000
    37  H   -0.000000  -0.000000   0.000016  -0.000000  -0.000000  -0.000000
              25         26         27         28         29         30
     1  C    0.002404  -0.001214   0.000038   0.004865   0.000012  -0.000012
     2  C    0.003801   0.000051  -0.000034   0.000569   0.000387   0.000085
     3  C    0.001576   0.000008   0.000038  -0.000014   0.002750  -0.005924
     4  C   -0.000779  -0.000007  -0.000049   0.000002  -0.023835  -0.029872
     5  C   -0.000704  -0.000171   0.000515  -0.000002  -0.003008   0.000329
     6  C   -0.031518   0.003617  -0.007740   0.000037  -0.000100  -0.000130
     7  C   -0.037874  -0.000774  -0.005540  -0.000002   0.000013  -0.000002
     8  C    0.388841  -0.022435  -0.030767  -0.000291  -0.000002  -0.000003
     9  C   -0.045887   0.345921   0.352854   0.002674  -0.000000   0.000000
    10  O    0.000532  -0.019495  -0.029014  -0.034540  -0.000000  -0.000000
    11  O    0.000024   0.004030   0.003045   0.285500  -0.000000   0.000000
    12  C   -0.000002   0.000000  -0.000000  -0.000000   0.344013   0.349099
    13  C   -0.000000  -0.000000   0.000000  -0.000000  -0.030155  -0.028887
    14  C    0.000000  -0.000000   0.000000  -0.000000   0.005552  -0.009398
    15  C    0.000000   0.000000   0.000000  -0.000000  -0.004525  -0.004389
    16  H   -0.000714   0.001991   0.000019  -0.000479  -0.000000  -0.000000
    17  H    0.000530  -0.000020   0.000001  -0.000109   0.000001   0.000000
    18  H   -0.001407   0.000641   0.000140  -0.000183   0.000017  -0.000018
    19  H   -0.000118  -0.000002  -0.000000   0.000001   0.001775  -0.000150
    20  H    0.000090   0.000000   0.000000  -0.000006  -0.000555   0.008307
    21  H    0.000044   0.000003   0.000008   0.000000   0.000188   0.000237
    22  H    0.003043   0.000131   0.002583   0.000001  -0.000003   0.000016
    23  H   -0.008550   0.000085  -0.000215  -0.000000  -0.000005   0.000001
    24  H    0.003846   0.000536   0.003730   0.000000  -0.000000   0.000000
    25  H    0.606020  -0.004270   0.006120  -0.000043  -0.000001   0.000001
    26  H   -0.004270   0.606538  -0.037708   0.000450  -0.000000   0.000000
    27  H    0.006120  -0.037708   0.641224  -0.000268   0.000000  -0.000000
    28  H   -0.000043   0.000450  -0.000268   0.422446  -0.000000  -0.000000
    29  H   -0.000001  -0.000000   0.000000  -0.000000   0.648179  -0.041400
    30  H    0.000001   0.000000  -0.000000  -0.000000  -0.041400   0.646599
    31  H   -0.000000   0.000000  -0.000000   0.000000  -0.003936   0.007192
    32  H   -0.000000   0.000000   0.000000   0.000000  -0.000007   0.004831
    33  H   -0.000000   0.000000   0.000000   0.000000   0.000106  -0.000599
    34  H   -0.000000  -0.000000   0.000000   0.000000  -0.000180  -0.000136
    35  H    0.000000  -0.000000   0.000000   0.000000  -0.000156   0.004913
    36  H    0.000000   0.000000   0.000000   0.000000  -0.000043  -0.000127
    37  H    0.000000   0.000000   0.000000  -0.000000   0.005279  -0.000295
              31         32         33         34         35         36
     1  C   -0.000000   0.000000   0.000000   0.000000   0.000000   0.000000
     2  C   -0.000000  -0.000000  -0.000004  -0.000000   0.000000  -0.000000
     3  C    0.000027  -0.000016  -0.000073  -0.000000  -0.000007   0.000001
     4  C   -0.004507   0.000236   0.004125   0.000240   0.000123  -0.000125
     5  C    0.000706   0.000249   0.005974  -0.000001   0.000008   0.000008
     6  C    0.000045   0.000001  -0.000149  -0.000005   0.000000   0.000000
     7  C   -0.000018  -0.000000   0.000028   0.000000   0.000000  -0.000000
     8  C   -0.000001   0.000000   0.000017   0.000000  -0.000000  -0.000000
     9  C    0.000000  -0.000000  -0.000001  -0.000000   0.000000   0.000000
    10  O    0.000000   0.000000   0.000000   0.000000  -0.000000   0.000000
    11  O    0.000000  -0.000000  -0.000000   0.000000  -0.000000   0.000000
    12  C   -0.040348  -0.006474  -0.003538   0.003722  -0.005603   0.003310
    13  C    0.364478  -0.026246  -0.025681  -0.026245  -0.024027  -0.020982
    14  C   -0.048792   0.371588   0.368888   0.370987  -0.007283  -0.002354
    15  C   -0.041317  -0.006446   0.005341  -0.002819   0.372184   0.369856
    16  H    0.000000   0.000000  -0.000000  -0.000000   0.000000  -0.000000
    17  H   -0.000000  -0.000000   0.000000   0.000000  -0.000000   0.000000
    18  H   -0.000001   0.000001   0.000032   0.000000  -0.000000  -0.000000
    19  H   -0.000005   0.000001   0.000007   0.000000   0.000000  -0.000000
    20  H    0.000015  -0.000016  -0.000039  -0.000001  -0.000002   0.000000
    21  H    0.003992   0.000005  -0.000252   0.000409   0.000010   0.000023
    22  H    0.000020  -0.000003   0.000109  -0.000006   0.000000   0.000000
    23  H    0.000013   0.000000  -0.000001  -0.000000  -0.000000   0.000000
    24  H    0.000000  -0.000000  -0.000001  -0.000000  -0.000000  -0.000000
    25  H   -0.000000  -0.000000  -0.000000  -0.000000   0.000000   0.000000
    26  H    0.000000   0.000000   0.000000  -0.000000  -0.000000   0.000000
    27  H   -0.000000   0.000000   0.000000   0.000000   0.000000   0.000000
    28  H    0.000000   0.000000   0.000000   0.000000   0.000000   0.000000
    29  H   -0.003936  -0.000007   0.000106  -0.000180  -0.000156  -0.000043
    30  H    0.007192   0.004831  -0.000599  -0.000136   0.004913  -0.000127
    31  H    0.687026   0.006043  -0.002909  -0.004067   0.006118  -0.003852
    32  H    0.006043   0.606384  -0.031945  -0.031519   0.005578  -0.000082
    33  H   -0.002909  -0.031945   0.596227  -0.031449  -0.000046  -0.000075
    34  H   -0.004067  -0.031519  -0.031449   0.611418  -0.000177   0.003790
    35  H    0.006118   0.005578  -0.000046  -0.000177   0.603304  -0.033004
    36  H   -0.003852  -0.000082  -0.000075   0.003790  -0.033004   0.606081
    37  H   -0.002740   0.000016  -0.000223  -0.000046  -0.032683  -0.031168
              37
     1  C    0.000000
     2  C    0.000000
     3  C    0.000005
     4  C    0.000086
     5  C    0.000026
     6  C    0.000000
     7  C    0.000000
     8  C   -0.000000
     9  C    0.000000
    10  O    0.000000
    11  O   -0.000000
    12  C   -0.003124
    13  C   -0.022344
    14  C    0.005081
    15  C    0.366050
    16  H    0.000000
    17  H   -0.000000
    18  H   -0.000000
    19  H   -0.000000
    20  H   -0.000000
    21  H    0.000016
    22  H   -0.000000
    23  H   -0.000000
    24  H   -0.000000
    25  H    0.000000
    26  H    0.000000
    27  H    0.000000
    28  H   -0.000000
    29  H    0.005279
    30  H   -0.000295
    31  H   -0.002740
    32  H    0.000016
    33  H   -0.000223
    34  H   -0.000046
    35  H   -0.032683
    36  H   -0.031168
    37  H    0.610410
 Mulliken charges:
               1
     1  C   -0.388893
     2  C    0.049536
     3  C   -0.311626
     4  C    0.186787
     5  C   -0.120907
     6  C   -0.077644
     7  C   -0.322843
     8  C   -0.022755
     9  C   -0.052642
    10  O   -0.196597
    11  O   -0.321036
    12  C   -0.232748
    13  C    0.021310
    14  C   -0.374343
    15  C   -0.391539
    16  H    0.119059
    17  H    0.092411
    18  H    0.123802
    19  H    0.111214
    20  H    0.110532
    21  H    0.086013
    22  H    0.102441
    23  H    0.117339
    24  H    0.104249
    25  H    0.114996
    26  H    0.122095
    27  H    0.101022
    28  H    0.319392
    29  H    0.099639
    30  H    0.099730
    31  H    0.076817
    32  H    0.107824
    33  H    0.116132
    34  H    0.106084
    35  H    0.110750
    36  H    0.108744
    37  H    0.105656
 Sum of Mulliken charges =  -0.00000
 Mulliken charges with hydrogens summed into heavy atoms:
               1
     1  C   -0.177424
     2  C    0.173338
     3  C   -0.089880
     4  C    0.186787
     5  C   -0.034894
     6  C    0.024798
     7  C   -0.101255
     8  C    0.092241
     9  C    0.170475
    10  O   -0.196597
    11  O   -0.001644
    12  C   -0.033379
    13  C    0.098126
    14  C   -0.044303
    15  C   -0.066389
 Electronic spatial extent (au):  <R**2>=           4585.3060
 Charge=             -0.0000 electrons
 Dipole moment (field-independent basis, Debye):
    X=              0.9113    Y=              0.0172    Z=             -0.7495  Tot=              1.1800
 Quadrupole moment (field-independent basis, Debye-Ang):
   XX=            -97.0146   YY=            -88.8620   ZZ=            -93.0701
   XY=              0.5606   XZ=              1.9030   YZ=             -1.1578
 Traceless Quadrupole moment (field-independent basis, Debye-Ang):
   XX=             -4.0324   YY=              4.1202   ZZ=             -0.0879
   XY=              0.5606   XZ=              1.9030   YZ=             -1.1578
 Octapole moment (field-independent basis, Debye-Ang**2):
  XXX=            -14.9398  YYY=             -1.1008  ZZZ=              5.6909  XYY=            -23.1562
  XXY=             -7.8007  XXZ=             -6.2962  XZZ=            -10.3326  YZZ=             -6.6138
  YYZ=              8.9976  XYZ=              6.2274
 Hexadecapole moment (field-independent basis, Debye-Ang**3):
 XXXX=          -4687.7177 YYYY=          -1044.2819 ZZZZ=           -505.0154 XXXY=             86.7212
 XXXZ=              0.6153 YYYX=             16.2094 YYYZ=             -5.3932 ZZZX=            -43.5285
 ZZZY=            -10.3860 XXYY=           -858.2373 XXZZ=           -841.7995 YYZZ=           -241.0079
 XXYZ=            -37.4512 YYXZ=            -30.6199 ZZXY=             15.8901
 N-N= 1.032214517275D+03 E-N=-3.596283713916D+03  KE= 6.536848662828D+02
 PrsmSu:  requested number of processors reduced to:  13 ShMem   1 Linda.
 Calling FoFJK, ICntrl=      2127 FMM=F ISym2X=0 I1Cent= 0 IOpClX= 0 NMat=1 NMatS=1 NMatT=0.
 ***** Axes restored to original set *****
 -------------------------------------------------------------------
 Center     Atomic                   Forces (Hartrees/Bohr)
 Number     Number              X              Y              Z
 -------------------------------------------------------------------
      1        6           0.000033248   -0.000422395    0.006857292
      2        6          -0.004179025    0.011235005    0.003187931
      3        6           0.000464566    0.000000681    0.001441896
      4        6           0.006507453   -0.000905475    0.009441580
      5        6           0.005776923   -0.018029970   -0.014720570
      6        6          -0.006896386    0.001237134   -0.018890017
      7        6          -0.002920689    0.012386950    0.016580779
      8        6          -0.011304071    0.000706422    0.001195037
      9        6           0.004143125    0.008352513   -0.000183104
     10        8          -0.001701290    0.010766653   -0.001804590
     11        8           0.008597700   -0.008052401   -0.005760267
     12        6           0.002361297    0.008871486    0.005263112
     13        6          -0.003442566   -0.002953390    0.000811854
     14        6           0.000451686    0.004167759    0.004858698
     15        6           0.001276281    0.002772890   -0.002982949
     16        1          -0.003582974   -0.013509363   -0.000391399
     17        1           0.003176381    0.003240852   -0.005254068
     18        1          -0.011607893   -0.002411613   -0.002808712
     19        1           0.000095556   -0.005483372   -0.004560385
     20        1           0.009328867   -0.002806710   -0.007666091
     21        1           0.000244111   -0.003820558   -0.003071018
     22        1          -0.006347956   -0.000905430    0.001643227
     23        1          -0.007907441   -0.002004308    0.002282251
     24        1           0.010271695    0.001387175    0.007063313
     25        1           0.007468256   -0.016921850    0.000973819
     26        1          -0.002285372   -0.002025102    0.004634342
     27        1           0.000837324    0.009354783    0.003864543
     28        1          -0.001180742    0.010866768    0.003964814
     29        1           0.001189691   -0.001877409   -0.001918346
     30        1          -0.001990914    0.001525365   -0.000940574
     31        1          -0.000060050    0.001139077    0.002132743
     32        1           0.001363029   -0.001250594   -0.001402077
     33        1          -0.000487791    0.000085930   -0.001531456
     34        1           0.001747931   -0.002474458    0.000021296
     35        1          -0.000186001   -0.000300695   -0.000408438
     36        1           0.000334210   -0.001346808   -0.000856915
     37        1           0.000411830   -0.000595541   -0.001067551
 -------------------------------------------------------------------
 Cartesian Forces:  Max     0.018890017 RMS     0.006007670

 GradGradGradGradGradGradGradGradGradGradGradGradGradGradGradGradGradGrad
 Berny optimization.
 FormGI is forming the generalized inverse of G from B-inverse, IUseBI=4.
 Internal  Forces:  Max     0.092661280 RMS     0.014403587
 Search for a local minimum.
 Step number   1 out of a maximum of  196
 All quantities printed in internal units (Hartrees-Bohrs-Radians)
 Mixed Optimization -- RFO/linear search
 Second derivative matrix not updated -- first step.
 ITU=  0
     Eigenvalues ---    0.00230   0.00284   0.00290   0.00308   0.00362
     Eigenvalues ---    0.00364   0.00375   0.00966   0.01043   0.01049
     Eigenvalues ---    0.01053   0.01673   0.01728   0.01973   0.02179
     Eigenvalues ---    0.02614   0.02645   0.02963   0.03030   0.03034
     Eigenvalues ---    0.03319   0.03668   0.03891   0.04031   0.04472
     Eigenvalues ---    0.04691   0.04719   0.04996   0.05168   0.05261
     Eigenvalues ---    0.05460   0.05506   0.05619   0.05633   0.06458
     Eigenvalues ---    0.09454   0.10221   0.10305   0.10387   0.11060
     Eigenvalues ---    0.11749   0.13412   0.13514   0.13969   0.14710
     Eigenvalues ---    0.15814   0.15977   0.16000   0.16000   0.16000
     Eigenvalues ---    0.16000   0.16000   0.16000   0.16000   0.16000
     Eigenvalues ---    0.16000   0.16178   0.16543   0.16767   0.17856
     Eigenvalues ---    0.22011   0.22040   0.22048   0.22126   0.22177
     Eigenvalues ---    0.24994   0.24998   0.25000   0.26590   0.26728
     Eigenvalues ---    0.28476   0.28841   0.28881   0.29002   0.29372
     Eigenvalues ---    0.29388   0.31437   0.33577   0.33829   0.34077
     Eigenvalues ---    0.34174   0.34183   0.34204   0.34271   0.34307
     Eigenvalues ---    0.34354   0.34444   0.34559   0.34631   0.34670
     Eigenvalues ---    0.34719   0.34730   0.34765   0.34902   0.34935
     Eigenvalues ---    0.34959   0.35106   0.35707   0.35776   0.35794
     Eigenvalues ---    0.36099   0.37612   0.51326   0.52892   0.58588
 RFO step:  Lambda=-1.23198230D-01 EMin= 2.30370457D-03
 Linear search not attempted -- first point.
 Maximum step size (   0.300) exceeded in Quadratic search.
    -- Step size scaled by   0.557
 Iteration  1 RMS(Cart)=  0.29148697 RMS(Int)=  0.01188256
 Iteration  2 RMS(Cart)=  0.14264474 RMS(Int)=  0.00208891
 Iteration  3 RMS(Cart)=  0.00533188 RMS(Int)=  0.00029818
 Iteration  4 RMS(Cart)=  0.00000629 RMS(Int)=  0.00029817
 Iteration  5 RMS(Cart)=  0.00000000 RMS(Int)=  0.00029817
 Variable       Old X    -DE/DX   Delta X   Delta X   Delta X     New X
                                 (Linear)    (Quad)   (Total)
    R1        2.52076  -0.00285   0.00000  -0.00224  -0.00224   2.51851
    R2        2.05780  -0.00374   0.00000  -0.00441  -0.00441   2.05340
    R3        2.04434   0.00380   0.00000   0.00440   0.00440   2.04874
    R4        2.79415   0.01291   0.00000   0.01528   0.01528   2.80943
    R5        2.05504  -0.00656   0.00000  -0.00771  -0.00771   2.04733
    R6        2.89202   0.01196   0.00000   0.01598   0.01598   2.90799
    R7        2.07037   0.00160   0.00000   0.00192   0.00192   2.07229
[...]
 08522,0.00005583,0.00011092,0.00002305,0.00005659,-0.00005688,0.000062
 86,0.00005535,-0.00000140,-0.00006738,-0.00002538,-0.00000953,-0.00000
 190,-0.00000832,-0.00000299,0.00003388,-0.00001592,0.00000032,0.001437
 22,-0.00008226,0.00034953,0.00977017,-0.00511036,-0.02270515,-0.077969
 08,0.01436826,0.08602401,-0.00400914,0.00095812,-0.00275507,0.00000226
 ,-0.00000282,0.00003247,-0.00000028,0.00001003,-0.00000598,-0.00001415
 ,-0.00000501,0.00000088,0.00003149,0.00006042,0.00000100,-0.00000077,0
 .00000426,-0.00000864,-0.00083952,0.00067239,-0.00014777,0.00004106,-0
 .00001344,-0.00003797,-0.00000879,-0.00000300,0.00001265,0.00000349,-0
 .00003351,-0.00002781,0.00000053,0.00000731,0.00000477,0.00003537,-0.0
 0001955,-0.00000080,0.00000257,0.00000418,0.00000094,-0.00000646,0.000
 00930,-0.00000429,0.00019245,0.00019698,0.00010427,-0.00013873,-0.0001
 1192,0.00013421,0.00085219,0.00008679,0.00088610,-0.00421190,0.0008312
 1,0.00886180,0.08430827,0.00000333,-0.00000129,0.00000317,-0.00000443,
 -0.00000737,0.00000050,0.00000720,-0.00006040,-0.00004961,-0.00005386,
 -0.00004445,0.00024303,0.00055098,0.00032949,0.00004740,-0.00002502,-0
 .00020970,-0.00000235,0.00006426,0.00006980,-0.00002020,0.00003796,0.0
 0002746,0.00001487,0.00000676,-0.00002610,-0.00001411,-0.00000749,-0.0
 0000239,-0.00000014,-0.00001132,0.00000055,-0.00000395,0.00004474,0.00
 012730,-0.00070321,-0.00265349,-0.00038107,0.00507803,0.01422289,-0.05
 441921,-0.03961344,0.00062753,0.00013750,0.00052098,0.00000260,0.00000
 202,-0.00000077,-0.00000034,-0.00000165,-0.00000122,0.00000704,-0.0000
 0037,0.00000446,-0.00003271,-0.00003450,-0.00001302,-0.00001804,0.0000
 0839,0.00000291,0.00063771,-0.00044427,0.00013602,-0.00005860,0.000015
 20,0.00002189,-0.00001637,-0.00003941,-0.00003364,-0.00003801,-0.00001
 076,-0.00000265,0.00001145,-0.00000286,0.00001512,0.00000822,-0.000000
 96,-0.00000350,-0.00000324,-0.00000058,-0.00000030,0.00000113,0.000000
 03,0.00000142,0.00002774,-0.00011287,0.00005294,0.00004872,-0.00005267
 ,-0.00015067,-0.00053195,0.00017803,-0.00004122,0.01082054,-0.00446882
 ,-0.02912857,-0.01742498,0.05496895,0.00004385,-0.00002920,0.00005107,
 -0.00004008,0.00009445,-0.00003985,-0.00016292,-0.00001655,0.00009186,
 0.00027449,-0.00066356,-0.00023867,0.00072952,-0.00052138,0.00065774,0
 .00015239,0.00020039,0.00020153,-0.00007244,0.00001824,-0.00003174,0.0
 0005487,0.00001846,-0.00000724,-0.00009372,-0.00000474,-0.00001905,0.0
 0001026,-0.00000149,0.00001331,0.00004673,-0.00001058,0.00001302,0.000
 97375,0.00020893,0.00031428,0.00864386,-0.00421473,-0.01940297,0.08325
 676,-0.03956157,-0.27433056,-0.00491604,0.00150551,-0.00199525,0.00000
 717,0.00000282,0.00002475,0.00000439,0.00002120,-0.00000917,-0.0000106
 1,-0.00000191,-0.00000718,0.00005019,0.00010066,-0.00000957,-0.0000189
 4,0.00001024,0.00001895,0.00025663,0.00052174,-0.00015260,0.00006026,-
 0.00003585,-0.00006829,0.00001514,0.00000099,0.00001946,0.00002075,-0.
 00000969,-0.00001191,-0.00000554,-0.00000366,-0.00000677,0.00003077,-0
 .00001678,0.00000332,0.00000173,0.00000095,0.00000729,-0.00000662,0.00
 000565,-0.00001234,0.00001332,0.00001620,0.00006267,-0.00014581,-0.000
 13631,-0.00002793,0.00023225,0.00039048,0.00057831,0.00030015,-0.00011
 251,-0.00076891,-0.09155977,0.04345480,0.29999261,-0.00004272,0.000007
 43,0.00003449,0.00004466,-0.00008147,0.00005741,-0.00001354,0.00004764
 ,0.00015846,0.00033106,-0.00012571,-0.00060011,-0.00014059,-0.00006586
 ,-0.00004103,0.00002590,0.00015946,-0.00004067,-0.00003230,-0.00009636
 ,0.00005911,-0.00010647,-0.00007224,-0.00000478,0.00005888,0.00003083,
 0.00000466,0.00000319,0.00001312,0.00000631,-0.00002655,0.00001585,0.0
 0000379,-0.00187830,0.00220081,-0.00436346,-0.01884603,-0.01507751,0.0
 0503945,-0.20008829,-0.12311990,0.03441156,0.00049706,-0.00009868,0.00
 140889,-0.00001120,0.00000545,-0.00001497,0.00001407,0.00001766,-0.000
 00234,-0.00000493,0.00000418,-0.00001064,0.00001661,0.00003316,-0.0000
 2625,-0.00009067,-0.00003370,0.00004575,-0.00008334,-0.00007937,0.0000
 3678,-0.00000292,0.00000771,0.00001975,0.00001413,0.00000376,0.0000097
 5,0.00001003,0.00004000,0.00002404,-0.00000949,0.00000077,-0.00001683,
 -0.00003740,0.00002061,0.00000450,0.00000276,-0.00000199,-0.00000230,0
 .00000569,-0.00001063,0.00000157,-0.00138345,-0.00088936,0.00026721,0.
 00022255,-0.00000380,0.00003902,0.00062043,0.00047012,0.00062031,0.008
 96774,0.00693366,-0.00209228,-0.00841470,-0.00658437,0.00139151,0.2194
 1341,-0.00000699,-0.00000153,-0.00000419,0.00002300,0.00000979,0.00002
 429,-0.00001798,-0.00001620,-0.00001334,-0.00002076,-0.00007105,-0.000
 12100,0.00006479,0.00000739,0.00003423,0.00001044,0.00002397,0.0000225
 5,-0.00000105,-0.00002131,0.00001634,-0.00002255,-0.00001254,-0.000013
 04,0.00002423,0.00000223,0.00000215,-0.00000104,0.00000290,0.00000140,
 -0.00001418,0.00000552,-0.00000010,0.00066640,0.00028160,0.00078975,0.
 00567102,0.00293192,-0.00065423,-0.12378906,-0.14559402,0.02703878,-0.
 00008467,-0.00023403,0.00000304,-0.00000570,0.00000270,-0.00000398,0.0
 0000373,0.00000020,0.00000168,-0.00000717,0.00000195,-0.00000612,0.000
 01155,0.00002092,0.00001172,0.00000320,-0.00000200,-0.00000401,-0.0000
 1787,0.00000852,-0.00002462,-0.00000151,0.00000016,0.00000622,-0.00000
 006,-0.00000025,-0.00000435,-0.00000164,0.00000675,0.00000602,0.000000
 62,-0.00000084,-0.00000131,-0.00000974,0.00000617,0.00000009,-0.000001
 05,-0.00000171,-0.00000046,0.00000368,-0.00000352,0.00000116,0.0000528
 7,0.00052099,-0.00000970,0.00022570,0.00059882,0.00005829,-0.00018172,
 0.00079473,-0.00061578,-0.02396063,-0.01825776,0.00583281,0.00541999,0
 .00340901,-0.00077012,0.13578126,0.15526334,0.00001383,-0.00000638,0.0
 0003059,0.00000022,0.00002102,0.00000719,-0.00005300,-0.00001955,0.000
 08164,0.00016645,-0.00040784,-0.00035218,0.00020126,-0.00001496,0.0003
 3378,-0.00001404,0.00006036,0.00005521,0.00000813,0.00002001,0.0000063
 9,0.00001248,0.00000137,0.00000145,-0.00001037,-0.00000340,-0.00000070
 ,0.00000064,-0.00000123,0.00000081,0.00000416,-0.00000133,0.00000110,-
 0.00289793,0.00100123,-0.00356701,-0.01696670,-0.01511633,0.00336292,0
 .03549126,0.02809321,-0.05478491,-0.00072026,-0.00077735,0.00146855,-0
 .00000337,0.00000189,0.00000887,0.00000641,0.00001456,-0.00000325,-0.0
 0000279,-0.00000075,-0.00000147,0.00001477,0.00004349,-0.00001695,-0.0
 0004924,-0.00000538,0.00002500,0.00005809,0.00017080,-0.00010108,0.000
 00178,-0.00000696,-0.00001745,0.00000204,0.00001048,0.00000002,-0.0000
 0401,-0.00000124,-0.00000099,0.00000390,-0.00000336,0.00000413,0.00000
 653,-0.00000403,0.00000039,-0.00000131,-0.00000022,0.00000174,-0.00000
 018,0.00000105,-0.00000042,-0.00136815,-0.00071161,0.00031344,0.000118
 53,0.00011092,-0.00016354,0.00084528,0.00012569,0.00091763,-0.00197307
 ,-0.00177043,-0.00061125,0.02228079,0.01980122,-0.00406853,-0.03570335
 ,-0.03109019,0.05734375,-0.00000995,0.00002387,-0.00000366,0.00000305,
 -0.00002228,0.00000278,-0.00001637,0.00003939,0.00000942,-0.00004533,-
 0.00019869,0.00002811,0.00007156,0.00009681,0.00002146,-0.00002291,-0.
 00013868,-0.00002562,0.00000639,0.00001567,-0.00001324,0.00002468,0.00
 001937,-0.00000952,0.00000104,-0.00000989,-0.00000025,-0.00000115,-0.0
 0000422,0.00000072,-0.00000406,-0.00000129,0.00000076,0.00071646,0.001
 11016,-0.00066686,-0.00443810,0.01226705,0.00125818,0.00013987,-0.0009
 2330,-0.00064816,-0.06398858,0.06302811,0.00461532,0.00000688,-0.00000
 529,-0.00000541,-0.00000546,-0.00001847,0.00000372,0.00000893,-0.00000
 541,-0.00000183,-0.00001724,-0.00003906,0.00000934,0.00000370,-0.00000
 906,-0.00000903,-0.00007074,-0.00008752,-0.00008717,-0.00002203,0.0000
 0831,0.00002361,-0.00000425,-0.00000255,-0.00000485,-0.00000194,-0.000
 00877,-0.00000228,0.00000133,-0.00000830,0.00000249,0.00000385,-0.0000
 0100,-0.00000178,-0.00000247,-0.00000057,0.00000131,0.00000217,0.00000
 087,-0.00000094,-0.00016609,0.00015334,-0.00015490,0.00004495,-0.00041
 171,0.00043833,-0.00014941,0.00022785,0.00260696,0.00046143,-0.0000802
 5,0.00003907,-0.00010923,-0.00004233,0.00000894,0.00007395,-0.00009851
 ,0.00001565,0.06583851,0.00002361,-0.00001632,0.00000337,-0.00001604,0
 .00004000,-0.00003085,0.00004723,-0.00005810,-0.00003181,0.00011632,0.
 00026337,-0.00019782,-0.00015636,0.00005644,0.00009766,0.00002813,0.00
 002916,0.00004842,-0.00000837,0.00000267,-0.00000155,0.00000355,-0.000
 00929,0.00001105,-0.00002404,0.00000206,-0.00000273,0.00000206,0.00000
 423,-0.00000398,0.00001803,-0.00000510,-0.00000039,-0.00078663,0.00063
 921,0.00048793,0.00222860,-0.00739039,-0.00099430,-0.00004252,0.000327
 47,0.00065119,0.06320187,-0.28473814,-0.01878975,-0.00000430,0.0000009
 3,0.00000935,-0.00000029,0.00000787,-0.00000390,-0.00000330,-0.0000004
 1,0.00000646,0.00000394,0.00000808,0.00000196,0.00003232,0.00000924,-0
 .00001357,-0.00002562,0.00005742,0.00008230,0.00001621,-0.00000345,-0.
 00001390,0.00000166,-0.00000174,0.00000760,0.00000590,0.00000161,-0.00
 000683,-0.00000190,0.00001146,-0.00000210,0.00000553,-0.00000420,0.000
 00219,0.00000462,0.00000297,-0.00000182,-0.00000730,0.00000256,-0.0000
 0019,0.00018537,-0.00003582,-0.00005936,0.00052103,0.00055070,-0.00028
 822,0.00029497,0.00129908,-0.00157832,-0.00047182,0.00038525,-0.000665
 44,-0.00012115,0.00037543,-0.00008395,0.00005827,-0.00001236,0.0000165
 7,-0.07113171,0.31084812,0.00000236,-0.00000144,0.00001031,-0.00000559
 ,0.00001961,-0.00000756,-0.00000676,0.00000560,0.00002550,-0.00017274,
 0.00004189,-0.00017055,-0.00008628,-0.00024548,-0.00018497,0.00006288,
 0.00019821,0.00003177,-0.00000727,-0.00000215,0.00000934,-0.00001224,-
 0.00000826,0.00000827,-0.00001616,0.00000822,-0.00000746,0.00000159,-0
 .00000056,0.00000282,0.00001023,-0.00000179,0.00000239,-0.00124385,-0.
 00110630,0.00138739,0.00829893,-0.03071954,-0.00355053,0.00084576,-0.0
 0114364,0.00210956,0.00449469,-0.01828086,-0.04822969,0.00000159,0.000
 00053,0.00000454,0.00000238,0.00000163,0.00000085,-0.00000623,-0.00000
 081,-0.00000388,0.00002411,0.00002599,-0.00000104,0.00000090,-0.000002
 92,0.00000023,0.00014438,0.00017976,0.00014638,0.00004286,-0.00001987,
 -0.00004648,0.00000234,-0.00000187,0.00000985,0.00000494,0.00000247,-0
 .00000187,-0.00000593,0.00000827,-0.00000329,0.00000306,-0.00000319,0.
 00000192,0.00000258,0.00000029,0.00000159,-0.00000137,0.00000102,-0.00
 000272,0.00008060,0.00024725,0.00005928,0.00011634,0.00071518,-0.00010
 012,0.00229866,-0.00128706,-0.00561302,-0.00049736,0.00078063,-0.00022
 295,0.00007187,0.00043118,0.00024901,-0.00007056,0.00005824,-0.0001151
 2,-0.00763697,0.02267397,0.05281942,-0.00003975,0.00000178,0.00001936,
 0.00003513,-0.00006154,0.00005409,-0.00011530,0.00012710,0.00022923,0.
 00008694,-0.00092416,-0.00016712,-0.00007572,-0.00008354,0.00005801,0.
 00000455,0.00017224,-0.00003578,-0.00000743,-0.00007043,0.00004412,-0.
 00009949,-0.00005648,0.00000432,0.00006378,0.00002490,0.00000805,0.000
 00044,0.00001064,0.00000163,-0.00003102,0.00001435,0.00000020,-0.00040
 865,0.00172509,0.00246486,-0.01001777,-0.00640920,0.00105915,0.0005562
 0,0.00005253,-0.00100442,-0.21672850,-0.11791517,0.03862926,-0.0000064
 1,0.00000573,-0.00001481,0.00001122,0.00001383,-0.00000341,-0.00000362
 ,0.00000375,-0.00001094,0.00001799,0.00003138,-0.00002368,-0.00011218,
 -0.00004446,0.00004113,0.00003734,-0.00000015,0.00000277,-0.00000585,-
 0.00000134,0.00001124,0.00001029,0.00000149,0.00000171,0.00000083,0.00
 002901,0.00001894,-0.00000408,-0.00000134,-0.00001012,-0.00003345,0.00
 001790,0.00000322,0.00000097,-0.00000211,-0.00000254,0.00000589,-0.000
 01002,0.00000409,0.00056949,0.00027391,0.00024171,0.00001486,-0.000274
 83,0.00009606,0.00001810,0.00036152,-0.00025341,0.00006940,0.00004530,
 0.00005804,0.00013626,0.00029496,-0.00004703,0.00068946,0.00004503,0.0
 0031377,0.00752165,0.00527217,-0.00205745,0.23523147,-0.00000021,-0.00
 001419,0.00000983,0.00000240,0.00000955,-0.00000661,0.00007766,-0.0000
 2973,-0.00002449,0.00022009,0.00041486,-0.00031447,-0.00003095,0.00003
 695,0.00009856,0.00001788,0.00002423,0.00002358,-0.00000718,-0.0000170
 7,0.00002013,-0.00001503,-0.00001294,-0.00000953,0.00001835,0.00000234
 ,0.00000077,-0.00000020,0.00000229,0.00000280,-0.00001049,0.00000484,0
 .00000082,0.00020887,0.00060537,-0.00096801,0.00650251,0.00344928,-0.0
 0161909,0.00004713,-0.00000162,0.00005147,-0.11830602,-0.12890985,0.02
 735631,-0.00000527,0.00000543,-0.00000029,0.00000705,0.00000977,-0.000
 00374,0.00000106,0.00000163,-0.00000163,0.00000744,0.00000225,-0.00001
 262,0.00001303,0.00000484,-0.00000159,-0.00002912,0.00000735,-0.000021
 44,-0.00000504,0.00000271,0.00000706,0.00000123,0.00000165,-0.00000231
 ,-0.00000087,0.00000938,0.00000671,0.00000018,-0.00000155,-0.00000163,
 -0.00000783,0.00000509,0.00000018,-0.00000105,-0.00000152,0.00000013,0
 .00000313,-0.00000297,0.00000024,0.00008154,-0.00021412,-0.00011722,0.
 00024046,0.00039290,-0.00035304,0.00010341,0.00065464,0.00066536,-0.00
 015229,-0.00010901,0.00003160,0.00027534,0.00002245,0.00005350,0.00011
 448,0.00025523,0.00026130,-0.02592788,-0.01699027,0.00541929,0.1300636
 0,0.13667522,0.00004542,-0.00002621,0.00004969,-0.00007981,0.00007808,
 -0.00011021,0.00028297,-0.00024506,-0.00045717,0.00117563,0.00148464,0
 .00045635,0.00002759,0.00018981,0.00002705,-0.00005259,-0.00012278,-0.
 00002278,0.00002041,0.00005556,-0.00004923,0.00006005,0.00004465,0.000
 01161,-0.00004390,-0.00001880,-0.00000948,-0.00000023,-0.00000566,0.00
 000071,0.00002021,-0.00000809,0.00000159,0.00117621,-0.00277944,-0.005
 79809,0.02425843,0.01830275,-0.00610639,0.00110686,0.00082142,0.001576
 80,0.03737471,0.02651508,-0.05532724,0.00001079,0.00000121,0.00001756,
 -0.00000144,0.00000891,-0.00000895,0.00001079,-0.00000412,0.00000757,-
 0.00002799,-0.00002362,0.00001882,0.00018856,0.00008741,-0.00005515,-0
 .00004285,-0.00006372,0.00004537,-0.00000068,0.00000728,-0.00000189,-0
 .00000751,-0.00000783,-0.00000161,-0.00000201,-0.00002777,-0.00001642,
 0.00000207,-0.00000215,0.00000673,0.00002230,-0.00001094,-0.00000150,-
 0.00000021,0.00000195,0.00000225,-0.00000375,0.00000461,-0.00000376,0.
 00015024,-0.00020192,0.00016644,-0.00014387,0.00005062,0.00002778,-0.0
 0057128,-0.00018908,0.00126762,-0.00013251,0.00002720,-0.00008719,-0.0
 0011967,-0.00030665,0.00040309,-0.00071294,-0.00040149,-0.00042937,-0.
 00222621,-0.00099363,-0.00039680,-0.04426934,-0.02866356,0.06042573,0.
 00000909,-0.00000981,0.00000516,-0.00001589,0.00002689,-0.00001939,0.0
 0003060,-0.00003229,-0.00003887,0.00019314,0.00007653,-0.00000843,0.00
 005998,-0.00001265,0.00002880,-0.00000645,0.00000434,-0.00000379,-0.00
 000434,0.00000767,-0.00000713,0.00001674,0.00000595,-0.00000021,-0.000
 02276,-0.00000083,-0.00000701,0.00000282,-0.00000234,0.00000528,0.0000
 1333,-0.00000415,0.00000453,0.00110823,-0.00000707,0.00070568,0.007466
 78,-0.00331973,0.00898060,-0.00035342,-0.00001180,0.00173677,-0.172901
 36,0.03691460,-0.12602332,0.00000424,0.00000016,0.00000341,-0.00000155
 ,-0.00000041,-0.00000357,0.00000294,-0.00000301,0.00000206,-0.00000392
 ,-0.00000324,0.00000210,0.00002524,0.00001071,-0.00000786,-0.00000151,
 0.00003315,0.00001207,0.00000659,-0.00000090,-0.00000401,-0.00000016,0
 .00000188,0.00000178,0.00000209,-0.00000368,-0.00000331,-0.00000082,-0
 .00000132,0.00000069,0.00000755,-0.00000461,0.00000037,-0.00000002,-0.
 00000022,0.00000295,-0.00000187,0.00000252,-0.00000524,0.00006213,0.00
 007892,0.00000545,-0.00006688,-0.00004251,0.00004021,0.00062543,-0.000
 39060,-0.00072514,-0.00003522,-0.00015380,0.00018762,0.00055328,0.0000
 8078,0.00049980,0.00020128,0.00023639,0.00020179,-0.00585507,0.0007299
 7,-0.00468629,-0.01739301,0.00649258,-0.01749444,0.18627277,-0.0000033
 8,0.00001672,-0.00003319,0.00001915,0.00000891,0.00001763,-0.00000310,
 0.00000786,0.00002581,-0.00018019,-0.00004437,-0.00006945,0.00001962,-
 0.00000369,-0.00001239,0.00001834,-0.00005928,0.00002386,-0.00000527,0
 .00001083,-0.00000054,0.00002736,0.00001565,-0.00001452,-0.00000808,-0
 .00000671,-0.00000094,-0.00000058,-0.00000564,0.00000137,0.00000115,-0
 .00000285,0.00000045,0.00043327,-0.00018707,0.00060843,-0.00544956,0.0
 0013442,-0.00547338,0.00066196,-0.00006732,-0.00124375,0.03684268,-0.0
 5782802,0.03710837,-0.00000002,-0.00000349,-0.00000010,-0.00000517,-0.
 00002204,0.00001095,-0.00000057,-0.00000288,-0.00000323,0.00000192,-0.
 00001057,0.00000694,-0.00000610,-0.00000541,-0.00000766,-0.00004302,0.
 00001409,-0.00004456,-0.00000322,-0.00000101,0.00000505,-0.00000287,0.
 00000150,-0.00000174,0.00000028,-0.00000407,-0.00000113,-0.00000006,-0
 .00000450,0.00000145,0.00000676,-0.00000332,-0.00000182,-0.00000206,-0
 .00000064,0.00000180,0.00000173,0.00000243,-0.00000148,-0.00040288,0.0
 0013477,0.00017058,0.00001090,0.00007654,0.00006853,-0.00057680,0.0003
 5805,0.00024202,-0.00026298,0.00038779,-0.00029491,-0.00021834,0.00065
 008,-0.00043062,0.00037471,0.00007432,0.00018736,0.02218596,-0.0056597
 7,0.02200652,-0.01273347,0.00370456,-0.01357865,-0.04069807,0.05832414
 ,0.00000527,-0.00001754,0.00007497,-0.00005640,0.00000327,-0.00003972,
 0.00001215,0.00000774,-0.00005356,0.00041273,-0.00017650,0.00030292,-0
 .00008887,-0.00013766,0.00013330,-0.00002084,0.00013371,-0.00002794,-0
 .00001499,-0.00001843,0.00001978,-0.00001486,-0.00001566,-0.00000171,-
 0.00001934,0.00001171,-0.00001024,0.00000833,-0.00000027,0.00001710,0.
 00001069,0.00000428,0.00001202,-0.00206548,-0.00055489,0.00060806,-0.0
 2163201,0.00700545,-0.02038764,0.00431156,-0.00174139,-0.00539704,-0.1
 2419396,0.03659923,-0.17049319,0.00001273,0.00000649,0.00000412,0.0000
 1026,0.00001813,-0.00001380,0.00001115,-0.00000328,-0.00000920,0.00000
 441,0.00000749,-0.00001598,0.00000708,0.00000699,0.00001172,-0.0000316
 3,0.00012907,-0.00000930,0.00001238,-0.00000939,-0.00001036,0.00000873
 ,0.00002152,0.00000771,0.00000771,0.00000786,0.00000792,-0.00000473,-0
 .00001225,-0.00000511,-0.00000154,0.00000107,0.00000319,-0.00000122,-0
 .00000199,0.00000680,0.00000264,-0.00000318,-0.00000879,0.00116779,0.0
 0052197,0.00051169,0.00005738,-0.00007291,0.00009936,-0.00009437,-0.00
 039564,0.00131369,0.00024183,0.00008344,0.00026894,-0.00168128,0.00025
 932,-0.00149374,0.00005821,-0.00017071,0.00026961,0.00241254,-0.000335
 63,0.00177760,0.00453509,-0.00188838,0.00437046,0.13661088,-0.03927305
 ,0.18815635\\0.00000036,0.00000002,0.00000009,-0.00000074,-0.00000031,
 -0.00000104,-0.00000088,-0.00000395,0.00000009,0.00000169,0.00000287,-
 0.00000224,-0.00000281,-0.00000003,0.00000221,0.00000664,0.00000067,-0
 .00000784,-0.00000073,0.00000050,0.00000792,0.00000070,-0.00000061,-0.
 00000103,-0.00000457,-0.00000258,-0.00000420,0.00000217,0.00000150,0.0
 0000267,-0.00000035,-0.00000094,0.00000110,-0.00000016,-0.00000108,0.0
 0000161,0.00000008,-0.00000027,-0.00000183,-0.00000029,-0.00000015,0.,
 -0.00000054,0.00000014,0.00000058,-0.00000027,-0.00000056,0.00000099,0
 .00000051,-0.00000037,0.00000098,0.00000060,0.00000036,0.00000169,0.00
 000036,0.00000094,0.00000034,0.00000039,0.00000075,0.00000061,0.000000
 56,-0.00000022,-0.00000048,-0.00000181,0.00000233,0.00000147,-0.000000
 06,0.00000049,-0.00000268,0.00000010,0.00000008,-0.00000101,-0.0000005
 2,-0.00000017,0.00000052,0.00000077,0.00000072,-0.00000004,-0.00000048
 ,0.00000035,0.00000011,0.00000059,-0.00000007,-0.00000026,-0.00000101,
 -0.00000022,0.00000047,0.00000051,-0.00000040,-0.00000022,-0.00000020,
 0.00000011,0.00000050,0.00000004,0.00000026,-0.00000004,0.00000005,0.0
 0000025,0.00000002,-0.00000011,0.00000033,-0.00000034,-0.00000006,-0.0
 0000021,-0.00000020,-0.00000023,-0.00000019,-0.00000036,-0.00000030,-0
 .00000036,-0.00000017\\\@


    THE DOUGHNUT CREED
 AS YOU RAMBLE ON THROUGH LIFE, BROTHER
 WHATEVER BE YOUR GOAL
 KEEP YOUR EYE UPON THE DOUGHNUT
 AND NOT UPON THE HOLE.
 Job cpu time:       0 days 10 hours 42 minutes 48.8 seconds.
 Elapsed time:       0 days  2 hours 40 minutes 50.0 seconds.
 File lengths (MBytes):  RWF=    745 Int=      0 D2E=      0 Chk=     24 Scr=      1
 Normal termination of Gaussian 16 at Mon May 29 06:38:48 2023.
### All Done ###
