### Starting Gaussian ###
 Entering Gaussian System, Link 0=g16
 Initial command:
 /cluster/software/gaussian/gaussian-16-A.03/avx2/g16/l1.exe "/local/scratch/ks29c/Gau-11499.inp" -scrdir="/local/scratch/ks29c/"
 Entering Link 1 = /cluster/software/gaussian/gaussian-16-A.03/avx2/g16/l1.exe PID=     11500.
  
 Copyright (c) 1988,1990,1992,1993,1995,1998,2003,2009,2016,
            Gaussian, Inc.  All Rights Reserved.
  
 This is part of the Gaussian(R) 16 program.  It is based on
 the Gaussian(R) 09 system (copyright 2009, Gaussian, Inc.),
 the Gaussian(R) 03 system (copyright 2003, Gaussian, Inc.),
 the Gaussian(R) 98 system (copyright 1998, Gaussian, Inc.),
 the Gaussian(R) 94 system (copyright 1995, Gaussian, Inc.),
 the Gaussian 92(TM) system (copyright 1992, Gaussian, Inc.),
 the Gaussian 90(TM) system (copyright 1990, Gaussian, Inc.),
 the Gaussian 88(TM) system (copyright 1988, Gaussian, Inc.),
 the Gaussian 86(TM) system (copyright 1986, Carnegie Mellon
 University), and the Gaussian 82(TM) system (copyright 1983,
 Carnegie Mellon University). Gaussian is a federally registered
 trademark of Gaussian, Inc.
  
 This software contains proprietary and confidential information,
 including trade secrets, belonging to Gaussian, Inc.
  
 This software is provided under written license and may be
 used, copied, transmitted, or stored only in accord with that
 written license.
  
 The following legend is applicable only to US Government
 contracts under FAR:
  
                    RESTRICTED RIGHTS LEGEND
  
 Use, reproduction and disclosure by the US Government is
 subject to restrictions as set forth in subparagraphs (a)
 and (c) of the Commercial Computer Software - Restricted
 Rights clause in FAR 52.227-19.
  
 Gaussian, Inc.
 340 Quinnipiac St., Bldg. 40, Wallingford CT 06492
  
  
 ---------------------------------------------------------------
 Warning -- This program may not be used in any manner that
 competes with the business of Gaussian, Inc. or will provide
 assistance to any competitor of Gaussian, Inc.  The licensee
 of this program is prohibited from giving any competitor of
 Gaussian, Inc. access to this program.  By using this program,
 the user acknowledges that Gaussian, Inc. is engaged in the
 business of creating and licensing software in the field of
 computational chemistry and represents and warrants to the
 licensee that it is not a competitor of Gaussian, Inc. and that
 it will not use this program in any manner prohibited above.
 ---------------------------------------------------------------
  

 Cite this work as:
 Gaussian 16, Revision A.03,
 M. J. Frisch, G. W. Trucks, H. B. Schlegel, G. E. Scuseria, 
 M. A. Robb, J. R. Cheeseman, G. Scalmani, V. Barone, 
 G. A. Petersson, H. Nakatsuji, X. Li, M. Caricato, A. V. Marenich, 
 J. Bloino, B. G. Janesko, R. Gomperts, B. Mennucci, H. P. Hratchian, 
 J. V. Ortiz, A. F. Izmaylov, J. L. Sonnenberg, D. Williams-Young, 
 F. Ding, F. Lipparini, F. Egidi, J. Goings, B. Peng, A. Petrone, 
 T. Henderson, D. Ranasinghe, V. G. Zakrzewski, J. Gao, N. Rega, 
 G. Zheng, W. Liang, M. Hada, M. Ehara, K. Toyota, R. Fukuda, 
 J. Hasegawa, M. Ishida, T. Nakajima, Y. Honda, O. Kitao, H. Nakai, 
 T. Vreven, K. Throssell, J. A. Montgomery, Jr., J. E. Peralta, 
 F. Ogliaro, M. J. Bearpark, J. J. Heyd, E. N. Brothers, K. N. Kudin, 
 V. N. Staroverov, T. A. Keith, R. Kobayashi, J. Normand, 
 K. Raghavachari, A. P. Rendell, J. C. Burant, S. S. Iyengar, 
 J. Tomasi, M. Cossi, J. M. Millam, M. Klene, C. Adamo, R. Cammi, 
 J. W. Ochterski, R. L. Martin, K. Morokuma, O. Farkas, 
 J. B. Foresman, and D. J. Fox, Gaussian, Inc., Wallingford CT, 2016.
 
 ******************************************
 Gaussian 16:  ES64L-G16RevA.03 25-Dec-2016
                28-May-2023 
 ******************************************
 %chk=CdCCCCC1OCdC1CdCCCCCC.chk
 %NProcShared=20
 Will use up to   20 processors via shared memory.
 -----------------------------
 # opt freq b3lyp/6-31g(2df,p)
 -----------------------------
 1/18=20,19=15,26=3,38=1/1,3;
 2/9=110,12=2,17=6,18=5,40=1/2;
 3/5=1,6=6,7=104,11=2,25=1,30=1,71=1,74=-5/1,2,3;
 4//1;
 5/5=2,38=5/2;
 6/7=2,8=2,9=2,10=2,28=1/1;
 7//1,2,3,16;
 1/18=20,19=15,26=3/3(2);
 2/9=110/2;
 99//99;
 2/9=110/2;
 3/5=1,6=6,7=104,11=2,25=1,30=1,71=1,74=-5/1,2,3;
 4/5=5,16=3,69=1/1;
 5/5=2,38=5/2;
 7//1,2,3,16;
 1/18=20,19=15,26=3/3(-5);
 2/9=110/2;
 6/7=2,8=2,9=2,10=2,19=2,28=1/1;
 99/9=1/99;
 -------------------
 Title Card Required
 -------------------
 Symbolic Z-matrix:
 Charge =  0 Multiplicity = 1
 C                     0.92543  -0.08401  -0.05137 
 C                     2.26191  -0.05983  -0.02973 
 C                     3.02741   0.69726   1.01323 
 C                     4.5225    0.55367   0.78557 
 C                     5.32473   1.29902   1.85396 
 C                     6.83167   1.11013   1.69552 
 O                     7.34806   1.64265   0.44933 
 C                     7.75324   0.48028   0.05779 
 C                     7.31531  -0.19535   1.14496 
 C                     7.23975  -1.59866   1.58501 
 C                     6.66521  -1.92649   2.75199 
 C                     6.54065  -3.33682   3.23352 
 C                     5.86765  -3.39574   4.60478 
 C                     5.78053  -4.83603   5.09632 
 C                     5.11569  -4.90616   6.46669 
 C                     5.03463  -6.34288   6.94944 
 H                     0.39145  -0.63578  -0.81669 
 H                     0.34746   0.44957   0.69613 
 H                     2.81698  -0.60695  -0.79046 
 H                     2.77579   0.30499   2.00625 
 H                     2.75613   1.75783   0.98099 
 H                     4.79303   0.92117  -0.21205 
 H                     4.76303  -0.516     0.80354 
 H                     5.02474   0.93234   2.84394 
 H                     5.08009   2.36734   1.83084 
 H                     7.38539   1.50437   2.55758 
 H                     8.22283   0.14338  -0.86469 
 H                     7.62883  -2.36252   0.91894 
 H                     6.25582  -1.14868   3.39259 
 H                     7.5407   -3.77982   3.30109 
 H                     5.95337  -3.92143   2.5154 
 H                     4.85997  -2.96344   4.54878 
 H                     6.43458  -2.79423   5.32711 
 H                     6.78783  -5.26685   5.15176 
 H                     5.21086  -5.43701   4.37696 
 H                     4.10684  -4.48032   6.41523 
 H                     5.68451  -4.30949   7.1894 
 H                     4.44912  -6.95318   6.2544 
 H                     4.55716  -6.38751   7.9322 
 H                     6.03431  -6.78126   7.03248 
 

 GradGradGradGradGradGradGradGradGradGradGradGradGradGradGradGradGradGrad
 Berny optimization.
 Initialization pass.
                           ----------------------------
                           !    Initial Parameters    !
                           ! (Angstroms and Degrees)  !
 --------------------------                            --------------------------
 ! Name  Definition              Value          Derivative Info.                !
 --------------------------------------------------------------------------------
 ! R1    R(1,2)                  1.3369         estimate D2E/DX2                !
 ! R2    R(1,17)                 1.0841         estimate D2E/DX2                !
 ! R3    R(1,18)                 1.0851         estimate D2E/DX2                !
 ! R4    R(2,3)                  1.499          estimate D2E/DX2                !
 ! R5    R(2,19)                 1.0891         estimate D2E/DX2                !
 ! R6    R(3,4)                  1.5191         estimate D2E/DX2                !
 ! R7    R(3,20)                 1.0969         estimate D2E/DX2                !
 ! R8    R(3,21)                 1.0952         estimate D2E/DX2                !
 ! R9    R(4,5)                  1.5299         estimate D2E/DX2                !
 ! R10   R(4,22)                 1.097          estimate D2E/DX2                !
 ! R11   R(4,23)                 1.0965         estimate D2E/DX2                !
 ! R12   R(5,6)                  1.527          estimate D2E/DX2                !
 ! R13   R(5,24)                 1.0975         estimate D2E/DX2                !
 ! R14   R(5,25)                 1.0962         estimate D2E/DX2                !
 ! R15   R(6,7)                  1.4503         estimate D2E/DX2                !
 ! R16   R(6,9)                  1.4971         estimate D2E/DX2                !
 ! R17   R(6,26)                 1.0978         estimate D2E/DX2                !
 ! R18   R(7,8)                  1.2917         estimate D2E/DX2                !
 ! R19   R(8,9)                  1.3528         estimate D2E/DX2                !
 ! R20   R(8,27)                 1.0886         estimate D2E/DX2                !
 ! R21   R(9,10)                 1.4726         estimate D2E/DX2                !
 ! R22   R(10,11)                1.3414         estimate D2E/DX2                !
 ! R23   R(10,28)                1.0856         estimate D2E/DX2                !
 ! R24   R(11,12)                1.4955         estimate D2E/DX2                !
 ! R25   R(11,29)                1.0876         estimate D2E/DX2                !
 ! R26   R(12,13)                1.5286         estimate D2E/DX2                !
 ! R27   R(12,30)                1.0959         estimate D2E/DX2                !
 ! R28   R(12,31)                1.0965         estimate D2E/DX2                !
 ! R29   R(13,14)                1.5243         estimate D2E/DX2                !
 ! R30   R(13,32)                1.0979         estimate D2E/DX2                !
 ! R31   R(13,33)                1.0977         estimate D2E/DX2                !
 ! R32   R(14,15)                1.5247         estimate D2E/DX2                !
 ! R33   R(14,34)                1.097          estimate D2E/DX2                !
 ! R34   R(14,35)                1.0969         estimate D2E/DX2                !
 ! R35   R(15,16)                1.5178         estimate D2E/DX2                !
 ! R36   R(15,36)                1.0963         estimate D2E/DX2                !
 ! R37   R(15,37)                1.0963         estimate D2E/DX2                !
 ! R38   R(16,38)                1.0947         estimate D2E/DX2                !
 ! R39   R(16,39)                1.0935         estimate D2E/DX2                !
 ! R40   R(16,40)                1.0947         estimate D2E/DX2                !
 ! A1    A(2,1,17)             120.8664         estimate D2E/DX2                !
 ! A2    A(2,1,18)             120.8255         estimate D2E/DX2                !
 ! A3    A(17,1,18)            118.3081         estimate D2E/DX2                !
 ! A4    A(1,2,3)              122.0682         estimate D2E/DX2                !
 ! A5    A(1,2,19)             119.2823         estimate D2E/DX2                !
 ! A6    A(3,2,19)             118.6494         estimate D2E/DX2                !
 ! A7    A(2,3,4)              110.5234         estimate D2E/DX2                !
 ! A8    A(2,3,20)             109.3967         estimate D2E/DX2                !
 ! A9    A(2,3,21)             110.0064         estimate D2E/DX2                !
 ! A10   A(4,3,20)             109.1243         estimate D2E/DX2                !
 ! A11   A(4,3,21)             109.3237         estimate D2E/DX2                !
 ! A12   A(20,3,21)            108.4291         estimate D2E/DX2                !
 ! A13   A(3,4,5)              111.4302         estimate D2E/DX2                !
 ! A14   A(3,4,22)             110.3233         estimate D2E/DX2                !
 ! A15   A(3,4,23)             107.7964         estimate D2E/DX2                !
 ! A16   A(5,4,22)             110.0318         estimate D2E/DX2                !
 ! A17   A(5,4,23)             110.4133         estimate D2E/DX2                !
 ! A18   A(22,4,23)            106.7142         estimate D2E/DX2                !
 ! A19   A(4,5,6)              112.629          estimate D2E/DX2                !
 ! A20   A(4,5,24)             108.8943         estimate D2E/DX2                !
 ! A21   A(4,5,25)             110.0623         estimate D2E/DX2                !
 ! A22   A(6,5,24)             108.7851         estimate D2E/DX2                !
 ! A23   A(6,5,25)             109.7919         estimate D2E/DX2                !
 ! A24   A(24,5,25)            106.4767         estimate D2E/DX2                !
 ! A25   A(5,6,7)              113.2745         estimate D2E/DX2                !
 ! A26   A(5,6,9)              117.6999         estimate D2E/DX2                !
 ! A27   A(5,6,26)             111.8309         estimate D2E/DX2                !
 ! A28   A(7,6,9)               83.6362         estimate D2E/DX2                !
 ! A29   A(7,6,26)             111.3033         estimate D2E/DX2                !
 ! A30   A(9,6,26)             116.0393         estimate D2E/DX2                !
 ! A31   A(6,7,8)               92.3918         estimate D2E/DX2                !
 ! A32   A(7,8,9)               95.9853         estimate D2E/DX2                !
 ! A33   A(7,8,27)             132.1188         estimate D2E/DX2                !
 ! A34   A(9,8,27)             131.7655         estimate D2E/DX2                !
 ! A35   A(6,9,8)               87.9721         estimate D2E/DX2                !
 ! A36   A(6,9,10)             134.7887         estimate D2E/DX2                !
 ! A37   A(8,9,10)             137.1091         estimate D2E/DX2                !
 ! A38   A(9,10,11)            120.9856         estimate D2E/DX2                !
 ! A39   A(9,10,28)            117.9552         estimate D2E/DX2                !
 ! A40   A(11,10,28)           121.0183         estimate D2E/DX2                !
 ! A41   A(10,11,12)           123.1116         estimate D2E/DX2                !
 ! A42   A(10,11,29)           119.9229         estimate D2E/DX2                !
 ! A43   A(12,11,29)           116.9636         estimate D2E/DX2                !
 ! A44   A(11,12,13)           111.2146         estimate D2E/DX2                !
 ! A45   A(11,12,30)           108.9703         estimate D2E/DX2                !
 ! A46   A(11,12,31)           109.6657         estimate D2E/DX2                !
 ! A47   A(13,12,30)           109.3219         estimate D2E/DX2                !
 ! A48   A(13,12,31)           109.3376         estimate D2E/DX2                !
 ! A49   A(30,12,31)           108.2772         estimate D2E/DX2                !
 ! A50   A(12,13,14)           110.5387         estimate D2E/DX2                !
 ! A51   A(12,13,32)           110.0684         estimate D2E/DX2                !
 ! A52   A(12,13,33)           109.9855         estimate D2E/DX2                !
 ! A53   A(14,13,32)           109.6348         estimate D2E/DX2                !
 ! A54   A(14,13,33)           109.5772         estimate D2E/DX2                !
 ! A55   A(32,13,33)           106.9668         estimate D2E/DX2                !
 ! A56   A(13,14,15)           110.9891         estimate D2E/DX2                !
 ! A57   A(13,14,34)           109.5663         estimate D2E/DX2                !
 ! A58   A(13,14,35)           109.6265         estimate D2E/DX2                !
 ! A59   A(15,14,34)           109.6885         estimate D2E/DX2                !
 ! A60   A(15,14,35)           109.7406         estimate D2E/DX2                !
 ! A61   A(34,14,35)           107.1493         estimate D2E/DX2                !
 ! A62   A(14,15,16)           110.6511         estimate D2E/DX2                !
 ! A63   A(14,15,36)           109.9509         estimate D2E/DX2                !
 ! A64   A(14,15,37)           109.9506         estimate D2E/DX2                !
 ! A65   A(16,15,36)           109.48           estimate D2E/DX2                !
 ! A66   A(16,15,37)           109.4641         estimate D2E/DX2                !
 ! A67   A(36,15,37)           107.2784         estimate D2E/DX2                !
 ! A68   A(15,16,38)           110.7531         estimate D2E/DX2                !
 ! A69   A(15,16,39)           110.3522         estimate D2E/DX2                !
 ! A70   A(15,16,40)           110.7571         estimate D2E/DX2                !
 ! A71   A(38,16,39)           108.3193         estimate D2E/DX2                !
 ! A72   A(38,16,40)           108.2601         estimate D2E/DX2                !
 ! A73   A(39,16,40)           108.3131         estimate D2E/DX2                !
 ! D1    D(17,1,2,3)           179.8201         estimate D2E/DX2                !
 ! D2    D(17,1,2,19)           -0.2799         estimate D2E/DX2                !
 ! D3    D(18,1,2,3)            -0.0901         estimate D2E/DX2                !
 ! D4    D(18,1,2,19)          179.8099         estimate D2E/DX2                !
 ! D5    D(1,2,3,4)           -179.6405         estimate D2E/DX2                !
 ! D6    D(1,2,3,20)            60.1822         estimate D2E/DX2                !
 ! D7    D(1,2,3,21)           -58.8219         estimate D2E/DX2                !
 ! D8    D(19,2,3,4)             0.4589         estimate D2E/DX2                !
 ! D9    D(19,2,3,20)         -119.7183         estimate D2E/DX2                !
 ! D10   D(19,2,3,21)          121.2775         estimate D2E/DX2                !
 ! D11   D(2,3,4,5)           -179.0046         estimate D2E/DX2                !
 ! D12   D(2,3,4,22)            58.4625         estimate D2E/DX2                !
 ! D13   D(2,3,4,23)           -57.7046         estimate D2E/DX2                !
 ! D14   D(20,3,4,5)           -58.6641         estimate D2E/DX2                !
 ! D15   D(20,3,4,22)          178.803          estimate D2E/DX2                !
 ! D16   D(20,3,4,23)           62.6358         estimate D2E/DX2                !
 ! D17   D(21,3,4,5)            59.7711         estimate D2E/DX2                !
 ! D18   D(21,3,4,22)          -62.7618         estimate D2E/DX2                !
 ! D19   D(21,3,4,23)         -178.929          estimate D2E/DX2                !
 ! D20   D(3,4,5,6)            176.8804         estimate D2E/DX2                !
 ! D21   D(3,4,5,24)            56.1219         estimate D2E/DX2                !
 ! D22   D(3,4,5,25)           -60.2464         estimate D2E/DX2                !
 ! D23   D(22,4,5,6)           -60.4193         estimate D2E/DX2                !
 ! D24   D(22,4,5,24)          178.8222         estimate D2E/DX2                !
 ! D25   D(22,4,5,25)           62.4539         estimate D2E/DX2                !
 ! D26   D(23,4,5,6)            57.1175         estimate D2E/DX2                !
 ! D27   D(23,4,5,24)          -63.6409         estimate D2E/DX2                !
 ! D28   D(23,4,5,25)          179.9907         estimate D2E/DX2                !
 ! D29   D(4,5,6,7)             62.8809         estimate D2E/DX2                !
 ! D30   D(4,5,6,9)            -32.2568         estimate D2E/DX2                !
 ! D31   D(4,5,6,26)          -170.3671         estimate D2E/DX2                !
 ! D32   D(24,5,6,7)          -176.2981         estimate D2E/DX2                !
 ! D33   D(24,5,6,9)            88.5642         estimate D2E/DX2                !
 ! D34   D(24,5,6,26)          -49.546          estimate D2E/DX2                !
 ! D35   D(25,5,6,7)           -60.1435         estimate D2E/DX2                !
 ! D36   D(25,5,6,9)          -155.2812         estimate D2E/DX2                !
 ! D37   D(25,5,6,26)           66.6086         estimate D2E/DX2                !
 ! D38   D(5,6,7,8)           -118.3498         estimate D2E/DX2                !
 ! D39   D(9,6,7,8)             -0.8863         estimate D2E/DX2                !
 ! D40   D(26,6,7,8)           114.6203         estimate D2E/DX2                !
 ! D41   D(5,6,9,8)            113.8314         estimate D2E/DX2                !
 ! D42   D(5,6,9,10)           -62.3879         estimate D2E/DX2                !
 ! D43   D(7,6,9,8)              0.846          estimate D2E/DX2                !
 ! D44   D(7,6,9,10)          -175.3733         estimate D2E/DX2                !
 ! D45   D(26,6,9,8)          -109.786          estimate D2E/DX2                !
 ! D46   D(26,6,9,10)           73.9947         estimate D2E/DX2                !
 ! D47   D(6,7,8,9)              0.9801         estimate D2E/DX2                !
 ! D48   D(6,7,8,27)           177.0943         estimate D2E/DX2                !
 ! D49   D(7,8,9,6)             -0.9492         estimate D2E/DX2                !
 ! D50   D(7,8,9,10)           175.1082         estimate D2E/DX2                !
 ! D51   D(27,8,9,6)          -177.0849         estimate D2E/DX2                !
 ! D52   D(27,8,9,10)           -1.0275         estimate D2E/DX2                !
 ! D53   D(6,9,10,11)           -2.4543         estimate D2E/DX2                !
 ! D54   D(6,9,10,28)          175.2429         estimate D2E/DX2                !
 ! D55   D(8,9,10,11)         -176.8982         estimate D2E/DX2                !
 ! D56   D(8,9,10,28)            0.7989         estimate D2E/DX2                !
 ! D57   D(9,10,11,12)         178.8678         estimate D2E/DX2                !
 ! D58   D(9,10,11,29)          -0.6214         estimate D2E/DX2                !
 ! D59   D(28,10,11,12)          1.2414         estimate D2E/DX2                !
 ! D60   D(28,10,11,29)       -178.2479         estimate D2E/DX2                !
 ! D61   D(10,11,12,13)        178.8995         estimate D2E/DX2                !
 ! D62   D(10,11,12,30)         58.3194         estimate D2E/DX2                !
 ! D63   D(10,11,12,31)        -60.0409         estimate D2E/DX2                !
 ! D64   D(29,11,12,13)         -1.5971         estimate D2E/DX2                !
 ! D65   D(29,11,12,30)       -122.1773         estimate D2E/DX2                !
 ! D66   D(29,11,12,31)        119.4625         estimate D2E/DX2                !
 ! D67   D(11,12,13,14)       -178.565          estimate D2E/DX2                !
 ! D68   D(11,12,13,32)         60.1767         estimate D2E/DX2                !
 ! D69   D(11,12,13,33)        -57.4334         estimate D2E/DX2                !
 ! D70   D(30,12,13,14)        -58.1922         estimate D2E/DX2                !
 ! D71   D(30,12,13,32)       -179.4506         estimate D2E/DX2                !
 ! D72   D(30,12,13,33)         62.9394         estimate D2E/DX2                !
 ! D73   D(31,12,13,14)         60.1832         estimate D2E/DX2                !
 ! D74   D(31,12,13,32)        -61.0751         estimate D2E/DX2                !
 ! D75   D(31,12,13,33)       -178.6851         estimate D2E/DX2                !
 ! D76   D(12,13,14,15)        179.7666         estimate D2E/DX2                !
 ! D77   D(12,13,14,34)         58.48           estimate D2E/DX2                !
 ! D78   D(12,13,14,35)        -58.8413         estimate D2E/DX2                !
 ! D79   D(32,13,14,15)        -58.7184         estimate D2E/DX2                !
 ! D80   D(32,13,14,34)        179.9949         estimate D2E/DX2                !
 ! D81   D(32,13,14,35)         62.6736         estimate D2E/DX2                !
 ! D82   D(33,13,14,15)         58.393          estimate D2E/DX2                !
 ! D83   D(33,13,14,34)        -62.8936         estimate D2E/DX2                !
 ! D84   D(33,13,14,35)        179.785          estimate D2E/DX2                !
 ! D85   D(13,14,15,16)       -179.9232         estimate D2E/DX2                !
 ! D86   D(13,14,15,36)         59.0163         estimate D2E/DX2                !
 ! D87   D(13,14,15,37)        -58.8829         estimate D2E/DX2                !
 ! D88   D(34,14,15,16)        -58.7085         estimate D2E/DX2                !
 ! D89   D(34,14,15,36)       -179.7689         estimate D2E/DX2                !
 ! D90   D(34,14,15,37)         62.3319         estimate D2E/DX2                !
 ! D91   D(35,14,15,16)         58.7517         estimate D2E/DX2                !
 ! D92   D(35,14,15,36)        -62.3087         estimate D2E/DX2                !
 ! D93   D(35,14,15,37)        179.7921         estimate D2E/DX2                !
 ! D94   D(14,15,16,38)        -60.0585         estimate D2E/DX2                !
 ! D95   D(14,15,16,39)       -179.9967         estimate D2E/DX2                !
 ! D96   D(14,15,16,40)         60.0703         estimate D2E/DX2                !
 ! D97   D(36,15,16,38)         61.2805         estimate D2E/DX2                !
 ! D98   D(36,15,16,39)        -58.6576         estimate D2E/DX2                !
 ! D99   D(36,15,16,40)       -178.5906         estimate D2E/DX2                !
 ! D100  D(37,15,16,38)        178.6131         estimate D2E/DX2                !
 ! D101  D(37,15,16,39)         58.675          estimate D2E/DX2                !
 ! D102  D(37,15,16,40)        -61.258          estimate D2E/DX2                !
 --------------------------------------------------------------------------------
 Trust Radius=3.00D-01 FncErr=1.00D-07 GrdErr=1.00D-06 EigMax=2.50D+02 EigMin=1.00D-04
 Number of steps in this run=    225 maximum allowed number of steps=    240.
 GradGradGradGradGradGradGradGradGradGradGradGradGradGradGradGradGradGrad

                          Input orientation:                          
 ---------------------------------------------------------------------
 Center     Atomic      Atomic             Coordinates (Angstroms)
 Number     Number       Type             X           Y           Z
 ---------------------------------------------------------------------
      1          6           0        0.925430   -0.084010   -0.051370
      2          6           0        2.261910   -0.059830   -0.029730
      3          6           0        3.027410    0.697260    1.013230
      4          6           0        4.522500    0.553670    0.785570
      5          6           0        5.324730    1.299020    1.853960
      6          6           0        6.831670    1.110130    1.695520
      7          8           0        7.348060    1.642650    0.449330
      8          6           0        7.753240    0.480280    0.057790
      9          6           0        7.315310   -0.195350    1.144960
     10          6           0        7.239750   -1.598660    1.585010
     11          6           0        6.665210   -1.926490    2.751990
     12          6           0        6.540650   -3.336820    3.233520
     13          6           0        5.867650   -3.395740    4.604780
     14          6           0        5.780530   -4.836030    5.096320
     15          6           0        5.115690   -4.906160    6.466690
     16          6           0        5.034630   -6.342880    6.949440
     17          1           0        0.391450   -0.635780   -0.816690
     18          1           0        0.347460    0.449570    0.696130
     19          1           0        2.816980   -0.606950   -0.790460
     20          1           0        2.775790    0.304990    2.006250
     21          1           0        2.756130    1.757830    0.980990
     22          1           0        4.793030    0.921170   -0.212050
     23          1           0        4.763030   -0.516000    0.803540
     24          1           0        5.024740    0.932340    2.843940
     25          1           0        5.080090    2.367340    1.830840
     26          1           0        7.385390    1.504370    2.557580
     27          1           0        8.222830    0.143380   -0.864690
     28          1           0        7.628830   -2.362520    0.918940
     29          1           0        6.255820   -1.148680    3.392590
     30          1           0        7.540700   -3.779820    3.301090
     31          1           0        5.953370   -3.921430    2.515400
     32          1           0        4.859970   -2.963440    4.548780
     33          1           0        6.434580   -2.794230    5.327110
     34          1           0        6.787830   -5.266850    5.151760
     35          1           0        5.210860   -5.437010    4.376960
     36          1           0        4.106840   -4.480320    6.415230
     37          1           0        5.684510   -4.309490    7.189400
     38          1           0        4.449120   -6.953180    6.254400
     39          1           0        4.557160   -6.387510    7.932200
     40          1           0        6.034310   -6.781260    7.032480
 ---------------------------------------------------------------------
                    Distance matrix (angstroms):
                    1          2          3          4          5
     1  C    0.000000
     2  C    1.336874   0.000000
     3  C    2.482353   1.498980   0.000000
     4  C    3.747802   2.480194   1.519125   0.000000
     5  C    4.989679   3.843908   2.519250   1.529894   0.000000
     6  C    6.273856   5.022748   3.886949   2.543604   1.526974
     7  O    6.669500   5.384873   4.458673   3.046756   2.486952
     8  C    6.851958   5.518522   4.826325   3.312511   3.129572
     9  C    6.501859   5.189905   4.381802   2.913757   2.588094
    10  C    6.696457   5.454748   4.831355   3.557397   3.483703
    11  C    6.648205   5.532760   4.810503   3.822199   3.606558
    12  C    7.273374   6.300403   5.791921   5.020090   4.987250
    13  C    7.554656   6.753395   6.141567   5.656291   5.468322
    14  C    8.523638   7.840227   7.407334   7.015274   6.954099
    15  C    9.126692   8.592697   8.093173   7.901692   7.734677
    16  C   10.250381   9.791502   9.425025   9.263799   9.189489
    17  H    1.084112   2.109418   3.474750   4.587767   5.934061
    18  H    1.085133   2.109853   2.709988   4.177295   5.180285
    19  H    2.097065   1.089107   2.235742   2.596095   4.112723
    20  H    2.794450   2.131286   1.096940   2.145436   2.740143
    21  H    2.794567   2.137685   1.095190   2.146684   2.751416
    22  H    3.999317   2.720693   2.160755   1.097036   2.166535
    23  H    3.955333   2.675450   2.127991   1.096527   2.170987
    24  H    5.120560   4.107993   2.719575   2.152330   1.097501
    25  H    5.178130   4.158727   2.769684   2.166309   1.096217
    26  H    7.145674   5.949029   4.693446   3.498570   2.187137
    27  H    7.346104   6.022543   5.552095   4.072363   4.138302
    28  H    7.146235   5.916603   5.526682   4.262773   4.426061
    29  H    6.434861   5.371144   4.414916   3.563558   3.037358
    30  H    8.286121   7.266245   6.756355   5.849488   5.727069
    31  H    6.826000   5.917476   5.670102   5.006618   5.299603
    32  H    6.703216   6.011956   5.409169   5.161947   5.064249
    33  H    8.162357   7.320099   6.512209   5.957354   5.481718
    34  H    9.396921   8.628143   8.175500   7.620616   7.491782
    35  H    8.162697   7.551774   7.328806   7.018559   7.193928
    36  H    8.441909   8.030069   7.560034   7.563524   7.462520
    37  H    9.640139   9.049289   8.382887   8.124631   7.749306
    38  H    9.968181   9.580838   9.381916   9.287964   9.393049
    39  H   10.800971  10.425931  10.020292   9.962706   9.829390
    40  H   11.006123  10.453872  10.059875   9.752469   9.623487
                    6          7          8          9         10
     6  C    0.000000
     7  O    1.450250   0.000000
     8  C    1.981959   1.291735   0.000000
     9  C    1.497098   1.965507   1.352848   0.000000
    10  C    2.741584   3.436217   2.630221   1.472628   0.000000
    11  C    3.219456   4.302010   3.772938   2.449902   1.341421
    12  C    4.714393   5.761835   5.111349   3.851106   2.495501
    13  C    5.449403   6.696622   6.265309   4.930372   3.772422
    14  C    6.930163   8.125574   7.585613   6.285277   4.993915
    15  C    7.867935   9.169461   8.777494   7.439816   6.267534
    16  C    9.294105  10.553297  10.071802   8.757032   7.493149
    17  H    7.129925   7.428894   7.497083   7.209847   7.320827
    18  H    6.593944   7.105825   7.433303   7.012011   7.244930
    19  H    5.024559   5.208499   5.125257   4.914289   5.117347
    20  H    4.146681   5.011885   5.348105   4.647516   4.871167
    21  H    4.188090   4.624040   5.239803   4.962653   5.633268
    22  H    2.798318   2.736080   3.005003   3.074084   3.945302
    23  H    2.778345   3.386387   3.238838   2.594902   2.813715
    24  H    2.148365   3.411233   3.925774   3.066746   3.591258
    25  H    2.160306   2.752714   3.721617   3.469008   4.522579
    26  H    1.097806   2.113110   2.726357   2.211211   3.255134
    27  H    3.069952   2.177081   1.088570   2.230924   3.162622
    28  H    3.646620   4.042370   2.972973   2.201364   1.085594
    29  H    2.883379   4.200868   4.002083   2.661428   2.106643
    30  H    5.195401   6.129668   5.358416   4.189048   2.791587
    31  H    5.173027   6.096949   5.352983   4.197220   2.813478
    32  H    5.350016   6.649222   6.356037   5.027624   4.038553
    33  H    5.346976   6.656808   6.342477   5.002024   4.010112
    34  H    7.253509   8.376628   7.740158   6.484813   5.136298
    35  H    7.258250   8.373499   7.754563   6.507652   5.161813
    36  H    7.807272   9.142660   8.849906   7.512057   6.438176
    37  H    7.801985   9.144611   8.836368   7.491389   6.416896
    38  H    9.564356  10.769911  10.226021   8.943695   7.632935
    39  H   10.014199  11.325455  10.926472   9.592542   8.391436
    40  H    9.559967  10.771539  10.214254   8.926257   7.614943
                   11         12         13         14         15
    11  C    0.000000
    12  C    1.495465   0.000000
    13  C    2.495522   1.528645   0.000000
    14  C    3.839787   2.509071   1.524348   0.000000
    15  C    5.007838   3.866100   2.512672   1.524744   0.000000
    16  C    6.307288   5.011243   3.857070   2.502203   1.517822
    17  H    7.332222   7.842989   8.185260   9.035927   9.674824
    18  H    7.055933   7.689649   7.780517   8.764559   9.204305
    19  H    5.394350   6.124567   6.796510   7.830832   8.742625
    20  H    4.545681   5.379883   5.477897   6.708732   7.247533
    21  H    5.656108   6.734385   7.026571   8.340379   8.948139
    22  H    4.516609   5.749488   6.556857   7.892991   8.869467
    23  H    3.066631   4.125744   4.895152   6.174619   7.174200
    24  H    3.297348   4.547030   4.747982   6.238471   6.871730
    25  H    4.668843   6.052949   6.444229   7.939932   8.625322
    26  H    3.511019   4.960605   5.523191   7.015800   7.843951
    27  H    4.448698   5.633547   6.927290   8.142051   9.428749
    28  H    2.116308   2.736910   4.213634   5.194706   6.600266
    29  H    1.087638   2.212326   2.582510   4.089639   4.986847
    30  H    2.121986   1.095863   2.155510   2.727018   4.143711
    31  H    2.131309   1.096523   2.156202   2.743632   4.157414
    32  H    2.750020   2.166566   1.097925   2.157272   2.741885
    33  H    2.727161   2.165358   1.097718   2.156384   2.738314
    34  H    4.114843   2.732354   2.155683   1.096965   2.157589
    35  H    4.132725   2.736164   2.156399   1.096895   2.158201
    36  H    5.146516   4.165849   2.748544   2.160391   1.096251
    37  H    5.131381   4.162697   2.747497   2.160428   1.096303
    38  H    6.515024   5.155412   4.169994   2.756107   2.163255
    39  H    7.153960   5.942940   4.662595   3.456290   2.157330
    40  H    6.503032   5.152926   4.169322   2.756273   2.163326
                   16         17         18         19         20
    16  C    0.000000
    17  H   10.697798   0.000000
    18  H   10.354266   1.862403   0.000000
    19  H    9.885591   2.425843   3.069970   0.000000
    20  H    8.586714   3.813019   2.762988   2.941924   0.000000
    21  H   10.316756   3.814805   2.755790   2.955321   1.778282
    22  H   10.203516   4.707822   4.561830   2.564075   3.061011
    23  H    8.473393   4.663711   4.521186   2.517185   2.463668
    24  H    8.353685   6.109549   5.169439   4.522442   2.480538
    25  H   10.102973   6.165346   5.230984   4.565006   3.097395
    26  H    9.294829   8.054883   7.355954   6.044619   4.794882
    27  H   10.644098   7.870191   8.034386   5.458179   6.159437
    28  H    7.677244   7.640269   7.808703   5.399812   5.643567
    29  H    6.412659   7.236846   6.688349   5.442150   4.018172
    30  H    5.114697   8.829093   8.741639   7.008667   6.408327
    31  H    5.134999   7.268650   7.337684   5.634841   5.312144
    32  H    4.149011   7.360295   6.845020   6.183392   4.635828
    33  H    4.145447   8.883952   8.307903   7.436120   5.832668
    34  H    2.731887   9.898630   9.695796   8.531840   7.552225
    35  H    2.733004   8.558769   8.476614   7.467421   6.672361
    36  H    2.148326   8.993624   8.434741   8.281830   6.641535
    37  H    2.148162  10.276678   9.658950   9.252551   7.524568
    38  H    1.094700  10.313803  10.125151   9.621256   8.574838
    39  H    1.093520  11.268479  10.808698  10.607917   9.114808
    40  H    1.094730  11.455054  11.170251  10.472426   9.278787
                   21         22         23         24         25
    21  H    0.000000
    22  H    2.504457   0.000000
    23  H    3.037999   1.760051   0.000000
    24  H    3.049362   3.064782   2.515832   0.000000
    25  H    2.548438   2.519367   3.077259   1.757458   0.000000
    26  H    4.896930   3.838138   3.746375   2.445790   2.566569
    27  H    5.991477   3.576929   3.897177   4.960259   4.699861
    28  H    6.381562   4.483695   3.411123   4.619850   5.449698
    29  H    5.148927   4.406525   3.054814   2.479359   4.022909
    30  H    7.677274   6.480058   4.960416   5.361296   6.782611
    31  H    6.695577   5.677689   3.993035   4.952714   6.385912
    32  H    6.280578   6.144931   4.475062   4.255670   5.987726
    33  H    7.289788   6.868856   5.333582   4.694796   6.379683
    34  H    9.110217   8.428599   6.751104   6.845763   8.498573
    35  H    8.326106   7.852391   6.098051   6.553885   8.210220
    36  H    8.382714   8.577167   6.901991   6.549316   8.297849
    37  H    9.161448   9.106921   7.484577   6.840694   8.582514
    38  H   10.322634  10.195030   8.440835   8.610691  10.336252
    39  H   10.858618  10.945376   9.237684   8.926882  10.683981
    40  H   10.967363  10.646662   8.925768   8.835311  10.567141
                   26         27         28         29         30
    26  H    0.000000
    27  H    3.776974   0.000000
    28  H    4.206809   3.132684   0.000000
    29  H    3.001973   4.864461   3.078556   0.000000
    30  H    5.338501   5.762857   2.773291   2.929537   0.000000
    31  H    5.611752   5.753098   2.790350   2.923881   1.776789
    32  H    5.504902   7.089909   4.604718   2.564864   3.067494
    33  H    5.201182   7.082780   4.587436   2.546008   2.509910
    34  H    7.275731   8.217511   5.201844   4.509661   2.490592
    35  H    7.498098   8.227248   5.220821   4.522245   3.054821
    36  H    7.838805   9.556004   6.862849   4.985408   4.688279
    37  H    7.625465   9.546700   6.847608   4.973216   4.341077
    38  H    9.685985  10.737015   7.723461   6.719103   5.324483
    39  H    9.958273  11.553135   8.649943   7.137145   6.094976
    40  H    9.513244  10.728726   7.709937   6.709979   5.020072
                   31         32         33         34         35
    31  H    0.000000
    32  H    2.499580   0.000000
    33  H    3.067223   1.764604   0.000000
    34  H    3.075203   3.063646   2.503874   0.000000
    35  H    2.512710   2.504235   3.063423   1.765249   0.000000
    36  H    4.350943   2.520271   3.073317   3.066381   2.507720
    37  H    4.697782   3.076458   2.515302   2.507156   3.066833
    38  H    5.043253   4.358436   4.700934   3.086922   2.530573
    39  H    6.113319   4.823223   4.819010   3.736658   3.737714
    40  H    5.346886   4.703572   4.354872   2.529494   3.088181
                   36         37         38         39         40
    36  H    0.000000
    37  H    1.765663   0.000000
    38  H    2.501611   3.064231   0.000000
    39  H    2.478177   2.478071   1.773885   0.000000
    40  H    3.064386   2.501326   1.774202   1.773840   0.000000
 Stoichiometry    C15H24O
 Framework group  C1[X(C15H24O)]
 Deg. of freedom   114
 Full point group                 C1      NOp   1
 Largest Abelian subgroup         C1      NOp   1
 Largest concise Abelian subgroup C1      NOp   1
                         Standard orientation:                         
 ---------------------------------------------------------------------
 Center     Atomic      Atomic             Coordinates (Angstroms)
 Number     Number       Type             X           Y           Z
 ---------------------------------------------------------------------
      1          6           0        3.033401    4.315656   -0.577529
      2          6           0        2.924482    2.986372   -0.669035
      3          6           0        2.724371    2.119335    0.537259
      4          6           0        2.644331    0.656750    0.134544
      5          6           0        2.415474   -0.245596    1.348617
      6          6           0        2.254723   -1.715197    0.966408
      7          8           0        3.436988   -2.277718    0.342673
      8          6           0        2.804049   -2.530170   -0.754703
      9          6           0        1.615403   -2.025657   -0.351237
     10          6           0        0.289645   -1.781878   -0.944171
     11          6           0       -0.683401   -1.186093   -0.238740
     12          6           0       -2.037914   -0.893360   -0.800894
     13          6           0       -2.940009   -0.235947    0.243514
     14          6           0       -4.326521    0.023236   -0.334453
     15          6           0       -5.237003    0.673958    0.701128
     16          6           0       -6.615517    0.926798    0.118415
     17          1           0        3.180706    4.923891   -1.462770
     18          1           0        2.978020    4.813141    0.385255
     19          1           0        2.980598    2.513460   -1.648503
     20          1           0        1.792577    2.404981    1.040689
     21          1           0        3.553520    2.257044    1.239391
     22          1           0        3.559275    0.355481   -0.390434
     23          1           0        1.820556    0.550865   -0.581386
     24          1           0        1.508712    0.084898    1.871173
     25          1           0        3.242032   -0.135399    2.060199
     26          1           0        1.924628   -2.324676    1.817731
     27          1           0        3.130855   -2.942329   -1.707755
     28          1           0        0.136160   -2.064372   -1.981067
     29          1           0       -0.500887   -0.884855    0.790290
     30          1           0       -2.494911   -1.831359   -1.135895
     31          1           0       -1.941927   -0.228767   -1.667765
     32          1           0       -2.498009    0.710804    0.580764
     33          1           0       -3.024588   -0.882505    1.126573
     34          1           0       -4.767019   -0.923314   -0.671106
     35          1           0       -4.243301    0.672409   -1.214697
     36          1           0       -4.802716    1.622615    1.037596
     37          1           0       -5.325577    0.026122    1.581096
     38          1           0       -6.554092    1.592532   -0.748415
     39          1           0       -7.264221    1.393434    0.864888
     40          1           0       -7.079388   -0.011607   -0.201978
 ---------------------------------------------------------------------
 Rotational constants (GHZ):           0.5400137           0.1986312           0.1562555
 Standard basis: 6-31G(2df,p) (6D, 7F)
 There are   616 symmetry adapted cartesian basis functions of A   symmetry.
 There are   568 symmetry adapted basis functions of A   symmetry.
   568 basis functions,   872 primitive gaussians,   616 cartesian basis functions
    61 alpha electrons       61 beta electrons
       nuclear repulsion energy      1036.8455986406 Hartrees.
 NAtoms=   40 NActive=   40 NUniq=   40 SFac= 1.00D+00 NAtFMM=   60 NAOKFM=F Big=F
 Integral buffers will be    131072 words long.
 Raffenetti 2 integral format.
 Two-electron integral symmetry is turned on.
 One-electron integrals computed using PRISM.
 PrsmSu:  requested number of processors reduced to:  12 ShMem   1 Linda.
 NBasis=   568 RedAO= T EigKep=  3.70D-04  NBF=   568
 NBsUse=   568 1.00D-06 EigRej= -1.00D+00 NBFU=   568
 ExpMin= 1.61D-01 ExpMax= 5.48D+03 ExpMxC= 8.25D+02 IAcc=3 IRadAn=         5 AccDes= 0.00D+00
 Harris functional with IExCor=  402 and IRadAn=       5 diagonalized for initial guess.
 HarFok:  IExCor=  402 AccDes= 0.00D+00 IRadAn=         5 IDoV= 1 UseB2=F ITyADJ=14
 ICtDFT=  3500011 ScaDFX=  1.000000  1.000000  1.000000  1.000000
 FoFCou: FMM=F IPFlag=           0 FMFlag=      100000 FMFlg1=           0
         NFxFlg=           0 DoJE=T BraDBF=F KetDBF=T FulRan=T
         wScrn=  0.000000 ICntrl=       500 IOpCl=  0 I1Cent=   200000004 NGrid=           0
         NMat0=    1 NMatS0=      1 NMatT0=    0 NMatD0=    1 NMtDS0=    0 NMtDT0=    0
 Petite list used in FoFCou.
 Requested convergence on RMS density matrix=1.00D-08 within 128 cycles.
 Requested convergence on MAX density matrix=1.00D-06.
 Requested convergence on             energy=1.00D-06.
 No special actions if energy rises.
 Integral accuracy reduced to 1.0D-05 until final iterations.
 Initial convergence to 1.0D-05 achieved.  Increase integral accuracy.
 SCF Done:  E(RB3LYP) =  -661.209079369     A.U. after   14 cycles
            NFock= 14  Conv=0.30D-08     -V/T= 2.0078

 **********************************************************************

            Population analysis using the SCF density.

 **********************************************************************

 Orbital symmetries:
       Occupied  (A) (A) (A) (A) (A) (A) (A) (A) (A) (A) (A) (A)
                 (A) (A) (A) (A) (A) (A) (A) (A) (A) (A) (A) (A)
                 (A) (A) (A) (A) (A) (A) (A) (A) (A) (A) (A) (A)
                 (A) (A) (A) (A) (A) (A) (A) (A) (A) (A) (A) (A)
                 (A) (A) (A) (A) (A) (A) (A) (A) (A) (A) (A) (A)
                 (A)
       Virtual   (A) (A) (A) (A) (A) (A) (A) (A) (A) (A) (A) (A)
                 (A) (A) (A) (A) (A) (A) (A) (A) (A) (A) (A) (A)
                 (A) (A) (A) (A) (A) (A) (A) (A) (A) (A) (A) (A)
                 (A) (A) (A) (A) (A) (A) (A) (A) (A) (A) (A) (A)
                 (A) (A) (A) (A) (A) (A) (A) (A) (A) (A) (A) (A)
                 (A) (A) (A) (A) (A) (A) (A) (A) (A) (A) (A) (A)
                 (A) (A) (A) (A) (A) (A) (A) (A) (A) (A) (A) (A)
                 (A) (A) (A) (A) (A) (A) (A) (A) (A) (A) (A) (A)
                 (A) (A) (A) (A) (A) (A) (A) (A) (A) (A) (A) (A)
                 (A) (A) (A) (A) (A) (A) (A) (A) (A) (A) (A) (A)
                 (A) (A) (A) (A) (A) (A) (A) (A) (A) (A) (A) (A)
                 (A) (A) (A) (A) (A) (A) (A) (A) (A) (A) (A) (A)
                 (A) (A) (A) (A) (A) (A) (A) (A) (A) (A) (A) (A)
                 (A) (A) (A) (A) (A) (A) (A) (A) (A) (A) (A) (A)
                 (A) (A) (A) (A) (A) (A) (A) (A) (A) (A) (A) (A)
                 (A) (A) (A) (A) (A) (A) (A) (A) (A) (A) (A) (A)
                 (A) (A) (A) (A) (A) (A) (A) (A) (A) (A) (A) (A)
                 (A) (A) (A) (A) (A) (A) (A) (A) (A) (A) (A) (A)
                 (A) (A) (A) (A) (A) (A) (A) (A) (A) (A) (A) (A)
                 (A) (A) (A) (A) (A) (A) (A) (A) (A) (A) (A) (A)
                 (A) (A) (A) (A) (A) (A) (A) (A) (A) (A) (A) (A)
                 (A) (A) (A) (A) (A) (A) (A) (A) (A) (A) (A) (A)
                 (A) (A) (A) (A) (A) (A) (A) (A) (A) (A) (A) (A)
                 (A) (A) (A) (A) (A) (A) (A) (A) (A) (A) (A) (A)
                 (A) (A) (A) (A) (A) (A) (A) (A) (A) (A) (A) (A)
                 (A) (A) (A) (A) (A) (A) (A) (A) (A) (A) (A) (A)
                 (A) (A) (A) (A) (A) (A) (A) (A) (A) (A) (A) (A)
                 (A) (A) (A) (A) (A) (A) (A) (A) (A) (A) (A) (A)
                 (A) (A) (A) (A) (A) (A) (A) (A) (A) (A) (A) (A)
                 (A) (A) (A) (A) (A) (A) (A) (A) (A) (A) (A) (A)
                 (A) (A) (A) (A) (A) (A) (A) (A) (A) (A) (A) (A)
                 (A) (A) (A) (A) (A) (A) (A) (A) (A) (A) (A) (A)
                 (A) (A) (A) (A) (A) (A) (A) (A) (A) (A) (A) (A)
                 (A) (A) (A) (A) (A) (A) (A) (A) (A) (A) (A) (A)
                 (A) (A) (A) (A) (A) (A) (A) (A) (A) (A) (A) (A)
                 (A) (A) (A) (A) (A) (A) (A) (A) (A) (A) (A) (A)
                 (A) (A) (A) (A) (A) (A) (A) (A) (A) (A) (A) (A)
                 (A) (A) (A) (A) (A) (A) (A) (A) (A) (A) (A) (A)
                 (A) (A) (A) (A) (A) (A) (A) (A) (A) (A) (A) (A)
                 (A) (A) (A) (A) (A) (A) (A) (A) (A) (A) (A) (A)
                 (A) (A) (A) (A) (A) (A) (A) (A) (A) (A) (A) (A)
                 (A) (A) (A) (A) (A) (A) (A) (A) (A) (A) (A) (A)
                 (A) (A) (A)
 The electronic state is 1-A.
 Alpha  occ. eigenvalues --  -19.15883 -10.23950 -10.22565 -10.18728 -10.17936
 Alpha  occ. eigenvalues --  -10.17758 -10.17737 -10.17417 -10.17288 -10.17278
 Alpha  occ. eigenvalues --  -10.17259 -10.17108 -10.16900 -10.16745 -10.16690
 Alpha  occ. eigenvalues --  -10.16499  -1.10728  -0.81449  -0.80935  -0.78805
 Alpha  occ. eigenvalues --   -0.76995  -0.74892  -0.71516  -0.70580  -0.66197
 Alpha  occ. eigenvalues --   -0.64703  -0.59759  -0.59157  -0.57512  -0.55453
 Alpha  occ. eigenvalues --   -0.55105  -0.52162  -0.49463  -0.48154  -0.47708
 Alpha  occ. eigenvalues --   -0.47438  -0.45911  -0.44069  -0.43590  -0.43329
 Alpha  occ. eigenvalues --   -0.42154  -0.41081  -0.39609  -0.38818  -0.38134
 Alpha  occ. eigenvalues --   -0.37236  -0.36629  -0.35838  -0.34279  -0.34092
 Alpha  occ. eigenvalues --   -0.33864  -0.33564  -0.32999  -0.32680  -0.32228
 Alpha  occ. eigenvalues --   -0.31517  -0.31139  -0.29602  -0.27672  -0.24587
 Alpha  occ. eigenvalues --   -0.18070
 Alpha virt. eigenvalues --   -0.00410   0.01907   0.07222   0.08962   0.09480
 Alpha virt. eigenvalues --    0.09806   0.11294   0.11878   0.12259   0.12338
 Alpha virt. eigenvalues --    0.12831   0.13436   0.13918   0.14025   0.14401
 Alpha virt. eigenvalues --    0.16118   0.16803   0.17344   0.17522   0.17743
 Alpha virt. eigenvalues --    0.18839   0.19362   0.19627   0.19759   0.20472
 Alpha virt. eigenvalues --    0.20635   0.21726   0.22031   0.22811   0.23114
 Alpha virt. eigenvalues --    0.23826   0.24342   0.25951   0.26275   0.26403
 Alpha virt. eigenvalues --    0.28854   0.29729   0.30487   0.32591   0.33164
 Alpha virt. eigenvalues --    0.35477   0.36716   0.37432   0.44055   0.44625
 Alpha virt. eigenvalues --    0.45611   0.46736   0.47495   0.47733   0.48755
 Alpha virt. eigenvalues --    0.49454   0.51165   0.51426   0.51870   0.52413
 Alpha virt. eigenvalues --    0.52665   0.53279   0.54063   0.54954   0.55575
 Alpha virt. eigenvalues --    0.55974   0.56449   0.57421   0.57856   0.58287
 Alpha virt. eigenvalues --    0.58509   0.59751   0.60548   0.61885   0.62091
 Alpha virt. eigenvalues --    0.62445   0.63470   0.63955   0.64781   0.65825
 Alpha virt. eigenvalues --    0.66358   0.67508   0.68211   0.68902   0.69972
 Alpha virt. eigenvalues --    0.71275   0.72639   0.73289   0.73480   0.73594
 Alpha virt. eigenvalues --    0.74076   0.74612   0.75199   0.75529   0.76441
 Alpha virt. eigenvalues --    0.76524   0.77216   0.78210   0.78323   0.78604
 Alpha virt. eigenvalues --    0.79226   0.79327   0.79957   0.80420   0.80999
 Alpha virt. eigenvalues --    0.81308   0.82472   0.82919   0.83784   0.84069
 Alpha virt. eigenvalues --    0.84370   0.85589   0.85766   0.86153   0.87884
 Alpha virt. eigenvalues --    0.88342   0.88620   0.89192   0.89753   0.90198
 Alpha virt. eigenvalues --    0.91012   0.92414   0.92938   0.94531   0.97522
 Alpha virt. eigenvalues --    0.97815   0.99811   1.01156   1.03424   1.04374
 Alpha virt. eigenvalues --    1.05071   1.05925   1.07490   1.09195   1.12216
 Alpha virt. eigenvalues --    1.12716   1.14569   1.16186   1.18452   1.19523
 Alpha virt. eigenvalues --    1.20054   1.21012   1.21169   1.23167   1.23551
 Alpha virt. eigenvalues --    1.24439   1.25515   1.26261   1.27438   1.28958
 Alpha virt. eigenvalues --    1.30442   1.31143   1.33375   1.34375   1.35577
 Alpha virt. eigenvalues --    1.36929   1.37471   1.38955   1.39847   1.40664
 Alpha virt. eigenvalues --    1.41199   1.41649   1.42474   1.43589   1.44551
 Alpha virt. eigenvalues --    1.45357   1.47543   1.48572   1.50337   1.50639
 Alpha virt. eigenvalues --    1.52850   1.54384   1.55096   1.56586   1.57134
 Alpha virt. eigenvalues --    1.58451   1.59731   1.60602   1.60833   1.62901
 Alpha virt. eigenvalues --    1.63403   1.66041   1.66330   1.67496   1.69281
 Alpha virt. eigenvalues --    1.69556   1.70133   1.71121   1.73057   1.73796
 Alpha virt. eigenvalues --    1.74890   1.78278   1.79527   1.80585   1.83172
 Alpha virt. eigenvalues --    1.84166   1.84394   1.84832   1.86544   1.87978
 Alpha virt. eigenvalues --    1.88667   1.89624   1.91206   1.92029   1.93955
 Alpha virt. eigenvalues --    1.94247   1.96052   1.96693   1.96985   1.97776
 Alpha virt. eigenvalues --    2.00200   2.03190   2.06975   2.08610   2.11313
 Alpha virt. eigenvalues --    2.13479   2.13649   2.15346   2.16261   2.17497
 Alpha virt. eigenvalues --    2.19468   2.20247   2.20695   2.22294   2.23089
 Alpha virt. eigenvalues --    2.23203   2.24152   2.30996   2.31457   2.33340
 Alpha virt. eigenvalues --    2.34131   2.34534   2.35036   2.36394   2.37282
 Alpha virt. eigenvalues --    2.41124   2.41752   2.42145   2.43489   2.45067
 Alpha virt. eigenvalues --    2.46735   2.47567   2.48661   2.50633   2.53861
 Alpha virt. eigenvalues --    2.56787   2.58433   2.62509   2.63955   2.64615
 Alpha virt. eigenvalues --    2.66406   2.68652   2.70180   2.70815   2.71298
 Alpha virt. eigenvalues --    2.73332   2.73846   2.74251   2.75604   2.75980
 Alpha virt. eigenvalues --    2.77094   2.77759   2.78903   2.79829   2.80558
 Alpha virt. eigenvalues --    2.81040   2.81727   2.82451   2.83565   2.83858
 Alpha virt. eigenvalues --    2.84944   2.85704   2.85846   2.87077   2.87320
 Alpha virt. eigenvalues --    2.88312   2.89366   2.90049   2.91330   2.91423
 Alpha virt. eigenvalues --    2.91614   2.92587   2.93643   2.94227   2.95107
 Alpha virt. eigenvalues --    2.95519   2.95755   2.96331   2.97848   2.99104
 Alpha virt. eigenvalues --    3.01115   3.02335   3.03665   3.03856   3.04817
 Alpha virt. eigenvalues --    3.06245   3.06970   3.08815   3.11024   3.12051
 Alpha virt. eigenvalues --    3.13818   3.14080   3.15282   3.17355   3.18634
 Alpha virt. eigenvalues --    3.19015   3.19921   3.20213   3.22423   3.23175
 Alpha virt. eigenvalues --    3.25744   3.26500   3.27331   3.28181   3.28587
 Alpha virt. eigenvalues --    3.30505   3.31287   3.32239   3.34155   3.34820
 Alpha virt. eigenvalues --    3.35620   3.37660   3.39064   3.39925   3.40216
 Alpha virt. eigenvalues --    3.41164   3.42764   3.43906   3.45547   3.45881
 Alpha virt. eigenvalues --    3.48110   3.48522   3.49654   3.50769   3.51593
 Alpha virt. eigenvalues --    3.53018   3.55604   3.56531   3.57421   3.57647
 Alpha virt. eigenvalues --    3.58618   3.59254   3.60405   3.61163   3.61910
 Alpha virt. eigenvalues --    3.62986   3.63938   3.64518   3.66918   3.67104
 Alpha virt. eigenvalues --    3.69449   3.70010   3.70811   3.72423   3.73129
 Alpha virt. eigenvalues --    3.74919   3.75427   3.77048   3.78530   3.79463
 Alpha virt. eigenvalues --    3.80061   3.81057   3.81702   3.83501   3.85029
 Alpha virt. eigenvalues --    3.86774   3.86999   3.91176   3.92390   3.97663
 Alpha virt. eigenvalues --    4.02338   4.02599   4.04335   4.06024   4.08644
 Alpha virt. eigenvalues --    4.12350   4.16458   4.18091   4.19532   4.21308
 Alpha virt. eigenvalues --    4.23238   4.24612   4.28300   4.31014   4.33260
 Alpha virt. eigenvalues --    4.33550   4.35305   4.36230   4.38615   4.39390
 Alpha virt. eigenvalues --    4.39743   4.40681   4.43009   4.43273   4.44150
 Alpha virt. eigenvalues --    4.46182   4.47160   4.47697   4.49057   4.49303
 Alpha virt. eigenvalues --    4.50157   4.50810   4.51666   4.52202   4.53684
 Alpha virt. eigenvalues --    4.54623   4.56351   4.57248   4.57675   4.57815
 Alpha virt. eigenvalues --    4.59360   4.60069   4.61191   4.61723   4.62342
 Alpha virt. eigenvalues --    4.62407   4.63093   4.63963   4.64757   4.65123
 Alpha virt. eigenvalues --    4.66412   4.66935   4.67989   4.68186   4.68758
 Alpha virt. eigenvalues --    4.69274   4.70969   4.71888   4.72457   4.73863
 Alpha virt. eigenvalues --    4.74404   4.75064   4.75866   4.76626   4.77985
 Alpha virt. eigenvalues --    4.79457   4.80628   4.80871   4.82066   4.82999
 Alpha virt. eigenvalues --    4.84294   4.84452   4.87019   4.87808   4.88120
 Alpha virt. eigenvalues --    4.89386   4.90402   4.92101   4.92826   4.93421
 Alpha virt. eigenvalues --    4.95226   4.96512   4.96743   4.97304   4.97551
 Alpha virt. eigenvalues --    4.98626   5.02187   5.02314   5.05948   5.11631
 Alpha virt. eigenvalues --    5.14886   5.16777   5.17480   5.22294   5.24891
 Alpha virt. eigenvalues --    5.27095   5.29936   5.30920   5.33652   5.35282
 Alpha virt. eigenvalues --    5.38812   5.41521   5.43873   5.44741   5.47671
 Alpha virt. eigenvalues --    5.50933   5.51980   5.54229   5.55511   5.60040
 Alpha virt. eigenvalues --    5.62201   5.63916   5.68811   5.75622   5.80062
 Alpha virt. eigenvalues --    5.81664   5.83126   5.98267   6.02461   6.06058
 Alpha virt. eigenvalues --    6.14554   6.29915   6.40213   6.63109   6.67491
 Alpha virt. eigenvalues --    7.27604  10.25453  10.37155  10.65362  11.17392
 Alpha virt. eigenvalues --   11.30107  11.35698  11.55421  11.65620  11.92518
 Alpha virt. eigenvalues --   12.01473  12.16133  12.27867  12.32454  12.55412
 Alpha virt. eigenvalues --   12.65340  13.62455
          Condensed to atoms (all electrons):
               1          2          3          4          5          6
     1  C    5.025195   0.666027  -0.019035   0.001264  -0.000172   0.000002
     2  C    0.666027   4.604240   0.420088  -0.025969   0.001667  -0.000094
     3  C   -0.019035   0.420088   4.881893   0.417106  -0.031250   0.001725
     4  C    0.001264  -0.025969   0.417106   4.797895   0.406665  -0.021894
     5  C   -0.000172   0.001667  -0.031250   0.406665   4.938324   0.368173
     6  C    0.000002  -0.000094   0.001725  -0.021894   0.368173   4.865341
     7  O    0.000000   0.000002   0.000022  -0.004998  -0.007786   0.261025
     8  C   -0.000000   0.000002   0.000049   0.008262  -0.011526  -0.142868
     9  C   -0.000000  -0.000025   0.001115  -0.011626  -0.001390   0.395189
    10  C   -0.000000  -0.000008  -0.000007  -0.005205  -0.000075  -0.054731
    11  C   -0.000000  -0.000002  -0.000090  -0.002005  -0.000008  -0.014910
    12  C    0.000000   0.000000   0.000001   0.000011  -0.000003   0.000152
    13  C   -0.000000  -0.000000   0.000000   0.000000  -0.000000  -0.000008
    14  C   -0.000000  -0.000000   0.000000  -0.000000  -0.000000   0.000000
    15  C   -0.000000  -0.000000   0.000000   0.000000  -0.000000   0.000000
    16  C   -0.000000  -0.000000   0.000000  -0.000000  -0.000000  -0.000000
    17  H    0.358442  -0.007686   0.004856  -0.000161   0.000002  -0.000000
    18  H    0.359026  -0.014128  -0.017250   0.000398  -0.000004   0.000000
    19  H   -0.050564   0.382554  -0.069873  -0.002544   0.000193   0.000008
    20  H   -0.006549  -0.025086   0.355600  -0.029649  -0.004611   0.000097
    21  H   -0.006454  -0.024413   0.355937  -0.030782  -0.003403   0.000084
    22  H    0.000342  -0.000026  -0.038015   0.368672  -0.034129  -0.002132
    23  H    0.000410  -0.000478  -0.038359   0.365865  -0.032753  -0.004443
    24  H    0.000007   0.000192  -0.004244  -0.029419   0.349880  -0.018982
    25  H    0.000006   0.000143  -0.001965  -0.032581   0.354434  -0.019153
    26  H   -0.000000   0.000001  -0.000090   0.004492  -0.052039   0.356678
    27  H   -0.000000  -0.000000   0.000001  -0.000036  -0.000246   0.012203
    28  H    0.000000  -0.000000   0.000001  -0.000032  -0.000050   0.004881
    29  H   -0.000000   0.000000  -0.000041  -0.000186  -0.000256   0.003830
    30  H    0.000000   0.000000  -0.000000  -0.000002   0.000000   0.000004
    31  H   -0.000000  -0.000000   0.000001   0.000021  -0.000003   0.000002
    32  H   -0.000000  -0.000000  -0.000002  -0.000002  -0.000006  -0.000001
    33  H   -0.000000   0.000000   0.000000   0.000000  -0.000000  -0.000000
    34  H   -0.000000  -0.000000  -0.000000  -0.000000  -0.000000  -0.000000
    35  H   -0.000000   0.000000   0.000000   0.000000   0.000000  -0.000000
    36  H    0.000000   0.000000  -0.000000   0.000000   0.000000  -0.000000
    37  H    0.000000   0.000000  -0.000000  -0.000000  -0.000000   0.000000
    38  H    0.000000   0.000000  -0.000000  -0.000000  -0.000000   0.000000
    39  H   -0.000000  -0.000000  -0.000000   0.000000  -0.000000  -0.000000
    40  H    0.000000   0.000000   0.000000   0.000000   0.000000   0.000000
               7          8          9         10         11         12
     1  C    0.000000  -0.000000  -0.000000  -0.000000  -0.000000   0.000000
     2  C    0.000002   0.000002  -0.000025  -0.000008  -0.000002   0.000000
     3  C    0.000022   0.000049   0.001115  -0.000007  -0.000090   0.000001
     4  C   -0.004998   0.008262  -0.011626  -0.005205  -0.002005   0.000011
     5  C   -0.007786  -0.011526  -0.001390  -0.000075  -0.000008  -0.000003
     6  C    0.261025  -0.142868   0.395189  -0.054731  -0.014910   0.000152
     7  O    7.699568   0.324845  -0.052377   0.012360  -0.000177   0.000001
     8  C    0.324845   5.006125   0.617613  -0.055127   0.004281  -0.000247
     9  C   -0.052377   0.617613   4.573393   0.423561   0.000073   0.001679
    10  C    0.012360  -0.055127   0.423561   4.960511   0.623628  -0.010459
    11  C   -0.000177   0.004281   0.000073   0.623628   4.824079   0.396045
    12  C    0.000001  -0.000247   0.001679  -0.010459   0.396045   4.897026
    13  C   -0.000000   0.000001  -0.000132   0.000614  -0.029370   0.425609
    14  C    0.000000  -0.000000   0.000001  -0.000140   0.001809  -0.036352
    15  C   -0.000000   0.000000  -0.000000   0.000001  -0.000126   0.002155
    16  C    0.000000  -0.000000   0.000000  -0.000000   0.000001  -0.000164
    17  H    0.000000   0.000000  -0.000000  -0.000000   0.000000   0.000000
    18  H   -0.000000   0.000000   0.000000  -0.000000  -0.000000  -0.000000
    19  H   -0.000001   0.000001  -0.000001  -0.000002  -0.000002  -0.000000
    20  H   -0.000002   0.000001  -0.000017   0.000020   0.000038  -0.000002
    21  H    0.000008   0.000001  -0.000024  -0.000002  -0.000001   0.000000
    22  H    0.006540   0.000058  -0.003992   0.000279   0.000041   0.000000
    23  H    0.000241  -0.001626  -0.000749   0.006322   0.005781  -0.000117
    24  H    0.002250  -0.000099  -0.005001   0.000787  -0.000233  -0.000009
    25  H   -0.003623   0.000890   0.002182  -0.000148   0.000017  -0.000000
    26  H   -0.017939  -0.000327  -0.025928   0.000854   0.000399  -0.000020
    27  H   -0.017229   0.343068  -0.027500  -0.003255  -0.000077   0.000002
    28  H   -0.000141  -0.006737  -0.033468   0.349127  -0.045774  -0.010758
    29  H   -0.000011   0.000381  -0.019081  -0.033768   0.366400  -0.067106
    30  H   -0.000000   0.000007   0.000016  -0.006769  -0.025552   0.354923
    31  H   -0.000000   0.000016   0.000175  -0.007277  -0.024847   0.355275
    32  H    0.000000  -0.000000   0.000001   0.000333  -0.000280  -0.033767
    33  H    0.000000   0.000000   0.000009   0.000327  -0.000742  -0.033939
    34  H   -0.000000   0.000000   0.000000   0.000006   0.000268  -0.002675
    35  H   -0.000000   0.000000   0.000000   0.000006   0.000262  -0.002366
    36  H   -0.000000   0.000000   0.000000   0.000000   0.000009   0.000167
    37  H    0.000000   0.000000   0.000000   0.000000   0.000009   0.000170
    38  H    0.000000  -0.000000   0.000000   0.000000   0.000000   0.000005
    39  H   -0.000000  -0.000000  -0.000000   0.000000  -0.000000   0.000001
    40  H   -0.000000   0.000000   0.000000   0.000000   0.000000   0.000005
              13         14         15         16         17         18
     1  C   -0.000000  -0.000000  -0.000000  -0.000000   0.358442   0.359026
     2  C   -0.000000  -0.000000  -0.000000  -0.000000  -0.007686  -0.014128
     3  C    0.000000   0.000000   0.000000   0.000000   0.004856  -0.017250
     4  C    0.000000  -0.000000   0.000000  -0.000000  -0.000161   0.000398
     5  C   -0.000000  -0.000000  -0.000000  -0.000000   0.000002  -0.000004
     6  C   -0.000008   0.000000   0.000000  -0.000000  -0.000000   0.000000
     7  O   -0.000000   0.000000  -0.000000   0.000000   0.000000  -0.000000
     8  C    0.000001  -0.000000   0.000000  -0.000000   0.000000   0.000000
     9  C   -0.000132   0.000001  -0.000000   0.000000  -0.000000   0.000000
    10  C    0.000614  -0.000140   0.000001  -0.000000  -0.000000  -0.000000
    11  C   -0.029370   0.001809  -0.000126   0.000001   0.000000  -0.000000
    12  C    0.425609  -0.036352   0.002155  -0.000164   0.000000  -0.000000
    13  C    4.793307   0.428380  -0.032401   0.002314   0.000000  -0.000000
    14  C    0.428380   4.777507   0.432008  -0.036606   0.000000  -0.000000
    15  C   -0.032401   0.432008   4.773511   0.404503  -0.000000   0.000000
    16  C    0.002314  -0.036606   0.404503   4.953667  -0.000000  -0.000000
    17  H    0.000000   0.000000  -0.000000  -0.000000   0.594298  -0.046021
    18  H   -0.000000  -0.000000   0.000000  -0.000000  -0.046021   0.608007
    19  H   -0.000000  -0.000000  -0.000000  -0.000000  -0.008561   0.007045
    20  H   -0.000001  -0.000000   0.000000   0.000000  -0.000125   0.002298
    21  H   -0.000000  -0.000000  -0.000000  -0.000000  -0.000108   0.002330
    22  H   -0.000000  -0.000000   0.000000  -0.000000  -0.000001   0.000016
    23  H   -0.000009   0.000000   0.000000   0.000000  -0.000001   0.000018
    24  H   -0.000018  -0.000000  -0.000000  -0.000000   0.000000   0.000000
    25  H   -0.000000   0.000000   0.000000   0.000000  -0.000000   0.000000
    26  H    0.000000  -0.000000   0.000000  -0.000000   0.000000  -0.000000
    27  H   -0.000000   0.000000  -0.000000   0.000000   0.000000   0.000000
    28  H    0.000126   0.000000   0.000000   0.000000  -0.000000   0.000000
    29  H   -0.004321   0.000161   0.000010   0.000000  -0.000000  -0.000000
    30  H   -0.030033  -0.004295   0.000116   0.000006   0.000000  -0.000000
    31  H   -0.030541  -0.003767   0.000086   0.000007  -0.000000   0.000000
    32  H    0.363590  -0.032547  -0.003187   0.000104  -0.000000   0.000000
    33  H    0.364173  -0.032626  -0.003274   0.000108  -0.000000   0.000000
    34  H   -0.031515   0.364960  -0.035917  -0.002718   0.000000  -0.000000
    35  H   -0.031328   0.364804  -0.035877  -0.002705  -0.000000  -0.000000
    36  H   -0.002423  -0.032898   0.370394  -0.035904   0.000000  -0.000000
    37  H   -0.002497  -0.032873   0.370382  -0.035946  -0.000000  -0.000000
    38  H    0.000203  -0.004648  -0.029179   0.379145  -0.000000   0.000000
    39  H   -0.000175   0.003474  -0.021960   0.370500   0.000000  -0.000000
    40  H    0.000206  -0.004658  -0.029192   0.379114  -0.000000   0.000000
              19         20         21         22         23         24
     1  C   -0.050564  -0.006549  -0.006454   0.000342   0.000410   0.000007
     2  C    0.382554  -0.025086  -0.024413  -0.000026  -0.000478   0.000192
     3  C   -0.069873   0.355600   0.355937  -0.038015  -0.038359  -0.004244
     4  C   -0.002544  -0.029649  -0.030782   0.368672   0.365865  -0.029419
     5  C    0.000193  -0.004611  -0.003403  -0.034129  -0.032753   0.349880
     6  C    0.000008   0.000097   0.000084  -0.002132  -0.004443  -0.018982
     7  O   -0.000001  -0.000002   0.000008   0.006540   0.000241   0.002250
     8  C    0.000001   0.000001   0.000001   0.000058  -0.001626  -0.000099
     9  C   -0.000001  -0.000017  -0.000024  -0.003992  -0.000749  -0.005001
    10  C   -0.000002   0.000020  -0.000002   0.000279   0.006322   0.000787
    11  C   -0.000002   0.000038  -0.000001   0.000041   0.005781  -0.000233
    12  C   -0.000000  -0.000002   0.000000   0.000000  -0.000117  -0.000009
    13  C   -0.000000  -0.000001  -0.000000  -0.000000  -0.000009  -0.000018
    14  C   -0.000000  -0.000000  -0.000000  -0.000000   0.000000  -0.000000
    15  C   -0.000000   0.000000  -0.000000   0.000000   0.000000  -0.000000
    16  C   -0.000000   0.000000  -0.000000  -0.000000   0.000000  -0.000000
    17  H   -0.008561  -0.000125  -0.000108  -0.000001  -0.000001   0.000000
    18  H    0.007045   0.002298   0.002330   0.000016   0.000018   0.000000
    19  H    0.636698   0.004389   0.004415   0.002936   0.003194   0.000017
    20  H    0.004389   0.630250  -0.038876   0.006146  -0.005964   0.005801
    21  H    0.004415  -0.038876   0.628873  -0.005693   0.006256  -0.000553
    22  H    0.002936   0.006146  -0.005693   0.628452  -0.038602   0.006218
    23  H    0.003194  -0.005964   0.006256  -0.038602   0.616564  -0.004051
    24  H    0.000017   0.005801  -0.000553   0.006218  -0.004051   0.626296
    25  H    0.000013  -0.000557   0.004734  -0.004838   0.005580  -0.037822
    26  H    0.000000  -0.000001   0.000003   0.000050   0.000087  -0.002107
    27  H    0.000000   0.000000   0.000000   0.000164   0.000014   0.000015
    28  H    0.000000   0.000000   0.000000   0.000006   0.000169   0.000008
    29  H   -0.000000   0.000024  -0.000000   0.000025   0.000008   0.003561
    30  H   -0.000000   0.000000   0.000000   0.000000   0.000013   0.000002
    31  H    0.000000  -0.000001   0.000000  -0.000001  -0.000078  -0.000005
    32  H    0.000000   0.000011  -0.000000   0.000000   0.000023   0.000041
    33  H    0.000000  -0.000000   0.000000  -0.000000  -0.000001  -0.000007
    34  H   -0.000000   0.000000  -0.000000   0.000000   0.000000   0.000000
    35  H   -0.000000  -0.000000  -0.000000  -0.000000  -0.000000  -0.000000
    36  H   -0.000000  -0.000000   0.000000  -0.000000  -0.000000  -0.000000
    37  H   -0.000000   0.000000  -0.000000   0.000000   0.000000   0.000000
    38  H   -0.000000   0.000000  -0.000000   0.000000   0.000000   0.000000
    39  H   -0.000000   0.000000  -0.000000   0.000000  -0.000000  -0.000000
    40  H    0.000000  -0.000000   0.000000  -0.000000  -0.000000  -0.000000
              25         26         27         28         29         30
     1  C    0.000006  -0.000000  -0.000000   0.000000  -0.000000   0.000000
     2  C    0.000143   0.000001  -0.000000  -0.000000   0.000000   0.000000
     3  C   -0.001965  -0.000090   0.000001   0.000001  -0.000041  -0.000000
     4  C   -0.032581   0.004492  -0.000036  -0.000032  -0.000186  -0.000002
     5  C    0.354434  -0.052039  -0.000246  -0.000050  -0.000256   0.000000
     6  C   -0.019153   0.356678   0.012203   0.004881   0.003830   0.000004
     7  O   -0.003623  -0.017939  -0.017229  -0.000141  -0.000011  -0.000000
     8  C    0.000890  -0.000327   0.343068  -0.006737   0.000381   0.000007
     9  C    0.002182  -0.025928  -0.027500  -0.033468  -0.019081   0.000016
    10  C   -0.000148   0.000854  -0.003255   0.349127  -0.033768  -0.006769
    11  C    0.000017   0.000399  -0.000077  -0.045774   0.366400  -0.025552
    12  C   -0.000000  -0.000020   0.000002  -0.010758  -0.067106   0.354923
    13  C   -0.000000   0.000000  -0.000000   0.000126  -0.004321  -0.030033
    14  C    0.000000  -0.000000   0.000000   0.000000   0.000161  -0.004295
    15  C    0.000000   0.000000  -0.000000   0.000000   0.000010   0.000116
    16  C    0.000000  -0.000000   0.000000   0.000000   0.000000   0.000006
    17  H   -0.000000   0.000000   0.000000  -0.000000  -0.000000   0.000000
    18  H    0.000000  -0.000000   0.000000   0.000000  -0.000000  -0.000000
    19  H    0.000013   0.000000   0.000000   0.000000  -0.000000  -0.000000
    20  H   -0.000557  -0.000001   0.000000   0.000000   0.000024   0.000000
    21  H    0.004734   0.000003   0.000000   0.000000  -0.000000   0.000000
    22  H   -0.004838   0.000050   0.000164   0.000006   0.000025   0.000000
    23  H    0.005580   0.000087   0.000014   0.000169   0.000008   0.000013
    24  H   -0.037822  -0.002107   0.000015   0.000008   0.003561   0.000002
    25  H    0.624611  -0.000956   0.000033   0.000004  -0.000007   0.000000
    26  H   -0.000956   0.633909  -0.000646  -0.000085   0.000234  -0.000001
    27  H    0.000033  -0.000646   0.550583   0.001402  -0.000001  -0.000000
    28  H    0.000004  -0.000085   0.001402   0.648337   0.007298   0.002260
    29  H   -0.000007   0.000234  -0.000001   0.007298   0.650679   0.004645
    30  H    0.000000  -0.000001  -0.000000   0.002260   0.004645   0.634212
    31  H    0.000000   0.000000   0.000000   0.001962   0.004656  -0.040172
    32  H    0.000000  -0.000000  -0.000000   0.000014   0.003118   0.006285
    33  H   -0.000000   0.000001   0.000000   0.000014   0.003400  -0.005720
    34  H    0.000000   0.000000   0.000000   0.000000   0.000018   0.005477
    35  H   -0.000000   0.000000   0.000000   0.000000   0.000018  -0.000604
    36  H    0.000000   0.000000   0.000000  -0.000000   0.000000   0.000007
    37  H   -0.000000  -0.000000   0.000000  -0.000000  -0.000000   0.000004
    38  H   -0.000000  -0.000000  -0.000000   0.000000  -0.000000   0.000001
    39  H    0.000000   0.000000  -0.000000   0.000000  -0.000000   0.000000
    40  H   -0.000000   0.000000   0.000000   0.000000  -0.000000  -0.000002
              31         32         33         34         35         36
     1  C   -0.000000  -0.000000  -0.000000  -0.000000  -0.000000   0.000000
     2  C   -0.000000  -0.000000   0.000000  -0.000000   0.000000   0.000000
     3  C    0.000001  -0.000002   0.000000  -0.000000   0.000000  -0.000000
     4  C    0.000021  -0.000002   0.000000  -0.000000   0.000000   0.000000
     5  C   -0.000003  -0.000006  -0.000000  -0.000000   0.000000   0.000000
     6  C    0.000002  -0.000001  -0.000000  -0.000000  -0.000000  -0.000000
     7  O   -0.000000   0.000000   0.000000  -0.000000  -0.000000  -0.000000
     8  C    0.000016  -0.000000   0.000000   0.000000   0.000000   0.000000
     9  C    0.000175   0.000001   0.000009   0.000000   0.000000   0.000000
    10  C   -0.007277   0.000333   0.000327   0.000006   0.000006   0.000000
    11  C   -0.024847  -0.000280  -0.000742   0.000268   0.000262   0.000009
    12  C    0.355275  -0.033767  -0.033939  -0.002675  -0.002366   0.000167
    13  C   -0.030541   0.363590   0.364173  -0.031515  -0.031328  -0.002423
    14  C   -0.003767  -0.032547  -0.032626   0.364960   0.364804  -0.032898
    15  C    0.000086  -0.003187  -0.003274  -0.035917  -0.035877   0.370394
    16  C    0.000007   0.000104   0.000108  -0.002718  -0.002705  -0.035904
    17  H   -0.000000  -0.000000  -0.000000   0.000000  -0.000000   0.000000
    18  H    0.000000   0.000000   0.000000  -0.000000  -0.000000  -0.000000
    19  H    0.000000   0.000000   0.000000  -0.000000  -0.000000  -0.000000
    20  H   -0.000001   0.000011  -0.000000   0.000000  -0.000000  -0.000000
    21  H    0.000000  -0.000000   0.000000  -0.000000  -0.000000   0.000000
    22  H   -0.000001   0.000000  -0.000000   0.000000  -0.000000  -0.000000
    23  H   -0.000078   0.000023  -0.000001   0.000000  -0.000000  -0.000000
    24  H   -0.000005   0.000041  -0.000007   0.000000  -0.000000  -0.000000
    25  H    0.000000   0.000000  -0.000000   0.000000  -0.000000   0.000000
    26  H    0.000000  -0.000000   0.000001   0.000000   0.000000   0.000000
    27  H    0.000000  -0.000000   0.000000   0.000000   0.000000   0.000000
    28  H    0.001962   0.000014   0.000014   0.000000   0.000000  -0.000000
    29  H    0.004656   0.003118   0.003400   0.000018   0.000018   0.000000
    30  H   -0.040172   0.006285  -0.005720   0.005477  -0.000604   0.000007
    31  H    0.634928  -0.006172   0.006280  -0.000594   0.005192   0.000004
    32  H   -0.006172   0.649003  -0.044288   0.006295  -0.005662   0.004989
    33  H    0.006280  -0.044288   0.647622  -0.005633   0.006285  -0.000447
    34  H   -0.000594   0.006295  -0.005633   0.649017  -0.042748   0.006241
    35  H    0.005192  -0.005662   0.006285  -0.042748   0.648855  -0.005584
    36  H    0.000004   0.004989  -0.000447   0.006241  -0.005584   0.646684
    37  H    0.000007  -0.000446   0.005042  -0.005586   0.006238  -0.041863
    38  H   -0.000002   0.000005   0.000010  -0.000412   0.005116  -0.004532
    39  H    0.000000   0.000004   0.000004  -0.000048  -0.000049  -0.002402
    40  H    0.000001   0.000010   0.000005   0.005135  -0.000411   0.005751
              37         38         39         40
     1  C    0.000000   0.000000  -0.000000   0.000000
     2  C    0.000000   0.000000  -0.000000   0.000000
     3  C   -0.000000  -0.000000  -0.000000   0.000000
     4  C   -0.000000  -0.000000   0.000000   0.000000
     5  C   -0.000000  -0.000000  -0.000000   0.000000
     6  C    0.000000   0.000000  -0.000000   0.000000
     7  O    0.000000   0.000000  -0.000000  -0.000000
     8  C    0.000000  -0.000000  -0.000000   0.000000
     9  C    0.000000   0.000000  -0.000000   0.000000
    10  C    0.000000   0.000000   0.000000   0.000000
    11  C    0.000009   0.000000  -0.000000   0.000000
    12  C    0.000170   0.000005   0.000001   0.000005
    13  C   -0.002497   0.000203  -0.000175   0.000206
    14  C   -0.032873  -0.004648   0.003474  -0.004658
    15  C    0.370382  -0.029179  -0.021960  -0.029192
    16  C   -0.035946   0.379145   0.370500   0.379114
    17  H   -0.000000  -0.000000   0.000000  -0.000000
    18  H   -0.000000   0.000000  -0.000000   0.000000
    19  H   -0.000000  -0.000000  -0.000000   0.000000
    20  H    0.000000   0.000000   0.000000  -0.000000
    21  H   -0.000000  -0.000000  -0.000000   0.000000
    22  H    0.000000   0.000000   0.000000  -0.000000
    23  H    0.000000   0.000000  -0.000000  -0.000000
    24  H    0.000000   0.000000  -0.000000  -0.000000
    25  H   -0.000000  -0.000000   0.000000  -0.000000
    26  H   -0.000000  -0.000000   0.000000   0.000000
    27  H    0.000000  -0.000000  -0.000000   0.000000
    28  H   -0.000000   0.000000   0.000000   0.000000
    29  H   -0.000000  -0.000000  -0.000000  -0.000000
    30  H    0.000004   0.000001   0.000000  -0.000002
    31  H    0.000007  -0.000002   0.000000   0.000001
    32  H   -0.000446   0.000005   0.000004   0.000010
    33  H    0.005042   0.000010   0.000004   0.000005
    34  H   -0.005586  -0.000412  -0.000048   0.005135
    35  H    0.006238   0.005116  -0.000049  -0.000411
    36  H   -0.041863  -0.004532  -0.002402   0.005751
    37  H    0.646816   0.005750  -0.002392  -0.004539
    38  H    0.005750   0.602984  -0.031981  -0.033523
    39  H   -0.002392  -0.031981   0.611987  -0.032012
    40  H   -0.004539  -0.033523  -0.032012   0.603190
 Mulliken charges:
               1
     1  C   -0.327947
     2  C    0.023000
     3  C   -0.218174
     4  C   -0.173558
     5  C   -0.239625
     6  C    0.009826
     7  O   -0.202580
     8  C   -0.087043
     9  C    0.166303
    10  C   -0.201760
    11  C   -0.078944
    12  C   -0.235242
    13  C   -0.183749
    14  C   -0.151695
    15  C   -0.162054
    16  C   -0.375426
    17  H    0.105067
    18  H    0.098265
    19  H    0.090085
    20  H    0.106765
    21  H    0.107668
    22  H    0.107481
    23  H    0.116689
    24  H    0.107475
    25  H    0.109006
    26  H    0.103431
    27  H    0.141503
    28  H    0.081436
    29  H    0.076310
    30  H    0.105167
    31  H    0.104848
    32  H    0.092533
    33  H    0.093398
    34  H    0.090427
    35  H    0.090557
    36  H    0.091806
    37  H    0.091724
    38  H    0.111057
    39  H    0.105048
    40  H    0.110922
[...]
 00094,0.00000011,0.00000002,0.00000046,0.00000031,-0.00000026,0.000000
 86,0.00000046,-0.00000043,-0.00000122,-0.00000077,0.00000168,-0.000000
 56,0.00000084,-0.00000004,-0.00000007,-0.00000024,0.00000179,0.0000012
 9,0.00000121,0.00000038,-0.00000136,-0.00000221,0.00000093,-0.00000140
 ,0.00000211,-0.00000108,-0.00000007,0.00000142,0.00000206,-0.00000113,
 -0.00000048,0.00000082,-0.00000241,0.00000175,-0.00000124,-0.00000030,
 -0.00000108,-0.00000164,0.00004804,-0.00012893,0.00007059,-0.00000262,
 -0.00001269,-0.00001872,0.00017206,0.00034228,-0.00012765,-0.00004244,
 0.00001722,0.00002616,-0.00000533,0.00050010,0.00111971,-0.00015168,0.
 00001865,-0.00036230,-0.08777508,0.16076460,-0.00000174,0.00000035,0.0
 0000102,-0.00000286,-0.00000261,0.00000079,0.00000427,0.00000147,-0.00
 000368,-0.00000112,-0.00000550,0.00000062,0.00000440,0.00000564,-0.000
 00332,0.00001847,-0.00000955,-0.00002613,-0.00002659,0.00006054,0.0000
 1881,0.00000496,-0.00004615,0.00000411,0.00001144,0.00000345,-0.000017
 20,-0.00000939,0.00000279,0.00000680,-0.00005747,0.00002564,0.00001483
 ,-0.00028710,0.00023253,0.00007205,0.00071224,-0.00197088,0.00114705,0
 .01699463,-0.01963797,-0.02236814,0.07507163,-0.09237991,-0.13363752,-
 0.00612593,0.00807638,0.00651624,0.00000114,-0.00000007,-0.00000019,0.
 00000054,0.00000081,-0.00000031,0.00000143,0.00000113,-0.00000011,-0.0
 0000199,-0.00000150,0.00000179,-0.00000121,0.00000193,-0.00000017,0.00
 000039,0.00000011,0.00000322,0.00000220,0.00000282,0.00000142,-0.00000
 302,-0.00000437,0.00000051,-0.00000284,0.00000418,-0.00000184,0.000000
 24,0.00000516,0.00000438,-0.00000232,-0.00000083,0.00000150,-0.0000060
 0,-0.00000463,0.00001404,-0.00000341,0.00007681,-0.00001686,-0.0000459
 6,0.00004851,0.00036916,0.00002138,-0.00003374,-0.00001530,-0.00039083
 ,0.00130453,0.00014355,-0.00001530,0.00013945,-0.00002089,-0.00252801,
 0.00122021,-0.00587951,-0.00030541,-0.00000981,0.00150043,-0.08201764,
 0.09969279,0.14995859,0.00000176,0.00000092,-0.00000044,0.00000267,-0.
 00000383,-0.00000134,-0.00000306,-0.00000026,0.00000499,0.00000183,-0.
 00000471,-0.00000248,-0.00000221,-0.00000148,0.00000640,-0.00000619,-0
 .00000603,-0.00002579,-0.00000386,0.00004923,0.00001093,0.00000070,-0.
 00002932,0.00000860,0.00003124,0.00001004,-0.00001861,-0.00000301,0.00
 002745,0.00001210,0.00002219,-0.00000914,-0.00008046,0.00043648,0.0002
 4942,-0.00011541,0.00001483,-0.00058961,0.00074040,-0.01096344,-0.0020
 5989,-0.00159434,-0.28256424,-0.05648694,-0.01699923,-0.00373309,-0.00
 099612,0.00002792,-0.00000072,-0.00000028,0.00000086,-0.00000053,0.000
 00107,0.00000026,-0.00000064,0.00000172,0.00000172,0.00000137,-0.00000
 091,-0.00000267,0.00000020,0.00000207,-0.00000082,0.00000069,0.0000010
 2,-0.00000052,-0.00000102,0.00000204,0.00000202,-0.00000031,-0.0000014
 9,-0.00000233,0.00000030,0.00000237,-0.00000055,-0.00000075,0.00000563
 ,0.00000496,-0.00000381,-0.00000061,-0.00000508,-0.00000731,-0.0000070
 9,-0.00000980,-0.00001046,0.00001127,-0.00000236,-0.00002709,-0.000005
 43,0.00000684,0.00013297,-0.00006456,0.00026588,-0.00001357,-0.0000016
 3,-0.00004369,0.00054803,0.00081471,-0.00043675,0.00091591,-0.00014272
 ,-0.00028712,0.00106894,0.00012763,-0.00230292,-0.01682115,-0.00355094
 ,-0.00093755,0.30824134,0.00000020,-0.00000003,-0.00000026,0.,0.000000
 03,0.00000009,0.00000013,-0.00000010,-0.00000050,-0.00000040,0.0000003
 2,0.00000029,0.00000051,-0.00000059,-0.00000108,0.00000291,0.00000024,
 0.00000148,-0.00000316,0.00001042,-0.00000203,-0.00000060,-0.00000610,
 0.00000262,0.00000860,-0.00000196,0.00000069,-0.00000521,0.00000615,0.
 00000587,-0.00002994,-0.00002305,-0.00002071,0.00006393,0.00003334,0.0
 0004147,0.00099961,0.00060661,-0.00019349,0.00362653,0.00018204,0.0002
 7948,-0.05577179,-0.06135196,-0.00571998,-0.03206160,-0.00970319,-0.00
 128741,-0.00000008,0.,0.00000012,-0.00000009,0.00000005,0.00000009,-0.
 00000014,-0.00000001,0.00000004,-0.00000014,-0.00000003,-0.00000002,-0
 .00000004,0.00000002,0.00000006,0.00000013,0.00000007,0.00000009,0.000
 00010,-0.00000017,0.00000018,0.00000029,0.00000005,0.00000003,-0.00000
 010,0.00000002,0.00000005,-0.00000009,-0.00000207,-0.00000035,-0.00000
 008,0.00000033,-0.00000063,-0.00000179,-0.00000085,-0.00000398,0.00000
 384,-0.00000211,0.00000035,-0.00000944,-0.00001321,-0.00002932,-0.0000
 7332,-0.00008567,0.00002251,0.00007937,0.00001583,0.00000872,-0.000198
 53,0.00014877,0.00015016,-0.00047134,0.00001640,-0.00002802,0.00006121
 ,0.00042223,0.00101375,0.01984736,0.00469632,0.00170292,0.06397394,0.0
 6842123,-0.00000029,0.00000061,-0.00000052,0.00000065,-0.00000141,0.00
 000109,-0.00000036,-0.00000028,0.00000108,0.00000091,-0.00000318,-0.00
 000046,-0.00000101,-0.00000084,0.00000232,0.00000353,-0.00000281,-0.00
 000935,-0.00000341,0.00003325,0.00000502,-0.00000613,-0.00002110,0.000
 00657,0.00000378,0.00000759,-0.00003275,-0.00001249,0.00002182,0.00001
 655,0.00014672,0.00001633,0.00000788,0.00005588,-0.00012708,-0.0000739
 9,-0.00069550,-0.00146915,0.00144855,-0.03307494,-0.00656043,-0.004797
 45,-0.01649847,-0.00562692,-0.04902902,0.01108253,0.00319337,0.0001731
 3,-0.00000021,-0.00000026,-0.00000035,0.00000001,0.00000066,0.00000001
 ,0.00000021,0.00000072,0.00000081,0.00000057,-0.00000096,-0.00000113,-
 0.00000019,0.00000131,-0.00000047,0.00000052,0.00000080,-0.00000009,-0
 .00000052,0.00000124,0.00000135,0.00000034,-0.00000110,-0.00000147,0.0
 0000015,0.00000154,-0.00000044,-0.00000077,0.00000045,0.00000140,-0.00
 000008,0.00000043,-0.00000138,0.00000459,-0.00000313,-0.00000026,-0.00
 000443,0.00000790,-0.00000339,-0.00001868,-0.00001965,-0.00001986,0.00
 027078,0.00003452,0.00013374,0.00009374,0.00015191,-0.00002553,0.00069
 346,0.00062926,-0.00005193,0.00058979,-0.00036094,0.00149159,-0.002265
 89,0.00108450,-0.00606704,0.01884115,0.00467784,0.00114252,0.02114335,
 0.00259026,0.05514549,0.00000309,0.00000107,0.00000127,0.00000181,-0.0
 0000454,-0.00000489,-0.00000339,0.00000110,0.00000304,-0.00000078,0.00
 000024,-0.00000152,-0.00000130,-0.00000094,-0.00000130,-0.00001807,0.0
 0000313,0.00000435,0.00002057,-0.00004135,-0.00000186,-0.00000077,0.00
 003107,-0.00000512,-0.00001111,-0.00000249,0.00000930,0.00000666,-0.00
 000257,-0.00000103,0.00001675,0.00002477,0.00003929,-0.00002720,-0.000
 08104,0.00001670,0.00044119,0.00005172,0.00016147,0.00034567,0.0004605
 3,-0.00028568,-0.00406359,-0.00132772,-0.00024138,-0.28952605,-0.06198
 333,-0.01154078,-0.00000045,-0.00000012,0.00000188,-0.00000073,0.00000
 033,0.00000012,-0.00000128,0.00000104,0.00000103,0.00000080,0.00000020
 ,-0.00000103,0.00000122,-0.00000005,0.00000017,-0.00000043,0.00000021,
 -0.00000100,-0.00000188,-0.00000034,-0.00000116,-0.00000041,0.00000121
 ,0.00000058,0.00000181,-0.00000164,0.00000169,0.00000235,0.00000210,0.
 00000008,-0.00000139,0.00000008,-0.00000288,-0.00000013,-0.00000149,-0
 .00000357,-0.00000403,-0.00000558,-0.00000525,-0.00000414,-0.00000109,
 0.00000552,0.00002002,-0.00001367,0.00001358,-0.00002025,0.00000163,-0
 .00000163,0.00000549,0.00019274,-0.00012035,-0.00003688,-0.00003562,0.
 00000171,0.00042702,-0.00023706,0.00072056,0.00075563,-0.00047114,-0.0
 0005622,0.00169063,-0.00085788,0.00003193,0.31492334,0.00000168,0.0000
 0055,0.00000046,0.00000156,-0.00000177,-0.00000229,-0.00000255,0.00000
 026,0.00000281,0.00000011,0.00000020,-0.00000120,-0.00000134,-0.000000
 81,0.00000088,-0.00001150,0.00000195,0.00000093,0.00001175,-0.00002312
 ,-0.00000084,0.00000009,0.00001750,-0.00000268,-0.00000251,0.00000063,
 0.00000555,0.00000284,0.00000069,-0.00000199,0.00000606,0.00002344,-0.
 00000807,0.00009814,0.00002647,-0.00000593,0.00012847,-0.00009194,-0.0
 0009150,-0.00079390,0.00130549,-0.00154517,-0.03244895,-0.00910553,-0.
 00113106,-0.06117950,-0.06238711,-0.00326138,-0.00000044,-0.00000007,0
 .00000080,-0.00000041,0.00000006,0.00000007,-0.00000075,0.00000040,0.0
 0000068,0.00000078,0.00000022,-0.00000112,0.00000071,-0.00000014,-0.00
 000006,-0.00000006,0.00000016,-0.00000083,-0.00000120,-0.00000032,-0.0
 0000045,-0.00000027,0.00000092,-0.00000012,0.00000116,-0.00000111,0.00
 000093,0.00000101,0.00000189,0.00000025,-0.00000085,-0.00000008,-0.000
 00181,-0.00000061,-0.00000148,-0.00000366,-0.00000420,-0.00000550,-0.0
 0000228,0.00000172,0.00000019,0.00000396,0.00002984,-0.00001056,0.0000
 5827,-0.00002485,-0.00002879,-0.00001937,0.00021079,0.00019785,-0.0000
 8288,0.00013539,0.00001831,0.00013973,0.00081407,0.00016258,0.00062887
 ,0.00030233,0.00136163,-0.00071198,-0.00063973,-0.00605703,0.00261066,
 0.07001066,0.06950046,0.00000091,-0.00000023,0.00000045,0.00000029,0.0
 0000098,-0.00000154,-0.00000087,0.00000037,0.00000034,-0.00000042,0.00
 000285,-0.00000005,-0.00000026,0.00000005,-0.00000127,-0.00000825,0.00
 000340,0.00001032,0.00001175,-0.00003676,-0.00000549,0.00000028,0.0000
 2614,-0.00000547,-0.00001148,-0.00000421,0.00001188,0.00000739,-0.0000
 0323,-0.00000733,-0.00001129,0.00001555,0.00002190,-0.00002196,-0.0000
 2829,-0.00000070,-0.00006100,0.00012684,-0.00001861,0.00143396,-0.0003
 6306,0.00085570,0.01051042,0.00247284,-0.00039518,-0.01186689,-0.00338
 523,-0.04814375,-0.00000014,0.00000021,0.00000046,-0.00000022,-0.00000
 067,0.,-0.00000045,-0.00000075,-0.00000036,0.00000007,0.00000091,0.000
 00036,0.00000045,-0.00000139,0.00000035,-0.00000054,-0.00000042,-0.000
 00063,-0.00000033,-0.00000150,-0.00000112,0.00000028,0.00000149,0.0000
 0082,0.00000070,-0.00000210,0.00000089,0.00000082,-0.00000049,-0.00000
 161,0.00000054,0.00000035,0.00000006,0.00000175,0.00000065,-0.00000037
 ,0.00000101,-0.00000633,-0.00000105,0.00000441,0.00000009,-0.00000296,
 -0.00003055,0.00000569,-0.00002346,0.00000852,-0.00003536,-0.00000550,
 -0.00013115,-0.00009593,-0.00003593,0.00003555,0.00003291,-0.00003470,
 -0.00045797,0.00010100,-0.00000928,-0.00056664,-0.00041187,0.00019778,
 0.00027920,0.00225186,0.00002913,0.01276958,0.00176052,0.04748846,-0.0
 0000067,0.00000008,-0.00000041,-0.00000011,-0.00000052,0.00000123,0.00
 000043,-0.00000051,-0.00000012,0.00000018,-0.00000164,0.00000015,0.000
 00016,-0.00000022,0.00000060,0.00000513,-0.00000195,-0.00000406,-0.000
 00624,0.00001863,0.00000256,-0.00000078,-0.00001485,0.00000321,0.00000
 049,0.00000332,-0.00000699,-0.00000914,-0.00001171,0.00000614,0.000005
 18,0.00000066,0.00001525,-0.00001135,-0.00009188,0.00002755,0.00059171
 ,-0.00017270,0.00014035,0.00012138,-0.00078063,0.00020549,0.00048613,-
 0.00040555,0.00573189,-0.07174597,0.00776810,-0.07644832,0.00000007,-0
 .00000014,-0.00000036,0.00000017,0.00000048,0.,0.00000026,0.00000053,0
 .00000024,0.00000002,-0.00000065,-0.00000039,-0.00000024,0.00000101,-0
 .00000031,0.00000031,0.00000025,0.00000028,0.00000016,0.00000097,0.000
 00075,-0.00000008,-0.00000097,-0.00000058,-0.00000047,0.00000137,-0.00
 000063,-0.00000025,-0.00000038,0.00000056,0.00000012,-0.00000027,0.000
 00073,0.00000060,0.00000097,0.00000218,0.00000081,0.00000266,0.0000003
 7,-0.00000149,0.00000468,-0.00000283,0.00000328,-0.00000480,-0.0000067
 6,-0.00001758,-0.00004159,0.00002098,-0.00000656,0.00011103,-0.0000331
 6,0.00000907,-0.00008415,-0.00038272,0.00046731,-0.00008962,0.00037917
 ,-0.00002719,0.00023240,-0.00030324,0.00036638,0.00050975,0.00026787,-
 0.00902963,0.00296510,-0.03051552,0.07353916,0.00000437,0.00000148,0.0
 0000357,0.00000149,-0.00000515,-0.00000945,-0.00000512,0.00000289,0.00
 000246,-0.00000222,0.00000641,-0.00000093,-0.00000287,-0.00000020,-0.0
 0000791,-0.00004554,0.00001531,0.00004828,0.00006770,-0.00018614,-0.00
 002099,-0.00000364,0.00013061,-0.00003024,-0.00008868,-0.00001816,0.00
 004299,0.00003787,-0.00005008,-0.00002534,0.00006318,0.00015365,0.0002
 6977,-0.00015705,-0.00075827,0.00001465,0.00069008,0.00055316,0.001953
 18,-0.00178037,-0.00653233,0.00000654,0.01071258,-0.00242974,0.0314696
 9,0.00732747,-0.04844052,0.02201477,-0.00000010,0.00000009,0.00000303,
 -0.00000083,-0.00000077,-0.00000018,-0.00000189,-0.00000012,0.00000020
 ,0.00000101,0.00000177,0.00000052,0.00000278,-0.00000297,0.00000126,-0
 .00000259,-0.00000091,-0.00000297,-0.00000384,-0.00000370,-0.00000566,
 0.00000083,0.00000534,0.00000356,0.00000480,-0.00000761,0.00000488,0.0
 0000608,-0.00000062,-0.00000663,0.00000215,0.00000067,-0.00000014,0.00
 001330,0.00000418,0.00000762,0.00000162,-0.00002494,-0.00001235,-0.000
 02326,0.00001092,0.00000402,0.00001420,-0.00000250,-0.00003321,0.00008
 124,0.00001783,-0.00007091,-0.00008269,0.00001387,0.00000298,-0.000281
 09,0.00013305,0.00012448,0.00013168,-0.00000682,-0.00025918,0.00049443
 ,0.00123680,-0.00064530,-0.00027894,0.00134232,-0.00056054,-0.00166659
 ,-0.00015895,-0.00772971,-0.00764312,0.05321409,-0.00000459,-0.0000010
 1,-0.00000427,-0.00000062,0.00000321,0.00001054,0.00000422,-0.00000367
 ,-0.00000128,0.00000288,-0.00000884,0.00000090,0.00000126,-0.00000125,
 0.00000968,0.00004315,-0.00001661,-0.00004510,-0.00006184,0.00018869,0
 .00001895,-0.00000019,-0.00013433,0.00003227,0.00006672,0.00002182,-0.
 00004931,-0.00004334,0.00000364,0.00003077,-0.00002190,-0.00010996,-0.
 00016169,0.00009471,0.00030745,0.00006452,-0.00051097,-0.00047979,-0.0
 0048033,0.00095438,0.00286296,0.00083322,-0.00262019,-0.00040997,-0.00
 861690,-0.07611203,0.02327803,-0.28258119,-0.00000010,-0.00000050,-0.0
 0000326,0.00000087,0.00000171,0.00000037,0.00000194,0.00000122,0.00000
 035,-0.00000028,-0.00000234,-0.00000192,-0.00000284,0.00000443,-0.0000
 0150,0.00000275,0.00000119,0.00000209,0.00000324,0.00000494,0.00000591
 ,0.00000038,-0.00000533,-0.00000472,-0.00000464,0.00000866,-0.00000488
 ,-0.00000635,-0.00000067,0.00000642,-0.00000160,-0.00000162,0.00000061
 ,-0.00000804,-0.00000211,0.00000104,0.00000211,0.00002072,0.00001207,-
 0.00000005,-0.00000785,-0.00000691,-0.00000525,0.00000602,0.00000653,-
 0.00002698,0.00011476,-0.00000156,0.00006512,0.00003652,-0.00001943,-0
 .00000831,-0.00007877,0.00047013,-0.00001198,-0.00011639,0.00014775,-0
 .00017844,0.00031620,0.00072713,0.00053717,-0.00000573,0.00022970,0.00
 006201,-0.00040185,-0.00055870,0.08382079,-0.02711252,0.30672192,0.000
 00030,-0.00000034,-0.00000079,0.00000099,0.00000210,0.00000098,-0.0000
 0098,-0.00000079,0.00000116,0.00000016,0.00000137,-0.00000007,-0.00000
 059,-0.00000112,0.00000142,-0.00000072,0.00000144,0.00000352,0.0000016
 3,-0.00000406,-0.00000360,-0.00000137,0.00000374,0.00000093,0.00000187
 ,-0.00000050,0.00000016,-0.00000305,0.00000447,0.00000055,-0.00000283,
 -0.00000323,-0.00001961,-0.00002070,0.00006614,0.00000801,0.00009418,-
 0.00009713,-0.00028781,-0.00014443,0.00015073,0.00015518,0.00258559,-0
 .00373436,-0.00334110,-0.11800904,0.08634633,0.07627566,-0.00000052,0.
 00000008,-0.00000037,-0.00000018,-0.00000043,0.00000012,-0.00000036,-0
 .00000060,0.,0.00000046,0.00000049,-0.00000086,0.00000006,-0.00000066,
 -0.00000009,0.00000032,0.00000011,-0.00000063,-0.00000015,-0.00000077,
 0.00000026,0.00000042,0.00000088,-0.00000057,0.00000018,-0.00000078,0.
 00000008,-0.00000032,-0.00000115,-0.00000088,0.00000100,0.00000029,0.0
 0000014,0.00000189,-0.00000005,-0.00000140,0.00000013,-0.00000591,0.00
 000049,0.00001752,0.00000241,-0.00001125,-0.00000684,0.00000390,0.0000
 0261,-0.00003629,-0.00008865,0.00004062,-0.00002589,-0.00002565,0.0000
 0158,0.00013653,0.00020542,-0.00033726,-0.00002435,0.00008573,0.000085
 57,0.00119774,-0.00141139,0.00028379,0.00068799,0.00030735,-0.00064911
 ,-0.01591016,0.02038937,0.01861808,0.00525922,-0.00758844,-0.00603318,
 0.12420058,0.00000054,0.00000055,0.00000207,-0.00000128,-0.00000304,-0
 .00000337,0.00000061,0.00000179,-0.00000108,-0.00000137,-0.00000024,-0
 .00000019,0.00000177,0.00000313,-0.00000450,-0.00000510,0.00000042,-0.
 00000056,0.00000504,-0.00003017,0.00000470,0.00000417,0.00001824,-0.00
 000767,-0.00001196,-0.00000202,0.00001075,0.00000894,-0.00000422,-0.00
 001054,0.00000218,0.00002693,0.00000060,-0.00005773,0.00003608,0.00005
 257,-0.00025192,0.00006838,0.00018894,0.00019531,0.00116039,-0.0019556
 2,0.01724441,-0.02195610,-0.01827657,0.08581885,-0.15156756,-0.0933008
 1,0.00000073,0.00000008,0.00000109,0.00000006,0.00000008,-0.00000029,0
 .00000011,0.00000052,-0.00000005,-0.00000089,-0.00000023,0.00000148,0.
 00000040,-0.00000001,0.00000027,-0.00000070,-0.00000042,0.00000109,-0.
 00000002,0.00000023,-0.00000129,-0.00000208,-0.00000074,0.00000191,0.0
 0000001,-0.00000033,0.00000054,0.00000235,0.00000340,0.00000060,-0.000
 00117,-0.00000040,0.00000087,-0.00000105,0.00000168,0.00000505,-0.0000
 0514,0.00000658,-0.00000400,0.00000379,-0.00000993,0.00007447,0.000004
 97,-0.00000551,0.00000281,-0.00009582,0.00035695,-0.00001408,0.0000060
 0,-0.00002675,-0.00002853,-0.00014029,0.00031510,0.00126725,0.00000675
 ,0.00001996,0.00016099,-0.00140352,-0.00568146,0.00285467,-0.00039886,
 0.00134537,-0.00030718,-0.00404764,0.00525248,0.00530282,-0.00227413,0
 .00178608,0.00171893,-0.09460630,0.16888467,0.00000070,0.00000024,0.00
 000173,-0.00000068,-0.00000147,-0.00000326,-0.00000031,0.00000130,-0.0
 0000056,-0.00000103,0.00000211,-0.00000009,0.00000036,0.00000119,-0.00
 000356,-0.00000952,0.00000370,0.00000950,0.00001344,-0.00004894,-0.000
 00223,0.00000145,0.00003318,-0.00000914,-0.00001769,-0.00000438,0.0000
 1336,0.00000904,-0.00000284,-0.00000859,0.00001226,0.00002030,0.000033
 48,0.00001394,-0.00009237,-0.00001061,-0.00000558,0.00019555,0.0001588
 2,-0.00065406,0.00033682,0.00148931,-0.00647901,0.00715442,0.00580456,
 0.07638353,-0.09400250,-0.13049931,0.00000048,0.00000018,0.00000100,-0
 .00000001,-0.00000034,-0.00000026,-0.00000021,-0.00000012,-0.00000024,
 -0.00000031,0.00000030,0.00000125,0.00000071,-0.00000087,0.00000035,-0
 .00000089,-0.00000051,0.00000003,-0.00000061,-0.00000094,-0.00000168,-
 0.00000071,0.00000065,0.00000176,0.00000094,-0.00000174,0.00000099,0.0
 0000206,0.00000080,-0.00000113,0.00000010,0.00000030,0.00000036,0.0000
 0159,0.00000188,0.00000036,-0.00000122,-0.00000742,-0.00000047,0.00000
 008,-0.00000271,-0.00002153,-0.00000234,-0.00000246,-0.00000232,0.0000
 4361,-0.00003887,-0.00015087,-0.00000884,-0.00002116,0.00000111,0.0003
 0844,-0.00022302,0.00012231,-0.00001613,0.00000257,-0.00004677,-0.0001
 2673,0.00259610,0.00014281,-0.00018335,-0.00077966,0.00027895,-0.00156
 921,0.00206317,0.00063616,0.01707808,-0.01944431,-0.01678995,-0.084792
 35,0.10226187,0.13885436\\-0.00000288,0.00000151,0.00000071,0.00000020
 ,-0.00000066,0.00000236,0.00000073,0.00000236,-0.00000390,0.00000383,-
 0.00000054,0.00000209,0.00000436,0.00000262,0.00000150,-0.00002326,-0.
 00000920,0.00000890,0.00001252,-0.00000578,-0.00001102,-0.00000604,0.0
 0001539,0.00000307,0.00000383,0.00000186,-0.00000442,0.00000057,0.0000
 0308,0.00000119,0.00000283,-0.00000854,-0.00000555,0.00000847,0.000007
 26,0.00000447,-0.00000066,-0.00000205,-0.00000225,-0.00000019,0.000000
 32,-0.00000227,0.00000033,0.00000104,0.00000051,-0.00000036,-0.0000000
 7,-0.00000024,0.00000012,-0.00000013,-0.00000034,0.00000209,-0.0000004
 1,-0.00000100,0.00000199,0.00000053,-0.00000040,-0.00000170,-0.0000012
 9,0.00000088,-0.00000097,-0.00000175,-0.00000142,0.00000013,0.00000078
 ,0.00000072,-0.00000111,-0.00000020,0.00000012,-0.00000134,0.00000066,
 -0.00000003,0.00000049,-0.00000094,0.00000008,0.00000548,-0.00000244,-
 0.00000066,0.00000133,-0.00000250,0.00000170,0.00000008,-0.00000012,0.
 00000157,-0.00000239,-0.00000004,0.00000250,-0.00000105,0.00000069,-0.
 00000113,-0.00000488,0.00000046,0.00000061,-0.00000153,0.00000056,-0.0
 0000030,-0.00000011,-0.00000072,0.00000243,-0.00000028,-0.00000022,0.0
 0000027,-0.00000011,-0.00000040,-0.00000008,0.00000006,-0.00000007,-0.
 00000016,-0.00000034,-0.00000044,-0.00000017,-0.00000009,-0.00000006,-
 0.00000021,-0.00000017,-0.00000041,-0.00000001,0.,-0.00000014,-0.00000
 007\\\@


 TIME IS NATURE'S WAY OF MAKING SURE EVERYTHING
 DOESN'T HAPPEN AT ONCE.
                     - WOODY ALLEN
 Job cpu time:       0 days 10 hours 52 minutes  8.0 seconds.
 Elapsed time:       0 days  2 hours 43 minutes  6.8 seconds.
 File lengths (MBytes):  RWF=    900 Int=      0 D2E=      0 Chk=     27 Scr=      1
 Normal termination of Gaussian 16 at Sun May 28 16:08:34 2023.
### All Done ###
