### Starting Gaussian ###
 Entering Gaussian System, Link 0=g16
 Initial command:
 /cluster/software/gaussian/gaussian-16-A.03/avx2/g16/l1.exe "/local/scratch/cz9n3/Gau-9226.inp" -scrdir="/local/scratch/cz9n3/"
 Entering Link 1 = /cluster/software/gaussian/gaussian-16-A.03/avx2/g16/l1.exe PID=      9228.
  
 Copyright (c) 1988,1990,1992,1993,1995,1998,2003,2009,2016,
            Gaussian, Inc.  All Rights Reserved.
  
 This is part of the Gaussian(R) 16 program.  It is based on
 the Gaussian(R) 09 system (copyright 2009, Gaussian, Inc.),
 the Gaussian(R) 03 system (copyright 2003, Gaussian, Inc.),
 the Gaussian(R) 98 system (copyright 1998, Gaussian, Inc.),
 the Gaussian(R) 94 system (copyright 1995, Gaussian, Inc.),
 the Gaussian 92(TM) system (copyright 1992, Gaussian, Inc.),
 the Gaussian 90(TM) system (copyright 1990, Gaussian, Inc.),
 the Gaussian 88(TM) system (copyright 1988, Gaussian, Inc.),
 the Gaussian 86(TM) system (copyright 1986, Carnegie Mellon
 University), and the Gaussian 82(TM) system (copyright 1983,
 Carnegie Mellon University). Gaussian is a federally registered
 trademark of Gaussian, Inc.
  
 This software contains proprietary and confidential information,
 including trade secrets, belonging to Gaussian, Inc.
  
 This software is provided under written license and may be
 used, copied, transmitted, or stored only in accord with that
 written license.
  
 The following legend is applicable only to US Government
 contracts under FAR:
  
                    RESTRICTED RIGHTS LEGEND
  
 Use, reproduction and disclosure by the US Government is
 subject to restrictions as set forth in subparagraphs (a)
 and (c) of the Commercial Computer Software - Restricted
 Rights clause in FAR 52.227-19.
  
 Gaussian, Inc.
 340 Quinnipiac St., Bldg. 40, Wallingford CT 06492
  
  
 ---------------------------------------------------------------
 Warning -- This program may not be used in any manner that
 competes with the business of Gaussian, Inc. or will provide
 assistance to any competitor of Gaussian, Inc.  The licensee
 of this program is prohibited from giving any competitor of
 Gaussian, Inc. access to this program.  By using this program,
 the user acknowledges that Gaussian, Inc. is engaged in the
 business of creating and licensing software in the field of
 computational chemistry and represents and warrants to the
 licensee that it is not a competitor of Gaussian, Inc. and that
 it will not use this program in any manner prohibited above.
 ---------------------------------------------------------------
  

 Cite this work as:
 Gaussian 16, Revision A.03,
 M. J. Frisch, G. W. Trucks, H. B. Schlegel, G. E. Scuseria, 
 M. A. Robb, J. R. Cheeseman, G. Scalmani, V. Barone, 
 G. A. Petersson, H. Nakatsuji, X. Li, M. Caricato, A. V. Marenich, 
 J. Bloino, B. G. Janesko, R. Gomperts, B. Mennucci, H. P. Hratchian, 
 J. V. Ortiz, A. F. Izmaylov, J. L. Sonnenberg, D. Williams-Young, 
 F. Ding, F. Lipparini, F. Egidi, J. Goings, B. Peng, A. Petrone, 
 T. Henderson, D. Ranasinghe, V. G. Zakrzewski, J. Gao, N. Rega, 
 G. Zheng, W. Liang, M. Hada, M. Ehara, K. Toyota, R. Fukuda, 
 J. Hasegawa, M. Ishida, T. Nakajima, Y. Honda, O. Kitao, H. Nakai, 
 T. Vreven, K. Throssell, J. A. Montgomery, Jr., J. E. Peralta, 
 F. Ogliaro, M. J. Bearpark, J. J. Heyd, E. N. Brothers, K. N. Kudin, 
 V. N. Staroverov, T. A. Keith, R. Kobayashi, J. Normand, 
 K. Raghavachari, A. P. Rendell, J. C. Burant, S. S. Iyengar, 
 J. Tomasi, M. Cossi, J. M. Millam, M. Klene, C. Adamo, R. Cammi, 
 J. W. Ochterski, R. L. Martin, K. Morokuma, O. Farkas, 
 J. B. Foresman, and D. J. Fox, Gaussian, Inc., Wallingford CT, 2016.
 
 ******************************************
 Gaussian 16:  ES64L-G16RevA.03 25-Dec-2016
                23-May-2023 
 ******************************************
 %chk=CdCCCCCCCC1CCqdCrC1.chk
 %NProcShared=20
 Will use up to   20 processors via shared memory.
 -----------------------------
 # opt freq b3lyp/6-31g(2df,p)
 -----------------------------
 1/18=20,19=15,26=3,38=1/1,3;
 2/9=110,12=2,17=6,18=5,40=1/2;
 3/5=1,6=6,7=104,11=2,25=1,30=1,71=1,74=-5/1,2,3;
 4//1;
 5/5=2,38=5/2;
 6/7=2,8=2,9=2,10=2,28=1/1;
 7//1,2,3,16;
 1/18=20,19=15,26=3/3(2);
 2/9=110/2;
 99//99;
 2/9=110/2;
 3/5=1,6=6,7=104,11=2,25=1,30=1,71=1,74=-5/1,2,3;
 4/5=5,16=3,69=1/1;
 5/5=2,38=5/2;
 7//1,2,3,16;
 1/18=20,19=15,26=3/3(-5);
 2/9=110/2;
 6/7=2,8=2,9=2,10=2,19=2,28=1/1;
 99/9=1/99;
 -------------------
 Title Card Required
 -------------------
 Symbolic Z-matrix:
 Charge =  0 Multiplicity = 1
 C                     0.91544   0.04544   0.04924 
 C                     2.25558   0.06281   0.06337 
 C                     3.03013   1.05672   0.87082 
 C                     4.53066   0.85267   0.70573 
 C                     5.29358   1.87358   1.53639 
 C                     6.78803   1.66886   1.37128 
 C                     7.55268   2.69168   2.1975 
 C                     9.03876   2.47969   1.99645 
 C                     9.8586    3.49121   2.79786 
 C                     9.82953   5.005     2.41704 
 C                     10.98862   4.63037   1.51939 
 C                     11.45312   5.14981   0.38245 
 C                     11.34463   3.41185   2.35512 
 H                     0.37675  -0.68409  -0.54351 
 H                     0.34096   0.75962   0.62934 
 H                     2.80241  -0.66638  -0.52917 
 H                     2.76689   0.95481   1.93079 
 H                     2.76724   2.07335   0.55362 
 H                     4.81162   0.95265  -0.35065 
 H                     4.81127  -0.16107   1.01916 
 H                     5.02208   1.77586   2.59441 
 H                     5.02271   2.88917   1.2227 
 H                     7.06138   1.76512   0.31253 
 H                     7.06482   0.65398   1.68336 
 H                     7.29609   2.59387   3.25877 
 H                     7.26736   3.70372   1.88906 
 H                     9.27322   2.54266   0.926 
 H                     9.31051   1.46634   2.31945 
 H                     9.69496   3.33464   3.87294 
 H                     10.07621   5.68608   3.23975 
 H                     8.91561   5.36038   1.93345 
 H                     11.0074   6.05165  -0.02302 
 H                     12.25669   4.66794  -0.16155 
 H                     12.06357   3.56906   3.16423 
 H                     11.61645   2.49693   1.81732 
 

 GradGradGradGradGradGradGradGradGradGradGradGradGradGradGradGradGradGrad
 Berny optimization.
 Initialization pass.
                           ----------------------------
                           !    Initial Parameters    !
                           ! (Angstroms and Degrees)  !
 --------------------------                            --------------------------
 ! Name  Definition              Value          Derivative Info.                !
 --------------------------------------------------------------------------------
 ! R1    R(1,2)                  1.3403         estimate D2E/DX2                !
 ! R2    R(1,14)                 1.0834         estimate D2E/DX2                !
 ! R3    R(1,15)                 1.0847         estimate D2E/DX2                !
 ! R4    R(2,3)                  1.4966         estimate D2E/DX2                !
 ! R5    R(2,16)                 1.0871         estimate D2E/DX2                !
 ! R6    R(3,4)                  1.5233         estimate D2E/DX2                !
 ! R7    R(3,17)                 1.0969         estimate D2E/DX2                !
 ! R8    R(3,18)                 1.0969         estimate D2E/DX2                !
 ! R9    R(4,5)                  1.5213         estimate D2E/DX2                !
 ! R10   R(4,19)                 1.0977         estimate D2E/DX2                !
 ! R11   R(4,20)                 1.0976         estimate D2E/DX2                !
 ! R12   R(5,6)                  1.5174         estimate D2E/DX2                !
 ! R13   R(5,21)                 1.0967         estimate D2E/DX2                !
 ! R14   R(5,22)                 1.0969         estimate D2E/DX2                !
 ! R15   R(6,7)                  1.521          estimate D2E/DX2                !
 ! R16   R(6,23)                 1.0977         estimate D2E/DX2                !
 ! R17   R(6,24)                 1.0973         estimate D2E/DX2                !
 ! R18   R(7,8)                  1.5145         estimate D2E/DX2                !
 ! R19   R(7,25)                 1.0962         estimate D2E/DX2                !
 ! R20   R(7,26)                 1.0958         estimate D2E/DX2                !
 ! R21   R(8,9)                  1.5289         estimate D2E/DX2                !
 ! R22   R(8,27)                 1.0976         estimate D2E/DX2                !
 ! R23   R(8,28)                 1.0978         estimate D2E/DX2                !
 ! R24   R(9,10)                 1.5612         estimate D2E/DX2                !
 ! R25   R(9,13)                 1.5526         estimate D2E/DX2                !
 ! R26   R(9,29)                 1.0987         estimate D2E/DX2                !
 ! R27   R(10,11)                1.5131         estimate D2E/DX2                !
 ! R28   R(10,30)                1.0962         estimate D2E/DX2                !
 ! R29   R(10,31)                1.0933         estimate D2E/DX2                !
 ! R30   R(11,12)                1.3335         estimate D2E/DX2                !
 ! R31   R(11,13)                1.5199         estimate D2E/DX2                !
 ! R32   R(12,32)                1.0846         estimate D2E/DX2                !
 ! R33   R(12,33)                1.0834         estimate D2E/DX2                !
 ! R34   R(13,34)                1.0937         estimate D2E/DX2                !
 ! R35   R(13,35)                1.0955         estimate D2E/DX2                !
 ! A1    A(2,1,14)             120.7736         estimate D2E/DX2                !
 ! A2    A(2,1,15)             121.0223         estimate D2E/DX2                !
 ! A3    A(14,1,15)            118.2041         estimate D2E/DX2                !
 ! A4    A(1,2,3)              122.125          estimate D2E/DX2                !
 ! A5    A(1,2,16)             119.2418         estimate D2E/DX2                !
 ! A6    A(3,2,16)             118.6332         estimate D2E/DX2                !
 ! A7    A(2,3,4)              111.246          estimate D2E/DX2                !
 ! A8    A(2,3,17)             109.6002         estimate D2E/DX2                !
 ! A9    A(2,3,18)             109.6            estimate D2E/DX2                !
 ! A10   A(4,3,17)             109.1883         estimate D2E/DX2                !
 ! A11   A(4,3,18)             109.2009         estimate D2E/DX2                !
 ! A12   A(17,3,18)            107.94           estimate D2E/DX2                !
 ! A13   A(3,4,5)              110.1774         estimate D2E/DX2                !
 ! A14   A(3,4,19)             110.1349         estimate D2E/DX2                !
 ! A15   A(3,4,20)             110.1583         estimate D2E/DX2                !
 ! A16   A(5,4,19)             109.6333         estimate D2E/DX2                !
 ! A17   A(5,4,20)             109.6144         estimate D2E/DX2                !
 ! A18   A(19,4,20)            107.0685         estimate D2E/DX2                !
 ! A19   A(4,5,6)              110.1181         estimate D2E/DX2                !
 ! A20   A(4,5,21)             110.0495         estimate D2E/DX2                !
 ! A21   A(4,5,22)             109.9589         estimate D2E/DX2                !
 ! A22   A(6,5,21)             109.6806         estimate D2E/DX2                !
 ! A23   A(6,5,22)             109.6941         estimate D2E/DX2                !
 ! A24   A(21,5,22)            107.2936         estimate D2E/DX2                !
 ! A25   A(5,6,7)              110.1992         estimate D2E/DX2                !
 ! A26   A(5,6,23)             109.7777         estimate D2E/DX2                !
 ! A27   A(5,6,24)             110.0154         estimate D2E/DX2                !
 ! A28   A(7,6,23)             109.8629         estimate D2E/DX2                !
 ! A29   A(7,6,24)             109.917          estimate D2E/DX2                !
 ! A30   A(23,6,24)            107.0147         estimate D2E/DX2                !
 ! A31   A(6,7,8)              109.0896         estimate D2E/DX2                !
 ! A32   A(6,7,25)             110.378          estimate D2E/DX2                !
 ! A33   A(6,7,26)             109.7103         estimate D2E/DX2                !
 ! A34   A(8,7,25)             110.2244         estimate D2E/DX2                !
 ! A35   A(8,7,26)             110.328          estimate D2E/DX2                !
 ! A36   A(25,7,26)            107.0952         estimate D2E/DX2                !
 ! A37   A(7,8,9)              111.344          estimate D2E/DX2                !
 ! A38   A(7,8,27)             109.3309         estimate D2E/DX2                !
 ! A39   A(7,8,28)             109.4541         estimate D2E/DX2                !
 ! A40   A(9,8,27)             111.02           estimate D2E/DX2                !
 ! A41   A(9,8,28)             108.8901         estimate D2E/DX2                !
 ! A42   A(27,8,28)            106.6803         estimate D2E/DX2                !
 ! A43   A(8,9,10)             120.2418         estimate D2E/DX2                !
 ! A44   A(8,9,13)             109.2652         estimate D2E/DX2                !
 ! A45   A(8,9,29)             109.8016         estimate D2E/DX2                !
 ! A46   A(10,9,13)             89.8754         estimate D2E/DX2                !
 ! A47   A(10,9,29)            111.968          estimate D2E/DX2                !
 ! A48   A(13,9,29)            114.4756         estimate D2E/DX2                !
 ! A49   A(9,10,11)             83.7066         estimate D2E/DX2                !
 ! A50   A(9,10,30)            114.5312         estimate D2E/DX2                !
 ! A51   A(9,10,31)            116.0156         estimate D2E/DX2                !
 ! A52   A(11,10,30)           115.2578         estimate D2E/DX2                !
 ! A53   A(11,10,31)           117.2833         estimate D2E/DX2                !
 ! A54   A(30,10,31)           108.5491         estimate D2E/DX2                !
 ! A55   A(10,11,12)           132.5457         estimate D2E/DX2                !
 ! A56   A(10,11,13)            92.9648         estimate D2E/DX2                !
 ! A57   A(12,11,13)           134.3893         estimate D2E/DX2                !
 ! A58   A(11,12,32)           119.9655         estimate D2E/DX2                !
 ! A59   A(11,12,33)           120.8769         estimate D2E/DX2                !
 ! A60   A(32,12,33)           119.1367         estimate D2E/DX2                !
 ! A61   A(9,13,11)             83.7785         estimate D2E/DX2                !
 ! A62   A(9,13,34)            114.2577         estimate D2E/DX2                !
 ! A63   A(9,13,35)            114.844          estimate D2E/DX2                !
 ! A64   A(11,13,34)           116.4561         estimate D2E/DX2                !
 ! A65   A(11,13,35)           117.2413         estimate D2E/DX2                !
 ! A66   A(34,13,35)           108.6691         estimate D2E/DX2                !
 ! D1    D(14,1,2,3)           179.9961         estimate D2E/DX2                !
 ! D2    D(14,1,2,16)            0.0037         estimate D2E/DX2                !
 ! D3    D(15,1,2,3)             0.0039         estimate D2E/DX2                !
 ! D4    D(15,1,2,16)         -179.9884         estimate D2E/DX2                !
 ! D5    D(1,2,3,4)            179.9794         estimate D2E/DX2                !
 ! D6    D(1,2,3,17)            59.1303         estimate D2E/DX2                !
 ! D7    D(1,2,3,18)           -59.1559         estimate D2E/DX2                !
 ! D8    D(16,2,3,4)            -0.0282         estimate D2E/DX2                !
 ! D9    D(16,2,3,17)         -120.8773         estimate D2E/DX2                !
 ! D10   D(16,2,3,18)          120.8365         estimate D2E/DX2                !
 ! D11   D(2,3,4,5)           -179.9599         estimate D2E/DX2                !
 ! D12   D(2,3,4,19)            58.9757         estimate D2E/DX2                !
 ! D13   D(2,3,4,20)           -58.9038         estimate D2E/DX2                !
 ! D14   D(17,3,4,5)           -58.8691         estimate D2E/DX2                !
 ! D15   D(17,3,4,19)         -179.9335         estimate D2E/DX2                !
 ! D16   D(17,3,4,20)           62.187          estimate D2E/DX2                !
 ! D17   D(18,3,4,5)            58.9414         estimate D2E/DX2                !
 ! D18   D(18,3,4,19)          -62.1231         estimate D2E/DX2                !
 ! D19   D(18,3,4,20)          179.9974         estimate D2E/DX2                !
 ! D20   D(3,4,5,6)            179.9835         estimate D2E/DX2                !
 ! D21   D(3,4,5,21)            58.9539         estimate D2E/DX2                !
 ! D22   D(3,4,5,22)           -59.0286         estimate D2E/DX2                !
 ! D23   D(19,4,5,6)           -58.6526         estimate D2E/DX2                !
 ! D24   D(19,4,5,21)         -179.6823         estimate D2E/DX2                !
 ! D25   D(19,4,5,22)           62.3353         estimate D2E/DX2                !
 ! D26   D(20,4,5,6)            58.6028         estimate D2E/DX2                !
 ! D27   D(20,4,5,21)          -62.4268         estimate D2E/DX2                !
 ! D28   D(20,4,5,22)          179.5907         estimate D2E/DX2                !
 ! D29   D(4,5,6,7)            179.8133         estimate D2E/DX2                !
 ! D30   D(4,5,6,23)            58.6804         estimate D2E/DX2                !
 ! D31   D(4,5,6,24)           -58.8317         estimate D2E/DX2                !
 ! D32   D(21,5,6,7)           -58.9364         estimate D2E/DX2                !
 ! D33   D(21,5,6,23)          179.9306         estimate D2E/DX2                !
 ! D34   D(21,5,6,24)           62.4185         estimate D2E/DX2                !
 ! D35   D(22,5,6,7)            58.6669         estimate D2E/DX2                !
 ! D36   D(22,5,6,23)          -62.466          estimate D2E/DX2                !
 ! D37   D(22,5,6,24)         -179.9781         estimate D2E/DX2                !
 ! D38   D(5,6,7,8)           -179.0636         estimate D2E/DX2                !
 ! D39   D(5,6,7,25)            59.6852         estimate D2E/DX2                !
 ! D40   D(5,6,7,26)           -58.1014         estimate D2E/DX2                !
 ! D41   D(23,6,7,8)           -57.9816         estimate D2E/DX2                !
 ! D42   D(23,6,7,25)         -179.2328         estimate D2E/DX2                !
 ! D43   D(23,6,7,26)           62.9806         estimate D2E/DX2                !
 ! D44   D(24,6,7,8)            59.5229         estimate D2E/DX2                !
 ! D45   D(24,6,7,25)          -61.7284         estimate D2E/DX2                !
 ! D46   D(24,6,7,26)         -179.515          estimate D2E/DX2                !
 ! D47   D(6,7,8,9)            179.5483         estimate D2E/DX2                !
 ! D48   D(6,7,8,27)            56.5102         estimate D2E/DX2                !
 ! D49   D(6,7,8,28)           -60.0096         estimate D2E/DX2                !
 ! D50   D(25,7,8,9)           -59.107          estimate D2E/DX2                !
 ! D51   D(25,7,8,27)          177.8549         estimate D2E/DX2                !
 ! D52   D(25,7,8,28)           61.3352         estimate D2E/DX2                !
 ! D53   D(26,7,8,9)            58.9641         estimate D2E/DX2                !
 ! D54   D(26,7,8,27)          -64.074          estimate D2E/DX2                !
 ! D55   D(26,7,8,28)          179.4062         estimate D2E/DX2                !
 ! D56   D(7,8,9,10)           -67.7316         estimate D2E/DX2                !
 ! D57   D(7,8,9,13)          -169.3327         estimate D2E/DX2                !
 ! D58   D(7,8,9,29)            64.3464         estimate D2E/DX2                !
 ! D59   D(27,8,9,10)           54.3342         estimate D2E/DX2                !
 ! D60   D(27,8,9,13)          -47.2669         estimate D2E/DX2                !
 ! D61   D(27,8,9,29)         -173.5878         estimate D2E/DX2                !
 ! D62   D(28,8,9,10)          171.4948         estimate D2E/DX2                !
 ! D63   D(28,8,9,13)           69.8937         estimate D2E/DX2                !
 ! D64   D(28,8,9,29)          -56.4272         estimate D2E/DX2                !
 ! D65   D(8,9,10,11)          -89.4135         estimate D2E/DX2                !
 ! D66   D(8,9,10,30)          155.6547         estimate D2E/DX2                !
 ! D67   D(8,9,10,31)           27.931          estimate D2E/DX2                !
 ! D68   D(13,9,10,11)          22.9605         estimate D2E/DX2                !
 ! D69   D(13,9,10,30)         -91.9713         estimate D2E/DX2                !
 ! D70   D(13,9,10,31)         140.305          estimate D2E/DX2                !
 ! D71   D(29,9,10,11)         139.4393         estimate D2E/DX2                !
 ! D72   D(29,9,10,30)          24.5075         estimate D2E/DX2                !
 ! D73   D(29,9,10,31)        -103.2162         estimate D2E/DX2                !
 ! D74   D(8,9,13,11)           99.3427         estimate D2E/DX2                !
 ! D75   D(8,9,13,34)         -144.3984         estimate D2E/DX2                !
 ! D76   D(8,9,13,35)          -17.8468         estimate D2E/DX2                !
 ! D77   D(10,9,13,11)         -22.85           estimate D2E/DX2                !
 ! D78   D(10,9,13,34)          93.4088         estimate D2E/DX2                !
 ! D79   D(10,9,13,35)        -140.0396         estimate D2E/DX2                !
 ! D80   D(29,9,13,11)        -137.0571         estimate D2E/DX2                !
 ! D81   D(29,9,13,34)         -20.7983         estimate D2E/DX2                !
 ! D82   D(29,9,13,35)         105.7533         estimate D2E/DX2                !
 ! D83   D(9,10,11,12)         153.1417         estimate D2E/DX2                !
 ! D84   D(9,10,11,13)         -23.5179         estimate D2E/DX2                !
 ! D85   D(30,10,11,12)        -92.6642         estimate D2E/DX2                !
 ! D86   D(30,10,11,13)         90.6762         estimate D2E/DX2                !
 ! D87   D(31,10,11,12)         37.0614         estimate D2E/DX2                !
 ! D88   D(31,10,11,13)       -139.5982         estimate D2E/DX2                !
 ! D89   D(10,11,12,32)          4.1083         estimate D2E/DX2                !
 ! D90   D(10,11,12,33)       -174.2148         estimate D2E/DX2                !
 ! D91   D(13,11,12,32)        179.4376         estimate D2E/DX2                !
 ! D92   D(13,11,12,33)          1.1144         estimate D2E/DX2                !
 ! D93   D(10,11,13,9)          23.6529         estimate D2E/DX2                !
 ! D94   D(10,11,13,34)        -90.3867         estimate D2E/DX2                !
 ! D95   D(10,11,13,35)        138.4393         estimate D2E/DX2                !
 ! D96   D(12,11,13,9)        -152.9031         estimate D2E/DX2                !
 ! D97   D(12,11,13,34)         93.0572         estimate D2E/DX2                !
 ! D98   D(12,11,13,35)        -38.1167         estimate D2E/DX2                !
 --------------------------------------------------------------------------------
 Trust Radius=3.00D-01 FncErr=1.00D-07 GrdErr=1.00D-06 EigMax=2.50D+02 EigMin=1.00D-04
 Number of steps in this run=    209 maximum allowed number of steps=    210.
 GradGradGradGradGradGradGradGradGradGradGradGradGradGradGradGradGradGrad

                          Input orientation:                          
 ---------------------------------------------------------------------
 Center     Atomic      Atomic             Coordinates (Angstroms)
 Number     Number       Type             X           Y           Z
 ---------------------------------------------------------------------
      1          6           0        0.915440    0.045440    0.049240
      2          6           0        2.255580    0.062810    0.063370
      3          6           0        3.030130    1.056720    0.870820
      4          6           0        4.530660    0.852670    0.705730
      5          6           0        5.293580    1.873580    1.536390
      6          6           0        6.788030    1.668860    1.371280
      7          6           0        7.552680    2.691680    2.197500
      8          6           0        9.038760    2.479690    1.996450
      9          6           0        9.858600    3.491210    2.797860
     10          6           0        9.829530    5.005000    2.417040
     11          6           0       10.988620    4.630370    1.519390
     12          6           0       11.453120    5.149810    0.382450
     13          6           0       11.344630    3.411850    2.355120
     14          1           0        0.376750   -0.684090   -0.543510
     15          1           0        0.340960    0.759620    0.629340
     16          1           0        2.802410   -0.666380   -0.529170
     17          1           0        2.766890    0.954810    1.930790
     18          1           0        2.767240    2.073350    0.553620
     19          1           0        4.811620    0.952650   -0.350650
     20          1           0        4.811270   -0.161070    1.019160
     21          1           0        5.022080    1.775860    2.594410
     22          1           0        5.022710    2.889170    1.222700
     23          1           0        7.061380    1.765120    0.312530
     24          1           0        7.064820    0.653980    1.683360
     25          1           0        7.296090    2.593870    3.258770
     26          1           0        7.267360    3.703720    1.889060
     27          1           0        9.273220    2.542660    0.926000
     28          1           0        9.310510    1.466340    2.319450
     29          1           0        9.694960    3.334640    3.872940
     30          1           0       10.076210    5.686080    3.239750
     31          1           0        8.915610    5.360380    1.933450
     32          1           0       11.007400    6.051650   -0.023020
     33          1           0       12.256690    4.667940   -0.161550
     34          1           0       12.063570    3.569060    3.164230
     35          1           0       11.616450    2.496930    1.817320
 ---------------------------------------------------------------------
                    Distance matrix (angstroms):
                    1          2          3          4          5
     1  C    0.000000
     2  C    1.340327   0.000000
     3  C    2.483867   1.496583   0.000000
     4  C    3.761970   2.492488   1.523313   0.000000
     5  C    4.972104   3.831203   2.496688   1.521282   0.000000
     6  C    6.234629   4.983285   3.840181   2.490952   1.517416
     7  C    7.461271   6.286870   4.988650   3.839263   2.491964
     8  C    8.700892   7.455846   6.276585   4.963478   3.821701
     9  C    9.970374   8.777088   7.501215   6.302844   5.004742
    10  C   10.472092   9.345037   8.013211   6.946110   5.581772
    11  C   11.164761   9.962358   8.748096   7.525843   6.327216
    12  C   11.713596  10.515423   9.377561   8.154163   7.071435
    13  C   11.199009   9.953844   8.768164   7.463248   6.296967
    14  H    1.083399   2.110963   3.474360   4.601869   5.919702
    15  H    1.084710   2.114624   2.716287   4.191429   5.156752
    16  H    2.098071   1.087127   2.231793   2.611386   4.113862
    17  H    2.791962   2.131750   1.096913   2.149904   2.717324
    18  H    2.792128   2.131763   1.096934   2.150081   2.718113
    19  H    4.020343   2.737986   2.162528   1.097667   2.154372
    20  H    4.020060   2.737738   2.162748   1.097565   2.154054
    21  H    5.131933   4.122405   2.730529   2.158908   1.096662
    22  H    5.131615   4.121816   2.729848   2.157940   1.096902
    23  H    6.387425   5.104474   4.130919   2.718771   2.152839
    24  H    6.391834   5.109074   4.135353   2.723455   2.155531
    25  H    7.583421   6.482560   5.124798   4.146974   2.737783
    26  H    7.557436   6.458120   5.098778   4.125322   2.714700
    27  H    8.766830   7.492734   6.417728   5.039490   4.081394
    28  H    8.811924   7.538689   6.458289   5.082091   4.112755
    29  H   10.125191   8.975638   7.656475   6.546861   5.192909
    30  H   11.221225  10.142623   8.757285   7.780503   6.349027
    31  H    9.787827   8.713062   7.368144   6.407381   5.043266
    32  H   11.744251  10.605094   9.454370   8.337184   7.248156
    33  H   12.248914  11.012720   9.961732   8.660254   7.692617
    34  H   12.099581  10.867649   9.652700   8.376618   7.166399
    35  H   11.119691   9.829912   8.757566   7.358508   6.359730
                    6          7          8          9         10
     6  C    0.000000
     7  C    1.521016   0.000000
     8  C    2.472664   1.514528   0.000000
     9  C    3.845060   2.513354   1.528911   0.000000
    10  C    4.634023   3.253259   2.679441   1.561227   0.000000
    11  C    5.141735   4.003003   2.941932   2.051613   1.513147
    12  C    5.904055   4.954820   3.945082   3.335814   2.607023
    13  C    4.976802   3.862949   2.512887   1.552611   2.199429
    14  H    7.092764   8.390645   9.565109  10.885925  11.423032
    15  H    6.553007   7.628951   8.971029  10.136544  10.547610
    16  H    4.995020   6.424668   7.427555   8.839938   9.498690
    17  H    4.122194   5.098199   6.454915   7.581391   8.156063
    18  H    4.122976   5.097559   6.448165   7.571943   7.870378
    19  H    2.717388   4.126827   5.070448   6.467566   7.018623
    20  H    2.716655   4.128195   5.079408   6.479079   7.336571
    21  H    2.150831   2.720331   4.121487   5.135732   5.793995
    22  H    2.151183   2.718453   4.110355   5.121466   5.385973
    23  H    1.097697   2.157082   2.693739   4.120763   4.752730
    24  H    1.097264   2.157445   2.706969   4.134875   5.207042
    25  H    2.162496   1.096220   2.154852   2.753927   3.597273
    26  H    2.153720   1.095795   2.155839   2.754197   2.921782
    27  H    2.671698   2.144569   1.097634   2.178595   2.931859
    28  H    2.702396   2.146228   1.097750   2.151599   3.577851
    29  H    4.181312   2.794613   2.163967   1.098676   2.219878
    30  H    5.517369   4.052273   3.592079   2.249461   1.096163
    31  H    4.297668   3.008199   2.884009   2.265001   1.093345
    32  H    6.241474   5.306147   4.551121   3.979065   2.904608
    33  H    6.422639   5.621248   4.449773   3.986682   3.557224
    34  H    5.886999   4.696008   3.420514   2.236555   2.758832
    35  H    4.919176   4.086158   2.583964   2.245014   3.137381
                   11         12         13         14         15
    11  C    0.000000
    12  C    1.333496   0.000000
    13  C    1.519861   2.631293   0.000000
    14  H   12.046196  12.552998  12.061226   0.000000
    15  H   11.364311  11.950516  11.449602   1.860418   0.000000
    16  H    9.963242  10.463933   9.895484   2.425767   3.071540
    17  H    9.015311   9.769646   8.932789   3.810633   2.759893
    18  H    8.663842   9.216204   8.866149   3.810723   2.760155
    19  H    7.428190   7.890698   7.486593   4.731193   4.580878
    20  H    7.833759   8.527896   7.565404   4.730799   4.580753
    21  H    6.701007   7.591744   6.535163   6.121845   5.177560
    22  H    6.221888   6.867801   6.443775   6.121489   5.177436
    23  H    5.008930   5.545124   5.022960   7.170475   6.802606
    24  H    5.588808   6.415764   5.135551   7.174933   6.806792
    25  H    4.561530   5.664534   4.228043   8.548662   7.658473
    26  H    3.852676   4.677781   4.114187   8.523543   7.630835
    27  H    2.766449   3.441605   2.662445   9.576980   9.113315
    28  H    3.669773   4.680886   2.814947   9.624602   9.154712
    29  H    2.981890   4.309233   2.243023  11.067261  10.229809
    30  H    2.215097   3.216773   2.750197  12.205394  11.218705
    31  H    2.236455   2.981425   3.142406  10.750957   9.817959
    32  H    2.097479   1.084614   3.569008  12.595707  11.924936
    33  H    2.105937   1.083448   2.956898  13.035455  12.565234
    34  H    2.233248   3.257256   1.093732  12.977611  12.318206
    35  H    2.243769   3.020480   1.095533  11.917351  11.470232
                   16         17         18         19         20
    16  H    0.000000
    17  H    2.946340   0.000000
    18  H    2.946149   1.774184   0.000000
    19  H    2.586514   3.063641   2.500632   0.000000
    20  H    2.586152   2.501149   3.063890   1.765432   0.000000
    21  H    4.544032   2.490060   3.055753   3.065183   2.505504
    22  H    4.543206   3.054810   2.490055   2.504017   3.064327
    23  H    4.975890   4.660259   4.311933   2.482204   3.045083
    24  H    4.980640   4.315544   4.664774   3.050133   2.486756
    25  H    6.720928   4.996369   5.300874   4.679114   4.333576
    26  H    6.699357   5.273754   4.969164   4.314550   4.661084
    27  H    7.367960   6.772237   6.533506   4.905491   5.218030
    28  H    7.417445   6.575080   6.804484   5.256741   4.958062
    29  H    9.104613   7.578502   7.784731   6.881831   6.649397
    30  H   10.366613   8.804797   8.584181   7.938025   8.175560
    31  H    8.930708   7.564113   7.107106   6.441113   6.940313
    32  H   10.616495   9.884390   9.168403   8.030867   8.836066
    33  H   10.861562  10.402958   9.863723   8.322752   8.952524
    34  H   10.832785   9.735704   9.771089   8.472943   8.432737
    35  H    9.654007   8.983636   8.949015   7.306888   7.349320
                   21         22         23         24         25
    21  H    0.000000
    22  H    1.766649   0.000000
    23  H    3.060365   2.499615   0.000000
    24  H    2.502282   3.062433   1.764602   0.000000
    25  H    2.506319   3.066112   3.069568   2.509696   0.000000
    26  H    3.042276   2.479109   2.507199   3.063372   1.763150
    27  H    4.630741   4.274919   2.423458   3.002955   3.058346
    28  H    4.308368   4.648928   3.029123   2.471369   2.492295
    29  H    5.089228   5.390003   4.698474   4.347164   2.584671
    30  H    6.422656   6.117929   5.747325   6.067359   4.158268
    31  H    5.333407   4.665481   4.357918   5.063415   3.468846
    32  H    7.807520   6.882559   5.835924   6.898588   6.041540
    33  H    8.264322   7.576981   5.970122   6.816970   6.372433
    34  H    7.288542   7.335223   6.033929   5.973121   4.867114
    35  H    6.679036   6.632106   4.852690   4.912407   4.555512
                   26         27         28         29         30
    26  H    0.000000
    27  H    2.509785   0.000000
    28  H    3.060321   1.761124   0.000000
    29  H    3.156777   3.080512   2.460016   0.000000
    30  H    3.693745   3.984887   4.386280   2.464863   0.000000
    31  H    2.337353   3.013700   3.933000   2.910778   1.777496
    32  H    4.812143   4.027534   5.421408   4.927793   3.412686
    33  H    5.479793   3.821083   5.008551   4.961578   4.166527
    34  H    4.964657   3.721455   3.565729   2.483452   2.904665
    35  H    4.513986   2.507443   2.575191   2.935891   3.816585
                   31         32         33         34         35
    31  H    0.000000
    32  H    2.946390   0.000000
    33  H    4.003912   1.869377   0.000000
    34  H    3.825350   4.175801   3.507940   0.000000
    35  H    3.937940   4.048929   3.006513   1.778636   0.000000
 Stoichiometry    C13H22
 Framework group  C1[X(C13H22)]
 Deg. of freedom    99
 Full point group                 C1      NOp   1
 Largest Abelian subgroup         C1      NOp   1
 Largest concise Abelian subgroup C1      NOp   1
                         Standard orientation:                         
 ---------------------------------------------------------------------
 Center     Atomic      Atomic             Coordinates (Angstroms)
 Number     Number       Type             X           Y           Z
 ---------------------------------------------------------------------
      1          6           0       -6.748836    0.468557    0.158819
      2          6           0       -5.535227    0.349469   -0.397462
      3          6           0       -4.307159    0.094159    0.418888
      4          6           0       -3.067838    0.002617   -0.462127
      5          6           0       -1.835574   -0.257899    0.391077
      6          6           0       -0.601996   -0.349239   -0.487839
      7          6           0        0.631930   -0.605128    0.363886
      8          6           0        1.849510   -0.668611   -0.534593
      9          6           0        3.124598   -0.913724    0.272649
     10          6           0        3.662894    0.183020    1.244668
     11          6           0        4.413392    0.662670    0.021434
     12          6           0        4.870863    1.860925   -0.343418
     13          6           0        4.359780   -0.702686   -0.644079
     14          1           0       -7.623444    0.653447   -0.453251
     15          1           0       -6.882815    0.382902    1.231810
     16          1           0       -5.434168    0.440569   -1.476041
     17          1           0       -4.423807   -0.843743    0.975619
     18          1           0       -4.173732    0.904430    1.146158
     19          1           0       -2.935512    0.934931   -1.026178
     20          1           0       -3.184728   -0.804486   -1.196681
     21          1           0       -1.958220   -1.191290    0.953577
     22          1           0       -1.709211    0.549524    1.122716
     23          1           0       -0.478400    0.583879   -1.052600
     24          1           0       -0.722994   -1.155432   -1.222278
     25          1           0        0.523143   -1.542640    0.921501
     26          1           0        0.744650    0.197241    1.101630
     27          1           0        1.922681    0.261017   -1.113589
     28          1           0        1.726280   -1.482958   -1.260340
     29          1           0        3.077282   -1.900907    0.752565
     30          1           0        4.290271   -0.198411    2.058597
     31          1           0        2.913930    0.856892    1.669349
     32          1           0        4.779306    2.704474    0.332177
     33          1           0        5.311762    2.013639   -1.321245
     34          1           0        5.194029   -1.378917   -0.436740
     35          1           0        4.145677   -0.728954   -1.718166
 ---------------------------------------------------------------------
 Rotational constants (GHZ):           2.7568060           0.1818839           0.1795497
 Standard basis: 6-31G(2df,p) (6D, 7F)
 There are   513 symmetry adapted cartesian basis functions of A   symmetry.
 There are   474 symmetry adapted basis functions of A   symmetry.
   474 basis functions,   726 primitive gaussians,   513 cartesian basis functions
    50 alpha electrons       50 beta electrons
       nuclear repulsion energy       736.2893931224 Hartrees.
 NAtoms=   35 NActive=   35 NUniq=   35 SFac= 1.00D+00 NAtFMM=   60 NAOKFM=F Big=F
 Integral buffers will be    131072 words long.
 Raffenetti 2 integral format.
 Two-electron integral symmetry is turned on.
 One-electron integrals computed using PRISM.
 PrsmSu:  requested number of processors reduced to:  12 ShMem   1 Linda.
 NBasis=   474 RedAO= T EigKep=  4.45D-04  NBF=   474
 NBsUse=   474 1.00D-06 EigRej= -1.00D+00 NBFU=   474
 ExpMin= 1.61D-01 ExpMax= 3.05D+03 ExpMxC= 4.57D+02 IAcc=3 IRadAn=         5 AccDes= 0.00D+00
 Harris functional with IExCor=  402 and IRadAn=       5 diagonalized for initial guess.
 HarFok:  IExCor=  402 AccDes= 0.00D+00 IRadAn=         5 IDoV= 1 UseB2=F ITyADJ=14
 ICtDFT=  3500011 ScaDFX=  1.000000  1.000000  1.000000  1.000000
 FoFCou: FMM=F IPFlag=           0 FMFlag=      100000 FMFlg1=           0
         NFxFlg=           0 DoJE=T BraDBF=F KetDBF=T FulRan=T
         wScrn=  0.000000 ICntrl=       500 IOpCl=  0 I1Cent=   200000004 NGrid=           0
         NMat0=    1 NMatS0=      1 NMatT0=    0 NMatD0=    1 NMtDS0=    0 NMtDT0=    0
 Petite list used in FoFCou.
 Requested convergence on RMS density matrix=1.00D-08 within 128 cycles.
 Requested convergence on MAX density matrix=1.00D-06.
 Requested convergence on             energy=1.00D-06.
 No special actions if energy rises.
 Integral accuracy reduced to 1.0D-05 until final iterations.
 Initial convergence to 1.0D-05 achieved.  Increase integral accuracy.
 SCF Done:  E(RB3LYP) =  -508.594080727     A.U. after   12 cycles
            NFock= 12  Conv=0.67D-08     -V/T= 2.0086

 **********************************************************************

            Population analysis using the SCF density.

 **********************************************************************

 Orbital symmetries:
       Occupied  (A) (A) (A) (A) (A) (A) (A) (A) (A) (A) (A) (A)
                 (A) (A) (A) (A) (A) (A) (A) (A) (A) (A) (A) (A)
                 (A) (A) (A) (A) (A) (A) (A) (A) (A) (A) (A) (A)
                 (A) (A) (A) (A) (A) (A) (A) (A) (A) (A) (A) (A)
                 (A) (A)
       Virtual   (A) (A) (A) (A) (A) (A) (A) (A) (A) (A) (A) (A)
                 (A) (A) (A) (A) (A) (A) (A) (A) (A) (A) (A) (A)
                 (A) (A) (A) (A) (A) (A) (A) (A) (A) (A) (A) (A)
                 (A) (A) (A) (A) (A) (A) (A) (A) (A) (A) (A) (A)
                 (A) (A) (A) (A) (A) (A) (A) (A) (A) (A) (A) (A)
                 (A) (A) (A) (A) (A) (A) (A) (A) (A) (A) (A) (A)
                 (A) (A) (A) (A) (A) (A) (A) (A) (A) (A) (A) (A)
                 (A) (A) (A) (A) (A) (A) (A) (A) (A) (A) (A) (A)
                 (A) (A) (A) (A) (A) (A) (A) (A) (A) (A) (A) (A)
                 (A) (A) (A) (A) (A) (A) (A) (A) (A) (A) (A) (A)
                 (A) (A) (A) (A) (A) (A) (A) (A) (A) (A) (A) (A)
                 (A) (A) (A) (A) (A) (A) (A) (A) (A) (A) (A) (A)
                 (A) (A) (A) (A) (A) (A) (A) (A) (A) (A) (A) (A)
                 (A) (A) (A) (A) (A) (A) (A) (A) (A) (A) (A) (A)
                 (A) (A) (A) (A) (A) (A) (A) (A) (A) (A) (A) (A)
                 (A) (A) (A) (A) (A) (A) (A) (A) (A) (A) (A) (A)
                 (A) (A) (A) (A) (A) (A) (A) (A) (A) (A) (A) (A)
                 (A) (A) (A) (A) (A) (A) (A) (A) (A) (A) (A) (A)
                 (A) (A) (A) (A) (A) (A) (A) (A) (A) (A) (A) (A)
                 (A) (A) (A) (A) (A) (A) (A) (A) (A) (A) (A) (A)
                 (A) (A) (A) (A) (A) (A) (A) (A) (A) (A) (A) (A)
                 (A) (A) (A) (A) (A) (A) (A) (A) (A) (A) (A) (A)
                 (A) (A) (A) (A) (A) (A) (A) (A) (A) (A) (A) (A)
                 (A) (A) (A) (A) (A) (A) (A) (A) (A) (A) (A) (A)
                 (A) (A) (A) (A) (A) (A) (A) (A) (A) (A) (A) (A)
                 (A) (A) (A) (A) (A) (A) (A) (A) (A) (A) (A) (A)
                 (A) (A) (A) (A) (A) (A) (A) (A) (A) (A) (A) (A)
                 (A) (A) (A) (A) (A) (A) (A) (A) (A) (A) (A) (A)
                 (A) (A) (A) (A) (A) (A) (A) (A) (A) (A) (A) (A)
                 (A) (A) (A) (A) (A) (A) (A) (A) (A) (A) (A) (A)
                 (A) (A) (A) (A) (A) (A) (A) (A) (A) (A) (A) (A)
                 (A) (A) (A) (A) (A) (A) (A) (A) (A) (A) (A) (A)
                 (A) (A) (A) (A) (A) (A) (A) (A) (A) (A) (A) (A)
                 (A) (A) (A) (A) (A) (A) (A) (A) (A) (A) (A) (A)
                 (A) (A) (A) (A) (A) (A) (A) (A) (A) (A) (A) (A)
                 (A) (A) (A) (A)
 The electronic state is 1-A.
 Alpha  occ. eigenvalues --  -10.18705 -10.18421 -10.17860 -10.17837 -10.17582
 Alpha  occ. eigenvalues --  -10.17517 -10.17351 -10.17282 -10.17052 -10.17019
 Alpha  occ. eigenvalues --  -10.16958 -10.16670 -10.16317  -0.85692  -0.81451
 Alpha  occ. eigenvalues --   -0.78918  -0.75309  -0.71977  -0.69206  -0.66471
 Alpha  occ. eigenvalues --   -0.63885  -0.58684  -0.57805  -0.55883  -0.54625
 Alpha  occ. eigenvalues --   -0.51751  -0.48590  -0.46711  -0.45952  -0.44776
 Alpha  occ. eigenvalues --   -0.44288  -0.43359  -0.42666  -0.40675  -0.39620
 Alpha  occ. eigenvalues --   -0.39247  -0.37800  -0.36048  -0.35447  -0.34627
 Alpha  occ. eigenvalues --   -0.33392  -0.33196  -0.33062  -0.32382  -0.31984
 Alpha  occ. eigenvalues --   -0.31183  -0.29762  -0.28063  -0.24415  -0.23851
 Alpha virt. eigenvalues --    0.01873   0.01943   0.08617   0.09942   0.10857
 Alpha virt. eigenvalues --    0.11433   0.12060   0.12409   0.12882   0.13458
 Alpha virt. eigenvalues --    0.14333   0.14733   0.15600   0.16401   0.16936
 Alpha virt. eigenvalues --    0.17462   0.17990   0.18677   0.19575   0.20020
 Alpha virt. eigenvalues --    0.20057   0.20428   0.21141   0.21543   0.22097
 Alpha virt. eigenvalues --    0.23153   0.23848   0.24696   0.25238   0.27043
 Alpha virt. eigenvalues --    0.28666   0.29648   0.30946   0.32119   0.33080
 Alpha virt. eigenvalues --    0.33451   0.34591   0.42026   0.43269   0.46183
 Alpha virt. eigenvalues --    0.46387   0.48010   0.48766   0.49275   0.51169
 Alpha virt. eigenvalues --    0.52211   0.52723   0.52897   0.54251   0.54552
 Alpha virt. eigenvalues --    0.55377   0.56140   0.56949   0.57537   0.57810
 Alpha virt. eigenvalues --    0.58188   0.60325   0.60483   0.61860   0.62549
 Alpha virt. eigenvalues --    0.62911   0.64026   0.64284   0.65633   0.66482
 Alpha virt. eigenvalues --    0.66767   0.68136   0.69164   0.70797   0.71269
 Alpha virt. eigenvalues --    0.72322   0.72502   0.73395   0.73743   0.74184
 Alpha virt. eigenvalues --    0.75336   0.75616   0.76735   0.77332   0.78027
 Alpha virt. eigenvalues --    0.78732   0.78998   0.79144   0.80284   0.80512
 Alpha virt. eigenvalues --    0.80926   0.81435   0.81654   0.82197   0.82792
 Alpha virt. eigenvalues --    0.83931   0.84520   0.84871   0.86023   0.87469
 Alpha virt. eigenvalues --    0.89004   0.89227   0.89495   0.90996   0.91068
 Alpha virt. eigenvalues --    0.91455   0.95087   0.98558   1.01393   1.02530
 Alpha virt. eigenvalues --    1.03200   1.05365   1.07320   1.10157   1.10937
 Alpha virt. eigenvalues --    1.12119   1.13871   1.18711   1.19522   1.20309
 Alpha virt. eigenvalues --    1.20982   1.21865   1.23813   1.24666   1.25216
 Alpha virt. eigenvalues --    1.27071   1.30237   1.31661   1.32404   1.33626
 Alpha virt. eigenvalues --    1.34510   1.36355   1.37022   1.37810   1.39726
 Alpha virt. eigenvalues --    1.39995   1.41650   1.41950   1.43789   1.45216
 Alpha virt. eigenvalues --    1.47405   1.48730   1.50476   1.51149   1.52196
 Alpha virt. eigenvalues --    1.54318   1.55065   1.57545   1.59198   1.61869
 Alpha virt. eigenvalues --    1.62661   1.64128   1.66594   1.67165   1.67585
 Alpha virt. eigenvalues --    1.68081   1.69510   1.70638   1.71587   1.73734
 Alpha virt. eigenvalues --    1.77189   1.77967   1.78455   1.80308   1.81797
 Alpha virt. eigenvalues --    1.82685   1.83681   1.84660   1.86247   1.87444
 Alpha virt. eigenvalues --    1.88557   1.89476   1.91396   1.92631   1.93698
 Alpha virt. eigenvalues --    1.94351   1.96356   1.97543   2.00890   2.02909
 Alpha virt. eigenvalues --    2.07287   2.11287   2.13306   2.15070   2.15687
 Alpha virt. eigenvalues --    2.17675   2.19364   2.20566   2.20907   2.21984
 Alpha virt. eigenvalues --    2.22277   2.22990   2.24807   2.26821   2.29352
 Alpha virt. eigenvalues --    2.31667   2.33243   2.35395   2.36131   2.37886
 Alpha virt. eigenvalues --    2.39588   2.42806   2.43141   2.47155   2.52143
 Alpha virt. eigenvalues --    2.53902   2.55735   2.57254   2.58328   2.62366
 Alpha virt. eigenvalues --    2.62975   2.65675   2.66278   2.68620   2.70625
 Alpha virt. eigenvalues --    2.72315   2.73331   2.74217   2.74896   2.75575
 Alpha virt. eigenvalues --    2.76710   2.77142   2.78701   2.79338   2.79924
 Alpha virt. eigenvalues --    2.80597   2.81619   2.82208   2.83067   2.83730
 Alpha virt. eigenvalues --    2.84102   2.84941   2.85687   2.87507   2.89091
 Alpha virt. eigenvalues --    2.90276   2.90968   2.92113   2.92912   2.93681
 Alpha virt. eigenvalues --    2.93967   2.95291   2.95865   2.97154   2.97757
 Alpha virt. eigenvalues --    2.98085   2.99745   3.00394   3.02234   3.03249
 Alpha virt. eigenvalues --    3.03433   3.04333   3.04791   3.10341   3.12897
 Alpha virt. eigenvalues --    3.13459   3.13698   3.16405   3.17361   3.18225
 Alpha virt. eigenvalues --    3.19597   3.22503   3.22877   3.23480   3.24390
 Alpha virt. eigenvalues --    3.24559   3.26574   3.27776   3.28587   3.30023
 Alpha virt. eigenvalues --    3.30997   3.31728   3.34734   3.35430   3.36220
 Alpha virt. eigenvalues --    3.36731   3.38906   3.41149   3.42452   3.45409
 Alpha virt. eigenvalues --    3.45819   3.45836   3.46587   3.47363   3.52532
 Alpha virt. eigenvalues --    3.53283   3.54901   3.55611   3.56905   3.57470
 Alpha virt. eigenvalues --    3.58047   3.59069   3.60872   3.62032   3.63968
 Alpha virt. eigenvalues --    3.64762   3.65909   3.67875   3.70430   3.71241
 Alpha virt. eigenvalues --    3.74245   3.74969   3.75685   3.78028   3.79240
 Alpha virt. eigenvalues --    3.80108   3.81189   3.82197   3.82517   3.84317
 Alpha virt. eigenvalues --    3.86173   3.87721   3.89040   3.91332   3.96174
 Alpha virt. eigenvalues --    3.99050   4.01545   4.04105   4.07619   4.12402
 Alpha virt. eigenvalues --    4.12857   4.14804   4.16788   4.19117   4.21669
 Alpha virt. eigenvalues --    4.21917   4.25427   4.27241   4.30795   4.33225
 Alpha virt. eigenvalues --    4.35575   4.39842   4.41666   4.43198   4.43605
 Alpha virt. eigenvalues --    4.45765   4.46626   4.47047   4.49606   4.50227
 Alpha virt. eigenvalues --    4.51743   4.54071   4.54929   4.55473   4.56764
 Alpha virt. eigenvalues --    4.56993   4.57048   4.59191   4.59568   4.60324
 Alpha virt. eigenvalues --    4.60632   4.61498   4.62038   4.63651   4.64522
 Alpha virt. eigenvalues --    4.65359   4.66002   4.67011   4.68197   4.69075
 Alpha virt. eigenvalues --    4.69659   4.71372   4.71896   4.73059   4.73512
 Alpha virt. eigenvalues --    4.75436   4.76847   4.78200   4.79122   4.79334
 Alpha virt. eigenvalues --    4.80391   4.80633   4.82620   4.83633   4.85456
 Alpha virt. eigenvalues --    4.86389   4.87781   4.88783   4.90205   4.90387
 Alpha virt. eigenvalues --    4.93315   4.94573   4.95107   4.95961   4.96784
 Alpha virt. eigenvalues --    4.98283   5.00844   5.02257   5.04573   5.05670
 Alpha virt. eigenvalues --    5.11216   5.15055   5.22280   5.23040   5.24547
 Alpha virt. eigenvalues --    5.25912   5.30013   5.31163   5.34456   5.35145
 Alpha virt. eigenvalues --    5.40577   5.40972   5.46322   5.49548   5.53295
 Alpha virt. eigenvalues --    5.54538   5.58323   5.62986   5.67483   5.69115
 Alpha virt. eigenvalues --    5.74442   5.80957   5.95141   6.03230   6.35221
 Alpha virt. eigenvalues --    6.65315  10.25830  10.39288  11.18396  11.30851
 Alpha virt. eigenvalues --   11.42633  11.68329  11.94974  12.08608  12.11337
 Alpha virt. eigenvalues --   12.26918  12.40849  12.59710  12.76644
          Condensed to atoms (all electrons):
               1          2          3          4          5          6
     1  C    5.022161   0.667442  -0.017329   0.001275  -0.000165   0.000002
     2  C    0.667442   4.615406   0.415157  -0.026706   0.002036  -0.000139
     3  C   -0.017329   0.415157   4.864336   0.421088  -0.036910   0.002110
     4  C    0.001275  -0.026706   0.421088   4.803525   0.422444  -0.034820
     5  C   -0.000165   0.002036  -0.036910   0.422444   4.817568   0.425275
     6  C    0.000002  -0.000139   0.002110  -0.034820   0.425275   4.804013
     7  C   -0.000000   0.000001  -0.000162   0.002069  -0.036918   0.420938
     8  C    0.000000  -0.000000   0.000001  -0.000154   0.002050  -0.035805
     9  C   -0.000000   0.000000  -0.000000   0.000001  -0.000161   0.001965
    10  C    0.000000   0.000000   0.000000   0.000000   0.000002   0.000284
    11  C    0.000000  -0.000000   0.000000  -0.000000  -0.000000   0.000013
    12  C    0.000000  -0.000000   0.000000  -0.000000  -0.000000   0.000005
    13  C    0.000000  -0.000000   0.000000  -0.000000   0.000001  -0.000168
    14  H    0.358264  -0.007767   0.004761  -0.000167   0.000002  -0.000000
    15  H    0.359679  -0.014570  -0.017013   0.000361  -0.000004   0.000000
    16  H   -0.050674   0.381952  -0.069234  -0.003270   0.000221   0.000009
    17  H   -0.006621  -0.026161   0.358997  -0.031398  -0.003770   0.000160
    18  H   -0.006612  -0.026148   0.358988  -0.031312  -0.003774   0.000162
    19  H    0.000289  -0.000808  -0.034666   0.365117  -0.032053  -0.002989
    20  H    0.000291  -0.000806  -0.034749   0.365174  -0.032308  -0.002908
    21  H    0.000005   0.000221  -0.002942  -0.031639   0.362777  -0.032164
    22  H    0.000005   0.000221  -0.002935  -0.031499   0.362596  -0.031801
    23  H    0.000000   0.000009   0.000163  -0.003090  -0.032373   0.363593
    24  H    0.000000   0.000008   0.000163  -0.002974  -0.032446   0.363895
    25  H    0.000000   0.000000   0.000008   0.000164  -0.002767  -0.030954
    26  H    0.000000   0.000000   0.000009   0.000185  -0.002884  -0.030822
    27  H    0.000000   0.000000   0.000000   0.000010   0.000193  -0.003497
    28  H    0.000000   0.000000   0.000000   0.000011   0.000155  -0.003010
    29  H    0.000000   0.000000   0.000000   0.000000   0.000005   0.000008
    30  H   -0.000000  -0.000000  -0.000000  -0.000000  -0.000000  -0.000000
    31  H    0.000000  -0.000000   0.000000  -0.000000   0.000002  -0.000137
    32  H   -0.000000   0.000000  -0.000000   0.000000  -0.000000   0.000000
    33  H   -0.000000   0.000000  -0.000000  -0.000000  -0.000000  -0.000000
    34  H   -0.000000   0.000000  -0.000000   0.000000  -0.000000   0.000002
    35  H    0.000000   0.000000   0.000000   0.000000   0.000000  -0.000007
               7          8          9         10         11         12
     1  C   -0.000000   0.000000  -0.000000   0.000000   0.000000   0.000000
     2  C    0.000001  -0.000000   0.000000   0.000000  -0.000000  -0.000000
     3  C   -0.000162   0.000001  -0.000000   0.000000   0.000000   0.000000
     4  C    0.002069  -0.000154   0.000001   0.000000  -0.000000  -0.000000
     5  C   -0.036918   0.002050  -0.000161   0.000002  -0.000000  -0.000000
     6  C    0.420938  -0.035805   0.001965   0.000284   0.000013   0.000005
     7  C    4.820288   0.422545  -0.033059  -0.003939  -0.000616  -0.000092
     8  C    0.422545   4.860585   0.408049  -0.027509   0.002977   0.002719
     9  C   -0.033059   0.408049   4.736040   0.371722  -0.062146   0.002545
    10  C   -0.003939  -0.027509   0.371722   5.118444   0.413154  -0.066182
    11  C   -0.000616   0.002977  -0.062146   0.413154   4.234608   0.619205
    12  C   -0.000092   0.002719   0.002545  -0.066182   0.619205   5.318280
    13  C    0.002798  -0.027180   0.349905  -0.146051   0.415396  -0.069329
    14  H    0.000000  -0.000000   0.000000   0.000000   0.000000   0.000000
    15  H    0.000000  -0.000000   0.000000  -0.000000  -0.000000  -0.000000
    16  H    0.000000   0.000000   0.000000   0.000000  -0.000000  -0.000000
    17  H    0.000008   0.000000   0.000000  -0.000000  -0.000000   0.000000
    18  H    0.000009   0.000000   0.000000   0.000000  -0.000000  -0.000000
    19  H    0.000180   0.000009   0.000000   0.000000   0.000000   0.000000
    20  H    0.000173   0.000010   0.000000  -0.000000  -0.000000  -0.000000
    21  H   -0.002791   0.000181   0.000009   0.000000  -0.000000   0.000000
    22  H   -0.003320   0.000198   0.000011  -0.000004   0.000000  -0.000000
    23  H   -0.031876  -0.003264   0.000307   0.000000  -0.000012  -0.000002
    24  H   -0.032963  -0.002881   0.000152  -0.000000  -0.000000   0.000000
    25  H    0.362513  -0.033202  -0.001108  -0.000467  -0.000011  -0.000002
    26  H    0.364353  -0.032443  -0.003792   0.001944   0.000043  -0.000016
    27  H   -0.033550   0.353179  -0.029273  -0.005209   0.006351   0.001021
    28  H   -0.032582   0.358702  -0.024088   0.004187   0.000155   0.000042
    29  H   -0.003433  -0.051392   0.344662  -0.040543  -0.000131  -0.000903
    30  H   -0.000040   0.004538  -0.017906   0.344963  -0.015172   0.002068
    31  H    0.000574  -0.008022  -0.022931   0.350387  -0.017267  -0.006134
    32  H   -0.000003  -0.000064  -0.000016  -0.013772   0.009298   0.335581
    33  H    0.000001  -0.000065  -0.000101   0.007328   0.006840   0.337953
    34  H   -0.000198   0.004587  -0.021176   0.002166  -0.014186   0.001536
    35  H    0.000450  -0.009578  -0.021967   0.009966  -0.017898  -0.005288
              13         14         15         16         17         18
     1  C    0.000000   0.358264   0.359679  -0.050674  -0.006621  -0.006612
     2  C   -0.000000  -0.007767  -0.014570   0.381952  -0.026161  -0.026148
     3  C    0.000000   0.004761  -0.017013  -0.069234   0.358997   0.358988
     4  C   -0.000000  -0.000167   0.000361  -0.003270  -0.031398  -0.031312
     5  C    0.000001   0.000002  -0.000004   0.000221  -0.003770  -0.003774
     6  C   -0.000168  -0.000000   0.000000   0.000009   0.000160   0.000162
     7  C    0.002798   0.000000   0.000000   0.000000   0.000008   0.000009
     8  C   -0.027180  -0.000000  -0.000000   0.000000   0.000000   0.000000
     9  C    0.349905   0.000000   0.000000   0.000000   0.000000   0.000000
    10  C   -0.146051   0.000000  -0.000000   0.000000  -0.000000   0.000000
    11  C    0.415396   0.000000  -0.000000  -0.000000  -0.000000  -0.000000
    12  C   -0.069329   0.000000  -0.000000  -0.000000   0.000000  -0.000000
    13  C    5.142336  -0.000000   0.000000   0.000000   0.000000   0.000000
    14  H   -0.000000   0.595526  -0.046235  -0.008491  -0.000115  -0.000115
    15  H    0.000000  -0.046235   0.607989   0.007023   0.002313   0.002309
    16  H    0.000000  -0.008491   0.007023   0.639611   0.004440   0.004435
    17  H    0.000000  -0.000115   0.002313   0.004440   0.626770  -0.038216
    18  H    0.000000  -0.000115   0.002309   0.004435  -0.038216   0.626522
    19  H    0.000000  -0.000000   0.000015   0.002973   0.006226  -0.005828
    20  H    0.000000  -0.000001   0.000015   0.002974  -0.005819   0.006227
    21  H    0.000000   0.000000   0.000000   0.000015   0.005393  -0.000607
    22  H    0.000000   0.000000   0.000000   0.000015  -0.000609   0.005391
    23  H    0.000007   0.000000  -0.000000  -0.000000   0.000008   0.000004
    24  H    0.000004   0.000000  -0.000000  -0.000000   0.000004   0.000008
    25  H    0.000081   0.000000   0.000000  -0.000000  -0.000003   0.000001
    26  H    0.000149   0.000000   0.000000  -0.000000   0.000001  -0.000003
    27  H   -0.003761  -0.000000   0.000000  -0.000000  -0.000000   0.000000
    28  H   -0.003745  -0.000000   0.000000  -0.000000   0.000000  -0.000000
    29  H   -0.030455  -0.000000   0.000000  -0.000000  -0.000000  -0.000000
    30  H    0.000480   0.000000  -0.000000   0.000000   0.000000  -0.000000
    31  H    0.010261  -0.000000   0.000000  -0.000000   0.000000   0.000000
    32  H    0.007230   0.000000  -0.000000   0.000000  -0.000000  -0.000000
    33  H   -0.012289   0.000000  -0.000000   0.000000  -0.000000  -0.000000
    34  H    0.344014   0.000000  -0.000000   0.000000  -0.000000  -0.000000
    35  H    0.351100  -0.000000   0.000000   0.000000   0.000000  -0.000000
              19         20         21         22         23         24
     1  C    0.000289   0.000291   0.000005   0.000005   0.000000   0.000000
     2  C   -0.000808  -0.000806   0.000221   0.000221   0.000009   0.000008
     3  C   -0.034666  -0.034749  -0.002942  -0.002935   0.000163   0.000163
     4  C    0.365117   0.365174  -0.031639  -0.031499  -0.003090  -0.002974
     5  C   -0.032053  -0.032308   0.362777   0.362596  -0.032373  -0.032446
     6  C   -0.002989  -0.002908  -0.032164  -0.031801   0.363593   0.363895
     7  C    0.000180   0.000173  -0.002791  -0.003320  -0.031876  -0.032963
     8  C    0.000009   0.000010   0.000181   0.000198  -0.003264  -0.002881
     9  C    0.000000   0.000000   0.000009   0.000011   0.000307   0.000152
    10  C    0.000000  -0.000000   0.000000  -0.000004   0.000000  -0.000000
    11  C    0.000000  -0.000000  -0.000000   0.000000  -0.000012  -0.000000
    12  C    0.000000  -0.000000   0.000000  -0.000000  -0.000002   0.000000
    13  C    0.000000   0.000000   0.000000   0.000000   0.000007   0.000004
    14  H   -0.000000  -0.000001   0.000000   0.000000   0.000000   0.000000
    15  H    0.000015   0.000015   0.000000   0.000000  -0.000000  -0.000000
    16  H    0.002973   0.002974   0.000015   0.000015  -0.000000  -0.000000
    17  H    0.006226  -0.005819   0.005393  -0.000609   0.000008   0.000004
    18  H   -0.005828   0.006227  -0.000607   0.005391   0.000004   0.000008
    19  H    0.645743  -0.043801   0.006251  -0.005677   0.005155  -0.000458
    20  H   -0.043801   0.646415  -0.005664   0.006257  -0.000464   0.005103
    21  H    0.006251  -0.005664   0.648852  -0.043112   0.006310  -0.005649
    22  H   -0.005677   0.006257  -0.043112   0.648197  -0.005661   0.006316
    23  H    0.005155  -0.000464   0.006310  -0.005661   0.647287  -0.043445
    24  H   -0.000458   0.005103  -0.005649   0.006316  -0.043445   0.650562
    25  H    0.000007   0.000007   0.004900  -0.000479   0.006174  -0.005749
    26  H    0.000006   0.000008  -0.000517   0.005343  -0.005441   0.006157
    27  H   -0.000004   0.000001   0.000008   0.000006   0.005444  -0.000478
    28  H    0.000001  -0.000003   0.000006   0.000008  -0.000480   0.005300
    29  H   -0.000000   0.000000  -0.000002   0.000001   0.000007   0.000003
    30  H    0.000000   0.000000   0.000000   0.000000  -0.000000   0.000000
    31  H    0.000000  -0.000000   0.000000  -0.000002   0.000010   0.000002
    32  H   -0.000000  -0.000000  -0.000000  -0.000000  -0.000000   0.000000
    33  H    0.000000   0.000000  -0.000000   0.000000  -0.000000  -0.000000
    34  H    0.000000   0.000000   0.000000   0.000000   0.000000   0.000000
    35  H    0.000000   0.000000  -0.000000   0.000000   0.000001   0.000002
              25         26         27         28         29         30
     1  C    0.000000   0.000000   0.000000   0.000000   0.000000  -0.000000
     2  C    0.000000   0.000000   0.000000   0.000000   0.000000  -0.000000
     3  C    0.000008   0.000009   0.000000   0.000000   0.000000  -0.000000
     4  C    0.000164   0.000185   0.000010   0.000011   0.000000  -0.000000
     5  C   -0.002767  -0.002884   0.000193   0.000155   0.000005  -0.000000
     6  C   -0.030954  -0.030822  -0.003497  -0.003010   0.000008  -0.000000
     7  C    0.362513   0.364353  -0.033550  -0.032582  -0.003433  -0.000040
     8  C   -0.033202  -0.032443   0.353179   0.358702  -0.051392   0.004538
     9  C   -0.001108  -0.003792  -0.029273  -0.024088   0.344662  -0.017906
    10  C   -0.000467   0.001944  -0.005209   0.004187  -0.040543   0.344963
    11  C   -0.000011   0.000043   0.006351   0.000155  -0.000131  -0.015172
    12  C   -0.000002  -0.000016   0.001021   0.000042  -0.000903   0.002068
    13  C    0.000081   0.000149  -0.003761  -0.003745  -0.030455   0.000480
    14  H    0.000000   0.000000  -0.000000  -0.000000  -0.000000   0.000000
    15  H    0.000000   0.000000   0.000000   0.000000   0.000000  -0.000000
    16  H   -0.000000  -0.000000  -0.000000  -0.000000  -0.000000   0.000000
    17  H   -0.000003   0.000001  -0.000000   0.000000  -0.000000   0.000000
    18  H    0.000001  -0.000003   0.000000  -0.000000  -0.000000  -0.000000
    19  H    0.000007   0.000006  -0.000004   0.000001  -0.000000   0.000000
    20  H    0.000007   0.000008   0.000001  -0.000003   0.000000   0.000000
    21  H    0.004900  -0.000517   0.000008   0.000006  -0.000002   0.000000
    22  H   -0.000479   0.005343   0.000006   0.000008   0.000001   0.000000
    23  H    0.006174  -0.005441   0.005444  -0.000480   0.000007  -0.000000
    24  H   -0.005749   0.006157  -0.000478   0.005300   0.000003   0.000000
    25  H    0.649513  -0.043538   0.006287  -0.006268   0.005241  -0.000055
    26  H   -0.043538   0.641791  -0.005400   0.006391  -0.000412  -0.000176
    27  H    0.006287  -0.005400   0.643245  -0.042607   0.007391   0.000066
    28  H   -0.006268   0.006391  -0.042607   0.644904  -0.005822  -0.000105
    29  H    0.005241  -0.000412   0.007391  -0.005822   0.728654  -0.007034
    30  H   -0.000055  -0.000176   0.000066  -0.000105  -0.007034   0.618528
    31  H    0.000164   0.004675   0.000640  -0.000041   0.003994  -0.042495
    32  H    0.000000   0.000002   0.000058  -0.000000   0.000019   0.000244
    33  H    0.000000  -0.000001   0.000091  -0.000004   0.000017  -0.000136
    34  H    0.000003  -0.000002   0.000251   0.000104  -0.006630   0.002076
    35  H    0.000012   0.000013   0.001385   0.002898   0.003636  -0.000422
              31         32         33         34         35
     1  C    0.000000  -0.000000  -0.000000  -0.000000   0.000000
     2  C   -0.000000   0.000000   0.000000   0.000000   0.000000
     3  C    0.000000  -0.000000  -0.000000  -0.000000   0.000000
     4  C   -0.000000   0.000000  -0.000000   0.000000   0.000000
     5  C    0.000002  -0.000000  -0.000000  -0.000000   0.000000
     6  C   -0.000137   0.000000  -0.000000   0.000002  -0.000007
     7  C    0.000574  -0.000003   0.000001  -0.000198   0.000450
     8  C   -0.008022  -0.000064  -0.000065   0.004587  -0.009578
     9  C   -0.022931  -0.000016  -0.000101  -0.021176  -0.021967
    10  C    0.350387  -0.013772   0.007328   0.002166   0.009966
    11  C   -0.017267   0.009298   0.006840  -0.014186  -0.017898
    12  C   -0.006134   0.335581   0.337953   0.001536  -0.005288
    13  C    0.010261   0.007230  -0.012289   0.344014   0.351100
    14  H   -0.000000   0.000000   0.000000   0.000000  -0.000000
    15  H    0.000000  -0.000000  -0.000000  -0.000000   0.000000
    16  H   -0.000000   0.000000   0.000000   0.000000   0.000000
    17  H    0.000000  -0.000000  -0.000000  -0.000000   0.000000
    18  H    0.000000  -0.000000  -0.000000  -0.000000  -0.000000
    19  H    0.000000  -0.000000   0.000000   0.000000   0.000000
    20  H   -0.000000  -0.000000   0.000000   0.000000   0.000000
    21  H    0.000000  -0.000000  -0.000000   0.000000  -0.000000
    22  H   -0.000002  -0.000000   0.000000   0.000000   0.000000
    23  H    0.000010  -0.000000  -0.000000   0.000000   0.000001
    24  H    0.000002   0.000000  -0.000000   0.000000   0.000002
    25  H    0.000164   0.000000   0.000000   0.000003   0.000012
    26  H    0.004675   0.000002  -0.000001  -0.000002   0.000013
    27  H    0.000640   0.000058   0.000091   0.000251   0.001385
    28  H   -0.000041  -0.000000  -0.000004   0.000104   0.002898
    29  H    0.003994   0.000019   0.000017  -0.006630   0.003636
    30  H   -0.042495   0.000244  -0.000136   0.002076  -0.000422
    31  H    0.623120   0.002362  -0.000092  -0.000403  -0.000549
    32  H    0.002362   0.605550  -0.047225  -0.000111  -0.000107
    33  H   -0.000092  -0.047225   0.603462   0.000085   0.002232
    34  H   -0.000403  -0.000111   0.000085   0.627534  -0.043124
    35  H   -0.000549  -0.000107   0.002232  -0.043124   0.627735
 Mulliken charges:
               1
     1  C   -0.328013
     2  C    0.020652
     3  C   -0.209839
     4  C   -0.184396
     5  C   -0.178794
     6  C   -0.173213
     7  C   -0.181358
     8  C   -0.188772
     9  C    0.022356
    10  C   -0.320873
    11  C    0.419398
    12  C   -0.473007
    13  C   -0.330783
    14  H    0.104339
    15  H    0.098117
    16  H    0.087999
    17  H    0.108395
    18  H    0.108560
    19  H    0.094312
    20  H    0.093867
    21  H    0.090157
    22  H    0.090534
    23  H    0.091629
    24  H    0.089364
    25  H    0.089528
    26  H    0.094378
    27  H    0.098150
    28  H    0.095892
    29  H    0.053121
    30  H    0.110578
    31  H    0.101883
    32  H    0.100955
    33  H    0.101902
    34  H    0.103472
    35  H    0.099508
 Sum of Mulliken charges =  -0.00000
 Mulliken charges with hydrogens summed into heavy atoms:
               1
     1  C   -0.125557
     2  C    0.108651
     3  C    0.007116
     4  C    0.003784
     5  C    0.001896
     6  C    0.007781
     7  C    0.002548
     8  C    0.005270
     9  C    0.075477
    10  C   -0.108412
    11  C    0.419398
    12  C   -0.270150
    13  C   -0.127802
 Electronic spatial extent (au):  <R**2>=           6053.0463
 Charge=             -0.0000 electrons
 Dipole moment (field-independent basis, Debye):
    X=              0.1214    Y=             -0.5775    Z=              0.1468  Tot=              0.6082
 Quadrupole moment (field-independent basis, Debye-Ang):
   XX=            -91.3797   YY=            -83.0503   ZZ=            -81.0153
   XY=             -1.9699   XZ=              0.2789   YZ=              0.1840
 Traceless Quadrupole moment (field-independent basis, Debye-Ang):
   XX=             -6.2313   YY=              2.0981   ZZ=              4.1331
   XY=             -1.9699   XZ=              0.2789   YZ=              0.1840
 Octapole moment (field-independent basis, Debye-Ang**2):
  XXX=              3.5156  YYY=             -2.6573  ZZZ=             -0.3597  XYY=              7.3971
  XXY=            -12.8607  XXZ=             -0.1940  XZZ=             -1.5756  YZZ=              0.7676
  YYZ=              1.3498  XYZ=              0.9119
 Hexadecapole moment (field-independent basis, Debye-Ang**3):
 XXXX=          -8019.4559 YYYY=           -423.8782 ZZZZ=           -332.8255 XXXY=            -90.2385
 XXXZ=             -2.3640 YYYX=             15.5493 YYYZ=              3.9593 ZZZX=              0.3525
 ZZZY=             -0.2864 XXYY=          -1386.5645 XXZZ=          -1269.5905 YYZZ=           -123.4082
 XXYZ=            -19.7006 YYXZ=              2.2580 ZZXY=             -0.7911
 N-N= 7.362893931224D+02 E-N=-2.648548229113D+03  KE= 5.042618038006D+02
 PrsmSu:  requested number of processors reduced to:  13 ShMem   1 Linda.
 Calling FoFJK, ICntrl=      2127 FMM=F ISym2X=0 I1Cent= 0 IOpClX= 0 NMat=1 NMatS=1 NMatT=0.
 ***** Axes restored to original set *****
 -------------------------------------------------------------------
 Center     Atomic                   Forces (Hartrees/Bohr)
 Number     Number              X              Y              Z
 -------------------------------------------------------------------
      1        6           0.014558711   -0.005494403   -0.004466138
      2        6          -0.028068716    0.000848145    0.000671423
      3        6           0.006011593   -0.007754644   -0.006263766
      4        6          -0.005470380    0.008463824    0.006924881
      5        6           0.004059699   -0.010279048   -0.008124441
      6        6          -0.005804315    0.009466824    0.007822303
      7        6           0.004065811   -0.009129328   -0.007692291
      8        6          -0.002141732    0.017332547    0.008103074
      9        6           0.007013339   -0.013459465    0.029100283
     10        6          -0.009745330   -0.014015397   -0.017207941
     11        6           0.027714511    0.024663164   -0.005033746
     12        6          -0.006422313   -0.007409246    0.009819842
     13        6          -0.007337182   -0.002347112   -0.010256934
     14        1          -0.003115390    0.000445859    0.000362199
     15        1          -0.002138870   -0.000197877   -0.000154823
     16        1           0.001763355    0.000215734    0.000178582
     17        1          -0.000573356    0.002558750    0.000191508
     18        1          -0.000546120    0.000704093    0.002467294
     19        1          -0.000490836   -0.000814225   -0.000193276
     20        1          -0.000549853   -0.000455190   -0.000762016
     21        1          -0.001034015    0.000674763    0.000537352
     22        1          -0.000798583    0.000571825    0.000639553
     23        1           0.000491894   -0.000398793    0.000117833
     24        1           0.000244523   -0.000450203   -0.000399855
     25        1          -0.000719161    0.000144059    0.000767754
     26        1          -0.000448384    0.000627443    0.000286490
     27        1           0.001675363    0.001737042    0.000387607
     28        1           0.001935400    0.001235872    0.000434951
     29        1          -0.001659997   -0.004035849   -0.001433504
     30        1           0.002134432   -0.004772954    0.000628879
     31        1           0.000720217    0.003188305   -0.001160540
     32        1           0.000496128   -0.000904820   -0.003606091
     33        1           0.001630183    0.002173624   -0.001619815
     34        1           0.000335277    0.005521718   -0.001320389
     35        1           0.002214098    0.001344965    0.000253755
 -------------------------------------------------------------------
 Cartesian Forces:  Max     0.029100283 RMS     0.007455912

 GradGradGradGradGradGradGradGradGradGradGradGradGradGradGradGradGradGrad
 Berny optimization.
 FormGI is forming the generalized inverse of G from B-inverse, IUseBI=4.
 Internal  Forces:  Max     0.018250007 RMS     0.004995622
 Search for a local minimum.
 Step number   1 out of a maximum of  209
 All quantities printed in internal units (Hartrees-Bohrs-Radians)
 Mixed Optimization -- RFO/linear search
 Second derivative matrix not updated -- first step.
 ITU=  0
     Eigenvalues ---    0.00384   0.00458   0.00484   0.00488   0.00517
     Eigenvalues ---    0.00536   0.00574   0.00811   0.01195   0.01644
     Eigenvalues ---    0.02641   0.02878   0.02878   0.02968   0.02971
     Eigenvalues ---    0.03498   0.03734   0.03854   0.03882   0.03900
     Eigenvalues ---    0.04000   0.04315   0.04377   0.04679   0.04738
     Eigenvalues ---    0.04945   0.04972   0.05001   0.05009   0.05025
     Eigenvalues ---    0.05040   0.05572   0.05783   0.06802   0.07268
     Eigenvalues ---    0.07654   0.07838   0.07979   0.07981   0.08004
     Eigenvalues ---    0.08183   0.08466   0.09180   0.10325   0.11803
     Eigenvalues ---    0.11917   0.11921   0.11936   0.12077   0.12702
     Eigenvalues ---    0.16000   0.16000   0.16000   0.16000   0.16000
     Eigenvalues ---    0.19762   0.21840   0.21866   0.21867   0.21875
     Eigenvalues ---    0.21880   0.21965   0.22000   0.24730   0.25006
     Eigenvalues ---    0.25469   0.28481   0.29460   0.29524   0.30050
     Eigenvalues ---    0.30243   0.30269   0.30617   0.30900   0.32738
     Eigenvalues ---    0.33829   0.33932   0.33938   0.33941   0.33945
     Eigenvalues ---    0.33953   0.33987   0.34023   0.34026   0.34027
     Eigenvalues ---    0.34054   0.34104   0.34110   0.34151   0.34181
     Eigenvalues ---    0.34385   0.34429   0.35147   0.35431   0.35443
     Eigenvalues ---    0.35581   0.35587   0.57132   0.58688
 RFO step:  Lambda=-2.54141916D-02 EMin= 3.83512679D-03
 Linear search not attempted -- first point.
 Iteration  1 RMS(Cart)=  0.12804118 RMS(Int)=  0.00206558
 Iteration  2 RMS(Cart)=  0.00339861 RMS(Int)=  0.00062242
 Iteration  3 RMS(Cart)=  0.00000392 RMS(Int)=  0.00062241
 Iteration  4 RMS(Cart)=  0.00000000 RMS(Int)=  0.00062241
 Variable       Old X    -DE/DX   Delta X   Delta X   Delta X     New X
                                 (Linear)    (Quad)   (Total)
    R1        2.53285  -0.00919   0.00000  -0.01540  -0.01540   2.51745
    R2        2.04733   0.00105   0.00000   0.00276   0.00276   2.05008
    R3        2.04981   0.00092   0.00000   0.00242   0.00242   2.05223
    R4        2.82813   0.01342   0.00000   0.03803   0.03803   2.86616
    R5        2.05437   0.00065   0.00000   0.00171   0.00171   2.05608
    R6        2.87864   0.01001   0.00000   0.03070   0.03070   2.90934
    R7        2.07286   0.00008   0.00000   0.00023   0.00023   2.07310
    R8        2.07290   0.00007   0.00000   0.00019   0.00019   2.07310
    R9        2.87481   0.01090   0.00000   0.03325   0.03325   2.90806
   R10        2.07429  -0.00001   0.00000  -0.00004  -0.00004   2.07425
   R11        2.07410   0.00006   0.00000   0.00017   0.00017   2.07427
   R12        2.86750   0.01386   0.00000   0.04179   0.04179   2.90929
   R13        2.07239   0.00071   0.00000   0.00195   0.00195   2.07434
   R14        2.07285   0.00054   0.00000   0.00149   0.00149   2.07433
   R15        2.87430   0.01231   0.00000   0.03751   0.03751   2.91182
   R16        2.07435  -0.00003   0.00000  -0.00007  -0.00007   2.07427
   R17        2.07353   0.00036   0.00000   0.00100   0.00100   2.07453
   R18        2.86204   0.01584   0.00000   0.04736   0.04736   2.90940
   R19        2.07156   0.00090   0.00000   0.00245   0.00245   2.07401
   R20        2.07075   0.00062   0.00000   0.00168   0.00168   2.07243
   R21        2.88922   0.00155   0.00000   0.00484   0.00484   2.89406
   R22        2.07423   0.00008   0.00000   0.00022   0.00022   2.07444
   R23        2.07445  -0.00053   0.00000  -0.00146  -0.00146   2.07298
   R24        2.95029   0.00209   0.00000   0.00858   0.00819   2.95849
   R25        2.93401   0.00973   0.00000   0.03946   0.03887   2.97288
   R26        2.07620  -0.00058   0.00000  -0.00160  -0.00160   2.07460
   R27        2.85943   0.00439   0.00000   0.01313   0.01383   2.87326
   R28        2.07145  -0.00201   0.00000  -0.00549  -0.00549   2.06595
   R29        2.06612   0.00095   0.00000   0.00256   0.00256   2.06869
   R30        2.51994  -0.00780   0.00000  -0.01275  -0.01275   2.50720
   R31        2.87212   0.00262   0.00000   0.00012   0.00042   2.87254
   R32        2.04962   0.00039   0.00000   0.00103   0.00103   2.05065
   R33        2.04742   0.00106   0.00000   0.00277   0.00277   2.05019
   R34        2.06685   0.00004   0.00000   0.00010   0.00010   2.06695
   R35        2.07026  -0.00070   0.00000  -0.00190  -0.00190   2.06836
    A1        2.10790   0.00275   0.00000   0.01482   0.01482   2.12272
    A2        2.11224   0.00062   0.00000   0.00335   0.00335   2.11559
    A3        2.06305  -0.00337   0.00000  -0.01818  -0.01818   2.04488
    A4        2.13148   0.01139   0.00000   0.04643   0.04643   2.17791
    A5        2.08116  -0.00399   0.00000  -0.01399  -0.01399   2.06717
    A6        2.07054  -0.00741   0.00000  -0.03244  -0.03244   2.03810
    A7        1.94161   0.00988   0.00000   0.04640   0.04620   1.98781
    A8        1.91289  -0.00248   0.00000  -0.00520  -0.00536   1.90753
    A9        1.91288  -0.00247   0.00000  -0.00519  -0.00534   1.90754
   A10        1.90570  -0.00246   0.00000  -0.00797  -0.00820   1.89750
   A11        1.90591  -0.00248   0.00000  -0.00819  -0.00842   1.89750
   A12        1.88391  -0.00028   0.00000  -0.02193  -0.02212   1.86179
   A13        1.92296   0.01449   0.00000   0.06450   0.06446   1.98742
   A14        1.92222  -0.00462   0.00000  -0.01881  -0.01912   1.90310
   A15        1.92262  -0.00469   0.00000  -0.01924  -0.01956   1.90307
   A16        1.91346  -0.00386   0.00000  -0.01054  -0.01051   1.90296
   A17        1.91313  -0.00378   0.00000  -0.00992  -0.00988   1.90326
   A18        1.86870   0.00198   0.00000  -0.00845  -0.00891   1.85979
   A19        1.92192   0.01540   0.00000   0.06893   0.06885   1.99077
   A20        1.92073  -0.00479   0.00000  -0.01835  -0.01866   1.90207
   A21        1.91915  -0.00459   0.00000  -0.01693  -0.01721   1.90194
   A22        1.91429  -0.00411   0.00000  -0.01180  -0.01186   1.90243
   A23        1.91452  -0.00430   0.00000  -0.01312  -0.01320   1.90133
   A24        1.87263   0.00192   0.00000  -0.01120  -0.01170   1.86093
   A25        1.92334   0.01593   0.00000   0.07068   0.07064   1.99398
   A26        1.91598  -0.00434   0.00000  -0.01334  -0.01346   1.90252
   A27        1.92013  -0.00484   0.00000  -0.01745  -0.01755   1.90258
   A28        1.91747  -0.00490   0.00000  -0.01780  -0.01806   1.89941
   A29        1.91841  -0.00464   0.00000  -0.01653  -0.01666   1.90176
[...]
 377,-0.00000671,0.00001606,0.00002993,-0.00002112,-0.00003855,0.000024
 57,-0.00008652,0.00006115,-0.00101729,0.00202823,-0.00092163,-0.000530
 77,0.01131407,0.01046811,0.00996961,-0.13075157,-0.16826781,0.00188350
 ,-0.00547876,-0.00810534,0.00073126,-0.00055413,0.00161196,-0.00006479
 ,0.00000436,-0.00155923,0.00000050,-0.00000083,-0.00000002,0.00000030,
 -0.00000048,0.00000108,0.00000093,-0.00000029,0.00000116,-0.00000176,-
 0.00000116,0.00000192,-0.00000028,0.00000108,-0.00000211,0.00000088,0.
 00000123,0.00000490,-0.00000072,0.00000114,0.00000079,-0.00000586,-0.0
 0000381,0.00000580,0.00000610,0.00000110,-0.00000747,-0.00000035,0.000
 01556,0.00002446,-0.00003375,-0.00002184,-0.00000317,-0.00001309,-0.00
 005215,0.00003936,0.00021971,0.00000359,-0.00008326,-0.00005821,0.0001
 7566,0.00026299,0.00043811,0.00061360,0.00044954,0.00038370,-0.0007773
 0,0.00145329,-0.01340685,0.14117291,0.18064090,-0.00000138,-0.00000217
 ,-0.00000022,0.00000338,0.00000250,0.00000106,0.00000154,0.00000313,0.
 00000282,0.00001498,-0.00000319,-0.00000856,0.00001408,0.00003149,0.00
 003522,0.00009042,0.00000742,-0.00014853,0.00017550,-0.00016434,0.0003
 9329,0.00028982,0.00024174,-0.00077057,0.00360353,0.00162185,0.0067389
 6,-0.15485092,0.02678828,-0.12581752,-0.01541572,0.00343871,-0.0216513
 7,0.00171509,0.00155165,-0.00009922,-0.00234617,0.00229411,0.00161192,
 -0.00000070,-0.00000030,-0.00000029,-0.00000004,0.00000026,0.00000050,
 0.00000024,0.00000040,0.00000033,-0.00000134,-0.00000022,0.00000113,0.
 00000088,-0.00000198,-0.00000075,0.00000018,0.00000153,0.00000356,-0.0
 0000102,-0.00000355,0.00000073,-0.00000650,0.00000049,0.00000227,0.000
 00224,-0.00000475,-0.00000230,-0.00000026,0.00000321,0.00001739,-0.000
 01246,-0.00000016,-0.00000612,0.00002069,-0.00000969,0.00007442,-0.000
 26402,-0.00033510,0.00010141,-0.00006585,0.00039594,0.00010545,0.00010
 460,0.00016042,0.00025681,-0.00021072,-0.00138369,0.00073537,0.0020354
 5,-0.00020272,0.00136232,0.16534343,0.00000729,0.00000543,0.00000605,0
 .00000263,-0.00001518,-0.00001359,-0.00000385,0.00001278,0.00001160,-0
 .00000287,-0.00001342,-0.00000793,-0.00004612,-0.00001312,-0.00000476,
 -0.00020591,0.00016167,-0.00012525,-0.00010788,-0.00056648,0.00004482,
 0.00012663,0.00260240,0.00106765,0.01577175,-0.00120193,0.01813587,0.0
 2720881,-0.05358549,0.03691154,0.00431577,-0.00328980,-0.00013200,-0.0
 0119247,0.00066575,0.00067096,0.00149565,-0.00353050,-0.00093433,0.000
 00113,0.00000450,0.00000037,-0.00000074,-0.00000045,-0.00000109,-0.000
 00142,0.00000182,0.00000109,0.00000332,0.00000019,-0.00000219,0.000000
 27,-0.00000063,0.00000162,-0.00000069,-0.00000052,-0.00000207,0.000002
 30,0.00000216,0.00000129,0.00001363,0.00000409,-0.00000942,-0.00000811
 ,0.00000190,-0.00000023,-0.00000742,-0.00004102,-0.00002582,0.00007519
 ,0.00007538,0.00003768,0.00014808,0.00017946,-0.00011646,-0.00073545,0
 .00013644,0.00007716,0.00013569,-0.00021128,-0.00074623,0.00025809,0.0
 0042658,-0.00026549,0.00087991,-0.00271968,0.00097065,-0.01529889,0.00
 490908,-0.01783312,-0.03473871,0.05630304,-0.00000499,-0.00000737,-0.0
 0000531,0.00000361,0.00001070,0.00001394,0.00000114,0.00000068,-0.0000
 0988,0.00001451,-0.00000279,0.00001226,0.00002859,0.00006653,-0.000012
 16,0.00026555,-0.00023838,0.00017094,-0.00039284,0.00063409,-0.0000110
 3,-0.00074791,-0.00174995,0.00091907,-0.00511151,-0.00151441,-0.008883
 32,-0.12340919,0.03699707,-0.18881932,0.00752380,-0.00040797,0.0109250
 4,-0.00000870,-0.00049707,0.00062202,0.00030445,-0.00039023,-0.0003373
 6,-0.00000256,-0.00000294,-0.00000071,0.00000023,0.00000128,0.00000071
 ,-0.00000012,-0.00000080,-0.00000218,-0.00000120,0.00000065,0.00000048
 ,0.00000230,-0.00000412,0.00000188,-0.00000228,0.00000042,-0.00000377,
 -0.00000433,-0.00001036,-0.00000391,0.00000289,-0.00000124,0.00000065,
 0.00002544,-0.00001643,0.00001959,-0.00001354,0.00001434,-0.00003471,-
 0.00009037,-0.00012235,-0.00008095,-0.00001998,-0.00018119,0.00007001,
 0.00067549,-0.00028721,0.00017685,0.00032915,0.00031129,0.00047619,-0.
 00012139,-0.00016098,0.00007626,-0.00061897,0.00204007,-0.00037497,-0.
 01483815,0.00419200,-0.01634243,0.13711889,-0.03821669,0.20172071,0.00
 000063,0.00000035,0.00000014,-0.00000103,-0.00000126,-0.00000052,-0.00
 000063,-0.00000133,-0.00000005,-0.00000410,0.00000168,0.00000224,-0.00
 000109,-0.00001133,-0.00000491,-0.00002135,0.00001143,0.00001445,-0.00
 001210,-0.00006590,-0.00003191,-0.00011602,0.00012255,0.00003713,0.000
 42098,-0.00051907,-0.00008777,0.00053114,-0.00102245,-0.00324546,0.007
 58357,-0.01925049,0.01163158,-0.06948382,0.06517748,-0.02731570,0.0002
 5362,0.00137075,0.00552338,0.00000037,0.00000056,0.00000037,-0.0000001
 1,0.00000003,-0.00000028,-0.00000012,-0.00000006,-0.00000044,0.0000005
 6,0.00000004,-0.00000044,-0.00000038,0.00000085,0.,-0.00000010,-0.0000
 0044,-0.00000139,0.00000035,0.00000094,0.00000009,0.00000132,0.0000005
 1,-0.00000141,-0.00000185,0.00000218,-0.00000025,0.00000018,-0.0000020
 5,-0.00000538,0.00000105,0.00000248,-0.00000037,0.00000277,0.00000199,
 -0.00000115,-0.00000520,0.00000927,-0.00000416,-0.00000062,-0.00001931
 ,-0.00001171,0.00002808,0.00002762,0.00000524,-0.00006055,0.00013526,-
 0.00005493,0.00064117,-0.00009487,-0.00010362,-0.00063866,0.00024284,-
 0.00019938,0.06467127,-0.00000270,-0.00000120,-0.00000164,-0.00000263,
 0.00000493,0.00000528,-0.00000042,-0.00000786,-0.00000565,-0.00000942,
 0.00000769,0.00001181,0.00000331,-0.00002469,-0.00001603,-0.00002598,0
 .00001759,0.00004679,-0.00001527,-0.00009673,-0.00006077,-0.00011170,0
 .00014352,0.00014336,-0.00006666,-0.00002441,-0.00011141,-0.00115910,-
 0.00152764,-0.00414838,0.00540985,-0.01062499,0.00749302,0.06235366,-0
 .24903944,0.12024797,0.00134264,0.00516832,0.00505164,-0.00000003,-0.0
 0000164,-0.00000017,0.00000070,0.00000010,-0.00000074,0.00000007,-0.00
 000125,-0.00000118,0.00000083,0.00000058,-0.00000149,-0.00000079,0.000
 00156,0.00000056,-0.00000007,-0.00000167,-0.00000471,0.00000020,0.0000
 0171,-0.00000091,0.00000223,0.00000115,-0.00000282,-0.00000385,0.00000
 511,0.00000100,-0.00000083,-0.00000581,-0.00001429,-0.00000259,-0.0000
 0200,-0.00000617,0.00000510,0.00000308,-0.00000110,0.00001730,0.000003
 19,0.00000758,0.00000452,-0.00003096,-0.00002858,0.00002783,-0.0000130
 4,-0.00001466,-0.00015260,0.00003217,-0.00000663,0.00053812,-0.0001718
 3,-0.00018992,-0.00132023,0.00033569,0.00031558,-0.06712375,0.26244760
 ,0.00000357,0.00000142,0.00000194,0.00000194,-0.00000670,-0.00000433,-
 0.00000047,0.00000764,0.00000540,0.00000727,-0.00000774,-0.00000393,-0
 .00000268,0.00002325,0.00001303,0.00003616,-0.00004253,0.00000040,0.00
 000120,0.00006993,0.00006934,0.00018511,-0.00014171,-0.00006496,-0.000
 12831,0.00061627,-0.00050791,-0.00182244,-0.00404035,-0.00452949,-0.00
 729386,0.02061159,-0.00648579,-0.02532634,0.11911803,-0.10244373,0.005
 30133,0.00342239,0.00782953,0.00000008,0.00000218,0.00000040,-0.000000
 60,0.00000005,-0.00000049,-0.00000073,0.00000090,-0.00000016,0.0000010
 1,0.00000015,-0.00000095,0.00000039,-0.00000079,0.00000096,-0.00000030
 ,0.00000044,-0.00000075,-0.00000013,-0.00000074,0.00000017,0.00000188,
 -0.00000015,-0.00000263,0.00000322,-0.00000354,0.00000235,0.00000033,0
 .00000360,0.00000040,-0.00000541,-0.00000414,-0.00000380,-0.00000711,-
 0.00000591,0.00000660,0.00003921,-0.00003141,0.00000891,-0.00001766,0.
 00000679,0.00001082,-0.00002414,-0.00007363,-0.00002488,0.00035531,-0.
 00014349,-0.00002889,0.00145565,-0.00029007,-0.00055715,-0.00064696,0.
 00027545,0.00012777,0.02589441,-0.13421863,0.10243694,-0.00000224,-0.0
 0000278,-0.00000247,-0.00000028,0.00000692,0.00000807,-0.00000113,-0.0
 0000585,-0.00000697,-0.00000385,0.00000836,0.00000960,0.00000342,-0.00
 000775,-0.00001266,0.00000092,0.00001165,0.00002535,0.00002906,0.00003
 507,-0.00003490,0.00008874,-0.00015215,0.00017360,-0.00019339,0.000041
 84,-0.00004270,0.00337954,0.00083107,0.00443510,-0.01779265,0.01030803
 ,0.00335785,-0.28118714,0.10019391,0.05130283,0.00005792,-0.00143106,-
 0.00308383,-0.00000170,-0.00000267,-0.00000110,0.00000031,0.00000062,-
 0.00000003,0.,-0.00000070,-0.00000111,0.00000021,0.00000067,-0.0000011
 1,0.00000071,-0.00000136,0.00000075,-0.00000059,0.00000003,-0.00000375
 ,-0.00000091,-0.00000280,0.,0.00000094,0.00000040,-0.00000116,0.000001
 40,-0.00000183,0.00000207,-0.00000372,0.00000079,-0.00000964,-0.000004
 09,-0.00001038,-0.00000150,0.00001007,-0.00000444,-0.00000305,0.000019
 96,-0.00000659,0.00001342,-0.00003378,0.00002001,-0.00003839,-0.000078
 02,-0.00007031,-0.00003784,0.00005723,-0.00023641,0.00007191,-0.001225
 37,0.00002258,0.00050051,0.00061217,0.00001796,-0.00034923,-0.00340182
 ,0.00037686,0.00225458,0.29963574,0.00000095,0.00000052,0.00000065,-0.
 00000042,-0.00000273,-0.00000172,-0.00000026,0.00000061,0.00000187,-0.
 00000017,-0.00000115,0.00000082,-0.00000085,-0.00000083,0.00000182,0.0
 0000437,-0.00000178,0.00000662,0.00001775,0.00001803,-0.00000634,0.000
 04904,-0.00008536,0.00003197,-0.00024454,0.00034458,-0.00036535,0.0004
 2455,0.00312739,0.00684714,-0.01452700,0.00797536,0.00439355,0.1030840
 4,-0.08988371,-0.01015665,-0.00092141,-0.00085707,-0.00438179,0.000000
 65,0.00000123,0.00000066,-0.00000013,-0.00000002,-0.00000056,-0.000000
 25,0.00000002,-0.00000054,0.00000079,0.00000014,-0.00000068,-0.0000002
 6,0.00000094,0.00000026,-0.00000016,-0.00000052,-0.00000149,0.00000010
 ,0.00000068,-0.00000017,0.00000159,0.00000095,-0.00000230,-0.00000072,
 0.00000085,0.00000084,-0.00000047,-0.00000221,-0.00000506,0.00000021,0
 .00000103,-0.00000113,0.00000625,0.00000570,-0.00000623,-0.00000100,0.
 00000854,0.00001199,-0.00001901,-0.00000519,-0.00000539,-0.00004124,-0
 .00002126,-0.00001418,0.00010655,0.00001422,-0.00003999,-0.00161744,-0
 .00012051,0.00063000,0.00082571,-0.00020001,-0.00035635,0.02169343,-0.
 00604641,-0.00498604,-0.10907900,0.08560866,0.00000284,0.00000161,0.00
 000219,0.00000090,-0.00000596,-0.00000484,-0.00000081,0.00000511,0.000
 00457,0.00000088,-0.00000549,-0.00000246,-0.00000800,0.00000389,0.0000
 0411,-0.00002144,0.00001384,-0.00001748,-0.00000846,-0.00004469,-0.000
 00349,-0.00013484,0.00010039,-0.00008413,0.00074394,-0.00034236,-0.000
 24656,0.00283221,0.00673994,0.00672572,0.02156594,-0.00940244,0.000338
 92,0.04957194,-0.00879215,-0.04999038,-0.00296438,-0.00304292,-0.00475
 248,0.00000047,0.00000198,0.00000042,-0.00000039,-0.00000014,-0.000000
 58,-0.00000063,0.00000078,0.00000008,0.00000108,-0.00000004,-0.0000008
 9,0.,-0.00000001,0.00000055,0.,0.00000034,-0.00000063,0.00000044,0.000
 00076,0.00000049,0.00000225,0.,-0.00000262,-0.00000079,-0.00000061,-0.
 00000030,0.00000063,-0.00000106,-0.00000081,0.00001119,0.00001090,0.00
 000723,0.00000883,0.00001372,-0.00001103,-0.00006247,0.00003364,-0.000
 01109,-0.00001035,-0.00002760,0.00001305,0.00001686,0.00009934,0.00003
 912,-0.00012253,0.00030891,-0.00013030,-0.00178803,-0.00008769,0.00057
 250,0.00165724,-0.00010875,-0.00059376,-0.01242710,0.00524323,0.004169
 01,-0.05896960,0.00880172,0.04439068,-0.00001316,-0.00001270,-0.000014
 19,-0.00001310,0.00003136,0.00003237,-0.00000668,-0.00004575,-0.000043
 29,-0.00007761,0.00006586,0.00004712,-0.00001245,-0.00021137,-0.000165
 40,-0.00051380,0.00028284,0.00030821,-0.00023044,-0.00142515,-0.000982
 75,-0.00437627,0.00319427,0.00132290,-0.01388141,-0.00473866,-0.025556
 39,-0.00058888,0.00098581,0.00116633,0.00236454,0.00331468,0.00519778,
 0.00001926,-0.00140452,0.00035873,-0.11767273,-0.01170564,-0.11710485,
 -0.00000201,-0.00000960,-0.00000027,0.00000062,0.00000193,0.00000168,0
 .00000187,-0.00000346,-0.00000385,-0.00000327,-0.00000008,0.00000310,0
 .00000078,0.00000115,-0.00000210,0.00000082,-0.00000046,-0.00000644,0.
 00000020,-0.00000661,-0.00000009,-0.00000342,-0.00000180,0.00001387,-0
 .00000217,0.00001083,-0.00000364,0.00001646,0.00001563,-0.00001760,0.0
 0000396,-0.00003438,0.00000686,-0.00006538,-0.00001949,0.00010915,0.00
 007975,0.00005680,-0.00003659,0.00017783,0.00015138,-0.00002456,0.0001
 1456,-0.00016519,0.00010227,0.00240314,-0.00081368,0.00036184,-0.00014
 009,0.00064599,-0.00034962,-0.00012878,0.00041232,-0.00007061,-0.00032
 989,-0.00028689,-0.00041084,-0.00006907,-0.00001031,-0.00003535,0.1273
 1057,-0.00000579,-0.00000522,-0.00000538,-0.00000444,0.00001310,0.0000
 1270,-0.00000160,-0.00001705,-0.00001492,-0.00002234,0.00002222,0.0000
 1421,-0.00000571,-0.00006364,-0.00004916,-0.00012167,0.00008943,0.0000
 7943,-0.00011041,-0.00033747,-0.00005943,-0.00165128,0.00006342,0.0002
 3496,0.00026516,-0.00198236,-0.00248697,-0.00002299,-0.00194138,-0.002
 17989,0.01313537,0.00285029,0.02485319,0.00119128,-0.00033048,-0.00069
 766,-0.00976801,-0.04522132,-0.01567323,-0.00000078,-0.00000387,-0.000
 00018,0.00000041,0.00000076,0.00000049,0.00000085,-0.00000163,-0.00000
 145,-0.00000160,0.00000038,0.00000100,-0.00000021,0.00000073,-0.000000
 68,0.00000047,-0.00000135,-0.00000218,0.00000012,-0.00000202,-0.000000
 87,-0.00000207,0.00000104,0.00000346,-0.00000290,0.00000427,-0.0000004
 8,0.00000864,-0.00000190,-0.00000370,0.00000558,-0.00000545,-0.0000004
 4,-0.00010336,0.00000366,0.00004255,-0.00003212,0.00002118,-0.00000973
 ,0.00016101,0.00007032,0.00033980,0.00005105,0.00008240,-0.00003194,0.
 00055634,0.00099981,0.00008671,0.00080662,-0.00030658,0.00008668,0.000
 07677,-0.00005706,-0.00001626,-0.00109373,-0.00137749,-0.00159864,0.00
 022702,0.00087885,0.00118937,0.01074505,0.04798242,-0.00000099,-0.0000
 0082,-0.00000147,0.00000125,0.00000214,0.00000235,0.00000258,0.0000022
 6,0.00000155,0.00001600,-0.00000303,-0.00000560,0.00001662,0.00003357,
 0.00002079,0.00013302,-0.00001808,-0.00006913,0.00031185,0.00037256,0.
 00028221,0.00111139,-0.00059724,0.00009642,0.00589376,0.00111757,0.008
 09077,0.00022578,0.00024964,-0.00066356,-0.00635826,0.00003550,-0.0152
 5355,-0.00120438,0.00092648,0.00156437,-0.11833405,-0.02026717,-0.2294
 3233,-0.00000053,-0.00000058,-0.00000016,0.00000013,0.00000022,0.00000
 072,0.00000062,-0.00000022,0.,-0.00000154,-0.00000009,0.00000133,0.000
 00026,-0.00000093,-0.00000062,-0.00000025,-0.00000020,0.00000220,-0.00
 000074,-0.00000240,-0.00000089,-0.00000288,0.00000131,0.00000143,0.000
 00201,-0.00000398,0.00000154,-0.00000205,-0.00000893,0.00000639,-0.000
 00122,-0.00000349,-0.00000434,-0.00005498,0.00000670,-0.00001383,-0.00
 004438,0.00000944,0.00001498,0.00013790,0.00002736,0.00023754,-0.00004
 705,0.00006324,-0.00011187,-0.00066034,0.00032233,0.00126219,-0.000228
 10,-0.00007936,0.00015589,-0.00035321,0.00017726,0.00002612,0.00076250
 ,0.00093924,0.00093269,-0.00014465,-0.00047983,-0.00090136,0.12790048,
 0.01861884,0.24713130,0.00000265,0.00000044,0.00000217,0.00000338,-0.0
 0000510,-0.00000339,-0.00000093,0.00000713,0.00000629,0.00001327,-0.00
 000647,-0.00000431,0.00001336,0.00003748,0.00002926,0.00006110,-0.0000
 5892,-0.00008860,0.00010725,0.00001772,0.00007137,0.00297142,0.0009842
 2,0.00115744,-0.00428840,0.02139498,0.01499961,-0.00267441,0.00104626,
 -0.00171722,-0.00156142,-0.00008665,-0.00541437,0.00067404,-0.00088476
 ,0.00092176,-0.06756839,0.05704876,0.03987926,-0.00000032,0.00000175,-
 0.00000002,-0.00000034,0.00000022,-0.00000079,-0.00000088,0.00000076,-
 0.00000045,0.00000157,0.00000072,-0.00000169,0.00000114,-0.00000151,0.
 00000123,-0.00000116,0.00000063,-0.00000193,-0.00000125,-0.00000235,0.
 00000098,0.00000546,0.00000200,-0.00000431,0.00000597,-0.00000494,0.00
 000283,-0.00002702,-0.00001644,-0.00002311,-0.00002249,-0.00002265,-0.
 00000602,0.00018058,0.00000180,-0.00014618,0.00018412,-0.00006935,0.00
 003586,-0.00012916,-0.00000310,-0.00070280,-0.00010453,-0.00087094,0.0
 0014571,-0.00324897,0.00130253,-0.00000774,-0.00003542,0.00041137,0.00
 002023,-0.00008363,0.00123125,-0.00028875,-0.00005763,0.00020228,0.000
 14535,0.00010139,0.00024871,0.00013753,0.00563625,-0.01428074,-0.00907
 657,0.06984340,-0.00000139,0.00000164,0.00000025,-0.00000042,0.0000006
 1,-0.00000273,0.00000245,0.00000070,0.00000316,0.00000752,-0.00000426,
 -0.00000541,0.00000656,0.00000229,0.00002016,0.00006432,-0.00000657,-0
 .00006126,0.00012718,0.00009328,0.00031679,-0.00061316,0.00083248,-0.0
 0057771,0.00007605,0.00206612,0.00329943,0.00171463,-0.00184963,0.0024
 7753,0.00623407,-0.01730597,-0.01344263,0.00145935,0.00160679,-0.00002
 752,0.05759599,-0.21937406,-0.10872857,0.00000078,-0.00000029,-0.00000
 014,0.00000058,-0.00000061,0.00000084,0.00000049,-0.00000067,0.0000009
 8,-0.00000057,-0.00000038,0.00000038,-0.00000144,0.00000152,-0.0000006
 3,0.00000045,-0.00000184,0.00000210,0.00000069,0.00000343,-0.00000111,
 -0.00000094,0.00000141,-0.00000072,-0.00000353,0.00000488,-0.00000217,
 0.00000228,-0.00001270,0.00000709,0.00000166,0.00001305,-0.00000345,-0
 .00010600,0.00002498,-0.00001593,-0.00009309,0.00005051,-0.00002683,0.
 00033872,0.00002369,0.00037073,0.00053465,0.00035763,0.00026494,-0.000
 87239,-0.00014937,0.00045938,0.00013052,-0.00024830,-0.00027153,0.0007
 2524,-0.00038182,-0.00039960,0.00040376,0.00082506,0.00143611,-0.00108
 773,-0.00075956,-0.00070757,0.00097984,-0.00142801,-0.00143931,-0.0676
 2709,0.23561399,0.00000207,0.00000335,0.00000196,0.00000031,-0.0000056
 1,-0.00000598,0.00000078,0.00000635,0.00000393,0.00000331,-0.00000974,
 -0.00000226,-0.00000908,0.00001125,-0.00000921,-0.00000130,-0.00003528
 ,0.00003841,-0.00005837,0.00008602,-0.00008446,-0.00158557,-0.00046717
 ,0.00110349,-0.00078400,-0.00306895,-0.00512237,-0.00136462,0.00099452
 ,-0.00157699,-0.00439725,0.01511834,0.01122170,-0.00090272,-0.00045667
 ,0.00072328,0.03999991,-0.10647078,-0.11098241,0.00000077,0.00000135,0
 .00000012,0.00000005,-0.00000072,0.00000021,-0.00000026,0.00000057,0.0
 0000121,0.00000062,-0.00000086,-0.00000004,-0.00000055,0.00000046,0.00
 000009,-0.00000028,0.00000066,0.00000065,0.00000068,0.00000296,-0.0000
 0017,0.00000523,-0.00000331,-0.00000082,0.00000013,0.00000021,-0.00000
 020,0.00000091,0.00000869,-0.00000628,0.00000347,0.00001394,-0.0000013
 7,-0.00004934,-0.00005044,0.00000678,-0.00003945,0.00000965,-0.0000077
 8,0.00009263,0.00039061,0.00018877,0.00029534,0.00033994,-0.00000906,0
 .00153859,-0.00040434,0.00017199,-0.00008055,0.00009519,0.00012260,-0.
 00071544,0.00015436,0.00015527,-0.00037319,-0.00067115,-0.00095681,0.0
 0059004,0.00008185,0.00048658,0.00789576,-0.02273019,-0.01337407,-0.04
 006860,0.11705495,0.11791322\\-0.00000060,-0.00000031,-0.00000120,0.00
 000089,0.00000434,0.00000296,-0.00000043,-0.00000569,-0.00000359,-0.00
 000070,0.00000085,0.00000062,-0.00000067,0.00000001,-0.00000015,0.0000
 0120,0.00000064,0.00000088,-0.00000190,0.00000133,-0.00000093,0.000003
 45,-0.00000069,0.00000276,-0.00000101,-0.00000260,0.00000027,-0.000001
 72,0.00000647,0.00000280,-0.00000018,-0.00000414,-0.00000008,0.0000003
 7,-0.00000011,0.00000142,0.00000018,0.00000373,0.00000171,0.00000076,-
 0.00000026,-0.00000075,-0.00000021,0.00000082,-0.00000123,-0.00000029,
 -0.00000140,-0.00000109,-0.00000003,0.00000134,0.00000019,0.00000006,0
 .00000061,-0.00000120,0.00000069,0.00000004,-0.00000035,-0.00000004,0.
 00000021,-0.00000023,-0.00000019,0.00000012,-0.00000058,0.00000037,0.0
 0000002,-0.00000050,-0.00000015,-0.00000034,-0.00000004,-0.00000026,0.
 00000008,0.00000034,0.00000024,0.00000052,-0.00000015,0.00000068,-0.00
 000087,-0.00000069,0.00000021,-0.00000015,0.,-0.00000121,0.00000033,-0
 .00000014,-0.00000079,0.00000052,0.00000118,0.00000140,-0.00000245,-0.
 00000263,-0.00000066,-0.00000114,-0.00000082,0.00000077,-0.00000062,0.
 00000015,0.00000040,-0.00000052,0.00000059,-0.00000030,-0.00000014,-0.
 00000002,-0.00000033,-0.00000055,0.00000049\\\@


 THERE ARE TWO THINGS THAT EVERYBODY THINKS THEY CAN DO BETTER THAN
 ANYONE ELSE - PUNCH THE FIRE, AND EDIT A DAILY PAPER.
 -- UNCLE ESEK, "CENTURY MAGAZINE", 1885
 Job cpu time:       0 days  5 hours 30 minutes 42.6 seconds.
 Elapsed time:       0 days  1 hours 22 minutes 42.2 seconds.
 File lengths (MBytes):  RWF=    560 Int=      0 D2E=      0 Chk=     20 Scr=      1
 Normal termination of Gaussian 16 at Wed May 24 05:36:55 2023.
### All Done ###
