### Starting Gaussian ###
 Entering Gaussian System, Link 0=g16
 Initial command:
 /cluster/software/gaussian/gaussian-16-A.03/avx2/g16/l1.exe "/local/scratch/ks29c/Gau-29494.inp" -scrdir="/local/scratch/ks29c/"
 Entering Link 1 = /cluster/software/gaussian/gaussian-16-A.03/avx2/g16/l1.exe PID=     29495.
  
 Copyright (c) 1988,1990,1992,1993,1995,1998,2003,2009,2016,
            Gaussian, Inc.  All Rights Reserved.
  
 This is part of the Gaussian(R) 16 program.  It is based on
 the Gaussian(R) 09 system (copyright 2009, Gaussian, Inc.),
 the Gaussian(R) 03 system (copyright 2003, Gaussian, Inc.),
 the Gaussian(R) 98 system (copyright 1998, Gaussian, Inc.),
 the Gaussian(R) 94 system (copyright 1995, Gaussian, Inc.),
 the Gaussian 92(TM) system (copyright 1992, Gaussian, Inc.),
 the Gaussian 90(TM) system (copyright 1990, Gaussian, Inc.),
 the Gaussian 88(TM) system (copyright 1988, Gaussian, Inc.),
 the Gaussian 86(TM) system (copyright 1986, Carnegie Mellon
 University), and the Gaussian 82(TM) system (copyright 1983,
 Carnegie Mellon University). Gaussian is a federally registered
 trademark of Gaussian, Inc.
  
 This software contains proprietary and confidential information,
 including trade secrets, belonging to Gaussian, Inc.
  
 This software is provided under written license and may be
 used, copied, transmitted, or stored only in accord with that
 written license.
  
 The following legend is applicable only to US Government
 contracts under FAR:
  
                    RESTRICTED RIGHTS LEGEND
  
 Use, reproduction and disclosure by the US Government is
 subject to restrictions as set forth in subparagraphs (a)
 and (c) of the Commercial Computer Software - Restricted
 Rights clause in FAR 52.227-19.
  
 Gaussian, Inc.
 340 Quinnipiac St., Bldg. 40, Wallingford CT 06492
  
  
 ---------------------------------------------------------------
 Warning -- This program may not be used in any manner that
 competes with the business of Gaussian, Inc. or will provide
 assistance to any competitor of Gaussian, Inc.  The licensee
 of this program is prohibited from giving any competitor of
 Gaussian, Inc. access to this program.  By using this program,
 the user acknowledges that Gaussian, Inc. is engaged in the
 business of creating and licensing software in the field of
 computational chemistry and represents and warrants to the
 licensee that it is not a competitor of Gaussian, Inc. and that
 it will not use this program in any manner prohibited above.
 ---------------------------------------------------------------
  

 Cite this work as:
 Gaussian 16, Revision A.03,
 M. J. Frisch, G. W. Trucks, H. B. Schlegel, G. E. Scuseria, 
 M. A. Robb, J. R. Cheeseman, G. Scalmani, V. Barone, 
 G. A. Petersson, H. Nakatsuji, X. Li, M. Caricato, A. V. Marenich, 
 J. Bloino, B. G. Janesko, R. Gomperts, B. Mennucci, H. P. Hratchian, 
 J. V. Ortiz, A. F. Izmaylov, J. L. Sonnenberg, D. Williams-Young, 
 F. Ding, F. Lipparini, F. Egidi, J. Goings, B. Peng, A. Petrone, 
 T. Henderson, D. Ranasinghe, V. G. Zakrzewski, J. Gao, N. Rega, 
 G. Zheng, W. Liang, M. Hada, M. Ehara, K. Toyota, R. Fukuda, 
 J. Hasegawa, M. Ishida, T. Nakajima, Y. Honda, O. Kitao, H. Nakai, 
 T. Vreven, K. Throssell, J. A. Montgomery, Jr., J. E. Peralta, 
 F. Ogliaro, M. J. Bearpark, J. J. Heyd, E. N. Brothers, K. N. Kudin, 
 V. N. Staroverov, T. A. Keith, R. Kobayashi, J. Normand, 
 K. Raghavachari, A. P. Rendell, J. C. Burant, S. S. Iyengar, 
 J. Tomasi, M. Cossi, J. M. Millam, M. Klene, C. Adamo, R. Cammi, 
 J. W. Ochterski, R. L. Martin, K. Morokuma, O. Farkas, 
 J. B. Foresman, and D. J. Fox, Gaussian, Inc., Wallingford CT, 2016.
 
 ******************************************
 Gaussian 16:  ES64L-G16RevA.03 25-Dec-2016
                27-May-2023 
 ******************************************
 %chk=CdCCC1dCCCCdCCdCCqCrC1.chk
 %NProcShared=20
 Will use up to   20 processors via shared memory.
 -----------------------------
 # opt freq b3lyp/6-31g(2df,p)
 -----------------------------
 1/18=20,19=15,26=3,38=1/1,3;
 2/9=110,12=2,17=6,18=5,40=1/2;
 3/5=1,6=6,7=104,11=2,25=1,30=1,71=1,74=-5/1,2,3;
 4//1;
 5/5=2,38=5/2;
 6/7=2,8=2,9=2,10=2,28=1/1;
 7//1,2,3,16;
 1/18=20,19=15,26=3/3(2);
 2/9=110/2;
 99//99;
 2/9=110/2;
 3/5=1,6=6,7=104,11=2,25=1,30=1,71=1,74=-5/1,2,3;
 4/5=5,16=3,69=1/1;
 5/5=2,38=5/2;
 7//1,2,3,16;
 1/18=20,19=15,26=3/3(-5);
 2/9=110/2;
 6/7=2,8=2,9=2,10=2,19=2,28=1/1;
 99/9=1/99;
 -------------------
 Title Card Required
 -------------------
 Symbolic Z-matrix:
 Charge =  0 Multiplicity = 1
 C                     1.19087   0.07581  -0.04138 
 C                     2.62936   0.06503  -0.05573 
 C                     4.18124   0.8179    0.86964 
 C                     6.36888   0.77759   0.85884 
 C                     5.71556   1.47976   1.8542 
 C                     6.99481   1.45992   1.66225 
 C                     7.69393   2.20587   2.59784 
 C                     9.0561    2.13572   2.45531 
 C                     9.86794   2.71388   3.20226 
 C                     11.02793   2.16698   2.50253 
 C                     11.91544   2.78539   3.33432 
 C                     10.98358   1.63423   2.0972 
 C                     12.84799   2.58623   3.11627 
 C                     8.68252   0.91215   1.12979 
 H                     0.54892  -0.51143  -0.77061 
 H                     0.53594   0.63139   0.64885 
 H                     2.97468  -0.56075  -0.83211 
 H                     3.23049   0.53866   1.90011 
 H                     3.22955   1.87697   0.82472 
 H                     4.98376   2.0515    2.33323 
 H                     7.28028   2.04328   0.38524 
 H                     7.26136   0.08854   2.01154 
 H                     7.5031    1.68676   3.4782 
 H                     7.49646   3.17256   2.28368 
 H                     9.83612   1.43817   1.43605 
 H                     9.75503   3.3116    3.98436 
 H                     12.10258   1.30929   1.43564 
 H                     11.89365   3.5567    4.28599 
 H                     12.63107   1.91548   2.28776 
 H                     13.39657   3.53914   4.27384 
 H                     14.10253   3.51881   3.20474 
 H                     14.10949   2.50335   4.02851 
 H                     7.78974  -0.12392   0.5546 
 H                     7.81089   0.61195  -0.05857 
 
 Add virtual bond connecting atoms H34        and H33        Dist= 1.81D+00.
 Add virtual bond connecting atoms H29        and H27        Dist= 2.21D+00.
 Add virtual bond connecting atoms H32        and H30        Dist= 2.42D+00.
 Add virtual bond connecting atoms H31        and H30        Dist= 2.42D+00.
 Add virtual bond connecting atoms H31        and H32        Dist= 2.47D+00.
 Add virtual bond connecting atoms H25        and C14        Dist= 2.46D+00.
 Add virtual bond connecting atoms H25        and C8         Dist= 2.76D+00.
 Add virtual bond connecting atoms H25        and C12        Dist= 2.53D+00.
 Add virtual bond connecting atoms H19        and C3         Dist= 2.69D+00.
 Add virtual bond connecting atoms H18        and C3         Dist= 2.70D+00.
 Add virtual bond connecting atoms H21        and C6         Dist= 2.71D+00.
 Add virtual bond connecting atoms H22        and C6         Dist= 2.72D+00.
 Add virtual bond connecting atoms H33        and C14        Dist= 2.80D+00.
 Add virtual bond connecting atoms H33        and H22        Dist= 2.96D+00.
 Add virtual bond connecting atoms H34        and C14        Dist= 2.84D+00.
 Add virtual bond connecting atoms H34        and H21        Dist= 3.00D+00.
 Add virtual bond connecting atoms H30        and C13        Dist= 3.02D+00.
 Add virtual bond connecting atoms H30        and H28        Dist= 2.84D+00.
 Add virtual bond connecting atoms H31        and C13        Dist= 2.96D+00.
 Add virtual bond connecting atoms H32        and C13        Dist= 2.95D+00.
 Add virtual bond connecting atoms C5         and C3         Dist= 3.67D+00.
 Add virtual bond connecting atoms H20        and C3         Dist= 3.92D+00.
 Add virtual bond connecting atoms C3         and C2         Dist= 3.70D+00.
 Add virtual bond connecting atoms H18        and C2         Dist= 3.97D+00.
 Add virtual bond connecting atoms H19        and C2         Dist= 3.97D+00.

 GradGradGradGradGradGradGradGradGradGradGradGradGradGradGradGradGradGrad
 Berny optimization.
 Initialization pass.
                           ----------------------------
                           !    Initial Parameters    !
                           ! (Angstroms and Degrees)  !
 --------------------------                            --------------------------
 ! Name  Definition              Value          Derivative Info.                !
 --------------------------------------------------------------------------------
 ! R1    R(1,2)                  1.4386         estimate D2E/DX2                !
 ! R2    R(1,15)                 1.1352         estimate D2E/DX2                !
 ! R3    R(1,16)                 1.1018         estimate D2E/DX2                !
 ! R4    R(2,3)                  1.9574         estimate D2E/DX2                !
 ! R5    R(2,17)                 1.0553         estimate D2E/DX2                !
 ! R6    R(2,18)                 2.1002         estimate D2E/DX2                !
 ! R7    R(2,19)                 2.102          estimate D2E/DX2                !
 ! R8    R(3,5)                  1.9395         estimate D2E/DX2                !
 ! R9    R(3,18)                 1.4296         estimate D2E/DX2                !
 ! R10   R(3,19)                 1.4246         estimate D2E/DX2                !
 ! R11   R(3,20)                 2.0755         estimate D2E/DX2                !
 ! R12   R(4,5)                  1.3822         estimate D2E/DX2                !
 ! R13   R(4,6)                  1.2259         estimate D2E/DX2                !
 ! R14   R(5,6)                  1.2937         estimate D2E/DX2                !
 ! R15   R(5,20)                 1.0449         estimate D2E/DX2                !
 ! R16   R(6,7)                  1.3858         estimate D2E/DX2                !
 ! R17   R(6,21)                 1.4327         estimate D2E/DX2                !
 ! R18   R(6,22)                 1.44           estimate D2E/DX2                !
 ! R19   R(7,8)                  1.3714         estimate D2E/DX2                !
 ! R20   R(7,23)                 1.0397         estimate D2E/DX2                !
 ! R21   R(7,24)                 1.0355         estimate D2E/DX2                !
 ! R22   R(8,9)                  1.2455         estimate D2E/DX2                !
 ! R23   R(8,25)                 1.4608         estimate D2E/DX2                !
 ! R24   R(9,10)                 1.4609         estimate D2E/DX2                !
 ! R25   R(9,26)                 0.9908         estimate D2E/DX2                !
 ! R26   R(10,11)                1.3645         estimate D2E/DX2                !
 ! R27   R(10,12)                0.6709         estimate D2E/DX2                !
 ! R28   R(11,13)                0.9782         estimate D2E/DX2                !
 ! R29   R(11,28)                1.2252         estimate D2E/DX2                !
 ! R30   R(12,25)                1.3387         estimate D2E/DX2                !
 ! R31   R(13,29)                1.0878         estimate D2E/DX2                !
 ! R32   R(13,30)                1.5965         estimate D2E/DX2                !
 ! R33   R(13,31)                1.5657         estimate D2E/DX2                !
 ! R34   R(13,32)                1.559          estimate D2E/DX2                !
 ! R35   R(14,25)                1.3043         estimate D2E/DX2                !
 ! R36   R(14,33)                1.4837         estimate D2E/DX2                !
 ! R37   R(14,34)                1.504          estimate D2E/DX2                !
 ! R38   R(21,34)                1.5897         estimate D2E/DX2                !
 ! R39   R(22,33)                1.5643         estimate D2E/DX2                !
 ! R40   R(27,29)                1.1717         estimate D2E/DX2                !
 ! R41   R(28,30)                1.5031         estimate D2E/DX2                !
 ! R42   R(30,31)                1.2813         estimate D2E/DX2                !
 ! R43   R(30,32)                1.2811         estimate D2E/DX2                !
 ! R44   R(31,32)                1.3076         estimate D2E/DX2                !
 ! R45   R(33,34)                0.9581         estimate D2E/DX2                !
 ! A1    A(2,1,15)             123.7215         estimate D2E/DX2                !
 ! A2    A(2,1,16)             127.1846         estimate D2E/DX2                !
 ! A3    A(15,1,16)            109.0939         estimate D2E/DX2                !
 ! A4    A(1,2,3)              141.7358         estimate D2E/DX2                !
 ! A5    A(1,2,17)             109.8152         estimate D2E/DX2                !
 ! A6    A(1,2,18)             105.9751         estimate D2E/DX2                !
 ! A7    A(1,2,19)             105.9542         estimate D2E/DX2                !
 ! A8    A(3,2,17)             108.4487         estimate D2E/DX2                !
 ! A9    A(17,2,18)            136.4853         estimate D2E/DX2                !
 ! A10   A(17,2,19)            136.5426         estimate D2E/DX2                !
 ! A11   A(18,2,19)             48.2276         estimate D2E/DX2                !
 ! A12   A(2,3,20)             150.2866         estimate D2E/DX2                !
 ! A13   A(5,3,18)             103.1123         estimate D2E/DX2                !
 ! A14   A(5,3,19)             106.9063         estimate D2E/DX2                !
 ! A15   A(18,3,19)             73.9577         estimate D2E/DX2                !
 ! A16   A(18,3,20)             82.2385         estimate D2E/DX2                !
 ! A17   A(19,3,20)             80.7166         estimate D2E/DX2                !
 ! A18   A(3,5,4)               80.503          estimate D2E/DX2                !
 ! A19   A(3,5,6)              134.5635         estimate D2E/DX2                !
 ! A20   A(4,5,20)             159.8973         estimate D2E/DX2                !
 ! A21   A(6,5,20)             140.2557         estimate D2E/DX2                !
 ! A22   A(4,6,21)              75.1801         estimate D2E/DX2                !
 ! A23   A(4,6,22)              73.9436         estimate D2E/DX2                !
 ! A24   A(5,6,7)              112.9801         estimate D2E/DX2                !
 ! A25   A(5,6,21)             108.8464         estimate D2E/DX2                !
 ! A26   A(5,6,22)              99.3023         estimate D2E/DX2                !
 ! A27   A(7,6,21)             106.3834         estimate D2E/DX2                !
 ! A28   A(7,6,22)             104.8016         estimate D2E/DX2                !
 ! A29   A(21,6,22)            124.5472         estimate D2E/DX2                !
 ! A30   A(6,7,8)              113.7898         estimate D2E/DX2                !
 ! A31   A(6,7,23)             102.1403         estimate D2E/DX2                !
 ! A32   A(6,7,24)             101.6236         estimate D2E/DX2                !
 ! A33   A(8,7,23)             104.1686         estimate D2E/DX2                !
 ! A34   A(8,7,24)             101.8673         estimate D2E/DX2                !
 ! A35   A(23,7,24)            133.4754         estimate D2E/DX2                !
 ! A36   A(7,8,9)              124.1495         estimate D2E/DX2                !
 ! A37   A(7,8,25)             128.8527         estimate D2E/DX2                !
 ! A38   A(9,8,25)             106.9813         estimate D2E/DX2                !
 ! A39   A(8,9,10)              93.2408         estimate D2E/DX2                !
 ! A40   A(8,9,26)             132.7768         estimate D2E/DX2                !
 ! A41   A(10,9,26)            133.9787         estimate D2E/DX2                !
 ! A42   A(9,10,11)             93.142          estimate D2E/DX2                !
 ! A43   A(9,10,12)            122.2872         estimate D2E/DX2                !
 ! A44   A(11,10,12)           140.4594         estimate D2E/DX2                !
 ! A45   A(10,11,13)           113.0733         estimate D2E/DX2                !
 ! A46   A(10,11,28)           138.3514         estimate D2E/DX2                !
 ! A47   A(13,11,28)           108.5589         estimate D2E/DX2                !
 ! A48   A(10,12,25)           118.1211         estimate D2E/DX2                !
 ! A49   A(11,13,29)            96.0392         estimate D2E/DX2                !
 ! A50   A(11,13,30)            92.5465         estimate D2E/DX2                !
 ! A51   A(11,13,31)           129.0511         estimate D2E/DX2                !
 ! A52   A(11,13,32)           130.6783         estimate D2E/DX2                !
 ! A53   A(29,13,31)           124.7553         estimate D2E/DX2                !
 ! A54   A(29,13,32)           125.0459         estimate D2E/DX2                !
 ! A55   A(25,14,33)           154.8011         estimate D2E/DX2                !
 ! A56   A(25,14,34)           141.1309         estimate D2E/DX2                !
 ! A57   A(6,21,34)             87.0615         estimate D2E/DX2                !
 ! A58   A(6,22,33)             88.049          estimate D2E/DX2                !
 ! A59   A(8,25,12)             92.4734         estimate D2E/DX2                !
 ! A60   A(8,25,14)             83.347          estimate D2E/DX2                !
 ! A61   A(12,25,14)           158.9216         estimate D2E/DX2                !
 ! A62   A(11,28,30)            88.1996         estimate D2E/DX2                !
 ! A63   A(13,29,27)           164.3282         estimate D2E/DX2                !
 ! A64   A(13,30,28)            70.6865         estimate D2E/DX2                !
 ! A65   A(28,30,31)           123.9065         estimate D2E/DX2                !
 ! A66   A(28,30,32)           124.57           estimate D2E/DX2                !
 ! A67   A(14,33,22)            75.3648         estimate D2E/DX2                !
 ! A68   A(22,33,34)           119.948          estimate D2E/DX2                !
 ! A69   A(14,34,21)            78.0616         estimate D2E/DX2                !
 ! A70   A(21,34,33)           120.3644         estimate D2E/DX2                !
 ! A71   L(2,3,5,18,-1)        177.9457         estimate D2E/DX2                !
 ! A72   L(4,6,7,21,-1)        181.5634         estimate D2E/DX2                !
 ! A73   L(29,13,30,11,-1)     188.5857         estimate D2E/DX2                !
 ! A74   L(2,3,5,18,-2)        177.4816         estimate D2E/DX2                !
 ! A75   L(4,6,7,21,-2)        180.2567         estimate D2E/DX2                !
 ! A76   L(29,13,30,11,-2)     180.5949         estimate D2E/DX2                !
 ! D1    D(15,1,2,3)           179.7317         estimate D2E/DX2                !
 ! D2    D(15,1,2,17)           -0.0504         estimate D2E/DX2                !
 ! D3    D(15,1,2,18)         -154.8675         estimate D2E/DX2                !
 ! D4    D(15,1,2,19)          154.8388         estimate D2E/DX2                !
 ! D5    D(16,1,2,3)            -0.2469         estimate D2E/DX2                !
 ! D6    D(16,1,2,17)          179.971          estimate D2E/DX2                !
 ! D7    D(16,1,2,18)           25.1539         estimate D2E/DX2                !
 ! D8    D(16,1,2,19)          -25.1398         estimate D2E/DX2                !
 ! D9    D(1,2,3,20)            -1.8957         estimate D2E/DX2                !
 ! D10   D(17,2,3,20)          177.8881         estimate D2E/DX2                !
 ! D11   D(1,2,5,4)           -178.8066         estimate D2E/DX2                !
 ! D12   D(1,2,5,6)           -173.8405         estimate D2E/DX2                !
 ! D13   D(17,2,5,4)             3.5183         estimate D2E/DX2                !
 ! D14   D(17,2,5,6)             8.4844         estimate D2E/DX2                !
 ! D15   D(18,3,5,4)           143.4426         estimate D2E/DX2                !
 ! D16   D(18,3,5,6)           150.2377         estimate D2E/DX2                !
 ! D17   D(19,3,5,4)          -139.6051         estimate D2E/DX2                !
 ! D18   D(19,3,5,6)          -132.8101         estimate D2E/DX2                !
 ! D19   D(3,5,6,7)            173.3679         estimate D2E/DX2                !
 ! D20   D(3,5,6,21)            55.4322         estimate D2E/DX2                !
 ! D21   D(3,5,6,22)           -76.1048         estimate D2E/DX2                !
 ! D22   D(20,5,6,7)            20.6253         estimate D2E/DX2                !
 ! D23   D(20,5,6,21)          -97.3104         estimate D2E/DX2                !
 ! D24   D(20,5,6,22)          131.1526         estimate D2E/DX2                !
 ! D25   D(5,6,7,8)            176.5362         estimate D2E/DX2                !
 ! D26   D(5,6,7,23)            64.9157         estimate D2E/DX2                !
 ! D27   D(5,6,7,24)           -74.7931         estimate D2E/DX2                !
 ! D28   D(21,6,7,8)           -64.0967         estimate D2E/DX2                !
 ! D29   D(21,6,7,23)         -175.7172         estimate D2E/DX2                !
 ! D30   D(21,6,7,24)           44.574          estimate D2E/DX2                !
 ! D31   D(22,6,7,8)            69.459          estimate D2E/DX2                !
 ! D32   D(22,6,7,23)          -42.1615         estimate D2E/DX2                !
 ! D33   D(22,6,7,24)          178.1297         estimate D2E/DX2                !
 ! D34   D(4,6,21,34)          -56.932          estimate D2E/DX2                !
 ! D35   D(5,6,21,34)         -115.1603         estimate D2E/DX2                !
 ! D36   D(7,6,21,34)          122.8113         estimate D2E/DX2                !
 ! D37   D(22,6,21,34)           1.0951         estimate D2E/DX2                !
 ! D38   D(4,6,22,33)           57.0108         estimate D2E/DX2                !
 ! D39   D(5,6,22,33)          119.1074         estimate D2E/DX2                !
 ! D40   D(7,6,22,33)         -123.9901         estimate D2E/DX2                !
 ! D41   D(21,6,22,33)          -1.5693         estimate D2E/DX2                !
 ! D42   D(6,7,8,9)           -178.9064         estimate D2E/DX2                !
 ! D43   D(6,7,8,25)             2.7652         estimate D2E/DX2                !
 ! D44   D(23,7,8,9)           -68.5207         estimate D2E/DX2                !
 ! D45   D(23,7,8,25)          113.1509         estimate D2E/DX2                !
 ! D46   D(24,7,8,9)            72.5735         estimate D2E/DX2                !
 ! D47   D(24,7,8,25)         -105.7548         estimate D2E/DX2                !
 ! D48   D(7,8,9,10)           178.2317         estimate D2E/DX2                !
 ! D49   D(7,8,9,26)            -1.1275         estimate D2E/DX2                !
 ! D50   D(25,8,9,10)           -3.1293         estimate D2E/DX2                !
 ! D51   D(25,8,9,26)          177.5114         estimate D2E/DX2                !
 ! D52   D(7,8,25,12)         -169.6842         estimate D2E/DX2                !
 ! D53   D(7,8,25,14)          -10.4152         estimate D2E/DX2                !
 ! D54   D(9,8,25,12)           11.7622         estimate D2E/DX2                !
 ! D55   D(9,8,25,14)          171.0312         estimate D2E/DX2                !
 ! D56   D(8,9,10,11)         -179.1544         estimate D2E/DX2                !
 ! D57   D(8,9,10,12)          -17.6626         estimate D2E/DX2                !
 ! D58   D(26,9,10,11)           0.192          estimate D2E/DX2                !
 ! D59   D(26,9,10,12)         161.6838         estimate D2E/DX2                !
 ! D60   D(9,10,11,13)         178.9476         estimate D2E/DX2                !
 ! D61   D(9,10,11,28)          -2.763          estimate D2E/DX2                !
 ! D62   D(12,10,11,13)         23.879          estimate D2E/DX2                !
 ! D63   D(12,10,11,28)       -157.8316         estimate D2E/DX2                !
 ! D64   D(9,10,12,25)          30.719          estimate D2E/DX2                !
 ! D65   D(11,10,12,25)       -179.1409         estimate D2E/DX2                !
 ! D66   D(10,11,13,29)         -1.4034         estimate D2E/DX2                !
 ! D67   D(10,11,13,30)        178.0018         estimate D2E/DX2                !
 ! D68   D(10,11,13,31)        144.0842         estimate D2E/DX2                !
 ! D69   D(10,11,13,32)       -149.8702         estimate D2E/DX2                !
 ! D70   D(28,11,13,29)        179.7957         estimate D2E/DX2                !
 ! D71   D(28,11,13,30)         -0.7991         estimate D2E/DX2                !
 ! D72   D(28,11,13,31)        -34.7167         estimate D2E/DX2                !
 ! D73   D(28,11,13,32)         31.3289         estimate D2E/DX2                !
 ! D74   D(10,11,28,30)       -177.4915         estimate D2E/DX2                !
 ! D75   D(13,11,28,30)          0.8484         estimate D2E/DX2                !
 ! D76   D(10,12,25,8)         -26.8985         estimate D2E/DX2                !
 ! D77   D(10,12,25,14)       -104.7544         estimate D2E/DX2                !
 ! D78   D(11,13,29,27)         10.8211         estimate D2E/DX2                !
 ! D79   D(31,13,29,27)       -136.7979         estimate D2E/DX2                !
 ! D80   D(32,13,29,27)        161.8438         estimate D2E/DX2                !
 ! D81   D(27,29,30,28)         18.3642         estimate D2E/DX2                !
 ! D82   D(11,13,30,28)          0.6543         estimate D2E/DX2                !
 ! D83   D(33,14,25,8)        -156.3832         estimate D2E/DX2                !
 ! D84   D(33,14,25,12)        -76.8587         estimate D2E/DX2                !
 ! D85   D(34,14,25,8)         133.2854         estimate D2E/DX2                !
 ! D86   D(34,14,25,12)       -147.19           estimate D2E/DX2                !
 ! D87   D(25,14,33,22)        128.0491         estimate D2E/DX2                !
 ! D88   D(25,14,34,21)        -92.577          estimate D2E/DX2                !
 ! D89   D(6,21,34,14)         -57.9754         estimate D2E/DX2                !
 ! D90   D(6,21,34,33)           0.2799         estimate D2E/DX2                !
 ! D91   D(6,22,33,14)          61.0413         estimate D2E/DX2                !
 ! D92   D(6,22,33,34)           1.7117         estimate D2E/DX2                !
 ! D93   D(11,28,30,13)         -0.5222         estimate D2E/DX2                !
 ! D94   D(11,28,30,31)         38.3703         estimate D2E/DX2                !
 ! D95   D(11,28,30,32)        -37.8587         estimate D2E/DX2                !
 ! D96   D(32,30,31,13)         73.4369         estimate D2E/DX2                !
 ! D97   D(22,33,34,21)         -1.4096         estimate D2E/DX2                !
 --------------------------------------------------------------------------------
 Trust Radius=3.00D-01 FncErr=1.00D-07 GrdErr=1.00D-06 EigMax=2.50D+02 EigMin=1.00D-04
 Number of steps in this run=    204 maximum allowed number of steps=    204.
 GradGradGradGradGradGradGradGradGradGradGradGradGradGradGradGradGradGrad

                          Input orientation:                          
 ---------------------------------------------------------------------
 Center     Atomic      Atomic             Coordinates (Angstroms)
 Number     Number       Type             X           Y           Z
 ---------------------------------------------------------------------
      1          6           0        1.190870    0.075810   -0.041380
      2          6           0        2.629360    0.065030   -0.055730
      3          6           0        4.181240    0.817900    0.869640
      4          6           0        6.368880    0.777590    0.858840
      5          6           0        5.715560    1.479760    1.854200
      6          6           0        6.994810    1.459920    1.662250
      7          6           0        7.693930    2.205870    2.597840
      8          6           0        9.056100    2.135720    2.455310
      9          6           0        9.867940    2.713880    3.202260
     10          6           0       11.027930    2.166980    2.502530
     11          6           0       11.915440    2.785390    3.334320
     12          6           0       10.983580    1.634230    2.097200
     13          6           0       12.847990    2.586230    3.116270
     14          6           0        8.682520    0.912150    1.129790
     15          1           0        0.548920   -0.511430   -0.770610
     16          1           0        0.535940    0.631390    0.648850
     17          1           0        2.974680   -0.560750   -0.832110
     18          1           0        3.230490    0.538660    1.900110
     19          1           0        3.229550    1.876970    0.824720
     20          1           0        4.983760    2.051500    2.333230
     21          1           0        7.280280    2.043280    0.385240
     22          1           0        7.261360    0.088540    2.011540
     23          1           0        7.503100    1.686760    3.478200
     24          1           0        7.496460    3.172560    2.283680
     25          1           0        9.836120    1.438170    1.436050
     26          1           0        9.755030    3.311600    3.984360
     27          1           0       12.102580    1.309290    1.435640
     28          1           0       11.893650    3.556700    4.285990
     29          1           0       12.631070    1.915480    2.287760
     30          1           0       13.396570    3.539140    4.273840
     31          1           0       14.102530    3.518810    3.204740
     32          1           0       14.109490    2.503350    4.028510
     33          1           0        7.789740   -0.123920    0.554600
     34          1           0        7.810890    0.611950   -0.058570
 ---------------------------------------------------------------------
                    Distance matrix (angstroms):
                    1          2          3          4          5
     1  C    0.000000
     2  C    1.438602   0.000000
     3  C    3.212938   1.957410   0.000000
     4  C    5.302328   3.915123   2.188038   0.000000
     5  C    5.102658   3.895372   1.939473   1.382249   0.000000
     6  C    6.205146   4.894316   2.992757   1.225900   1.293723
     7  C    7.334332   6.105285   4.153568   2.611487   2.234767
     8  C    8.505206   7.203892   5.292944   3.407988   3.456996
     9  C    9.631830   8.368270   6.432295   4.635111   4.536803
    10  C   10.373631   9.027672   7.166834   5.132141   5.395728
    11  C   11.565188  10.253003   8.352456   6.397155   6.506453
    12  C   10.143932   8.768722   6.960253   4.854155   5.275883
    13  C   12.335372  10.992654   9.126165   7.095494   7.327254
    14  C    7.628625   6.226059   4.509776   2.333335   3.106413
    15  H    1.135221   2.274113   4.201343   6.179694   6.127694
    16  H    1.101826   2.280264   3.656740   5.838549   5.385264
    17  H    2.052423   1.055278   2.500483   4.021326   4.346535
    18  H    2.853710   2.100236   1.429604   3.315241   2.657696
    19  H    2.854912   2.102034   1.424556   3.326439   2.719899
    20  H    4.891640   3.898255   2.075549   2.390655   1.044934
    21  H    6.413568   5.073360   3.367529   1.630006   2.218952
    22  H    6.408236   5.072434   3.364973   1.612460   2.085605
    23  H    7.404516   6.234742   4.312106   2.995679   2.423948
    24  H    7.399745   6.230429   4.305185   3.006241   2.494319
    25  H    8.875763   7.486542   5.716924   3.576491   4.141931
    26  H   10.001088   8.811227   6.854718   5.258906   4.920420
    27  H   11.080094   9.670277   7.956723   5.787117   6.402990
    28  H   12.057870  10.810613   8.868694   7.070495   6.956729
    29  H   11.818945  10.437927   8.638019   6.523161   6.942774
    30  H   13.401302  12.113935  10.193921   8.287147   8.312257
    31  H   13.751455  12.417443  10.544174   8.533866   8.736301
    32  H   13.760367  12.426577  10.554115   8.540615   8.731175
    33  H    6.628738   5.199781   3.742666   1.710007   2.926256
    34  H    6.641717   5.210315   3.752113   1.717111   2.966849
                    6          7          8          9         10
     6  C    0.000000
     7  C    1.385835   0.000000
     8  C    2.309668   1.371402   0.000000
     9  C    3.492696   2.312946   1.245507   0.000000
    10  C    4.179959   3.335589   1.972643   1.460924   0.000000
    11  C    5.363328   4.324279   3.061136   2.053000   1.364544
    12  C    4.016199   3.376272   2.023589   1.905638   0.670881
    13  C    6.135346   5.194014   3.875340   2.984022   1.965977
    14  C    1.852547   2.192303   1.842197   2.991084   2.993319
    15  H    7.166207   8.353523   9.475551  10.631578  11.300309
    16  H    6.590178   7.583823   8.838520   9.896610  10.764572
    17  H    5.144549   6.456784   7.420360   8.632287   9.133191
    18  H    3.882706   4.815466   6.066018   7.105133   7.988392
    19  H    3.879764   4.814854   6.055944   7.100798   7.982098
    20  H    2.201023   2.727429   4.075040   5.004915   6.047643
    21  H    1.432675   2.256799   2.728969   3.883464   4.306170
    22  H    1.440047   2.239185   2.758436   3.886449   4.329900
    23  H    1.899339   1.039675   1.913028   2.592988   3.688763
    24  H    1.889699   1.035461   1.880684   2.584201   3.678365
    25  H    2.850383   2.555014   1.460787   2.178978   1.757542
    26  H    4.054593   2.719046   2.051631   0.990807   2.264122
    27  H    5.115013   4.646586   3.317191   3.176072   1.740333
    28  H    5.939624   4.723583   3.663641   2.447104   2.421058
    29  H    5.689132   4.955384   3.585664   3.018052   1.636898
    30  H    7.219840   6.091526   4.910837   3.778964   3.260493
    31  H    7.558967   6.569802   5.285928   4.310414   3.431284
    32  H    7.570113   6.579872   5.305361   4.326402   3.455108
    33  H    2.089821   3.100311   3.212840   4.402514   4.419109
    34  H    2.084769   3.100125   3.192494   4.391193   4.396214
                   11         12         13         14         15
    11  C    0.000000
    12  C    1.929766   0.000000
    13  C    0.978192   2.328268   0.000000
    14  C    4.338289   2.598492   4.909153   0.000000
    15  H   12.526662  11.032240  13.265386   8.473107   0.000000
    16  H   11.888839  10.595121  12.708113   8.165592   1.822381
    17  H   10.415996   8.805752  11.089429   6.212723   2.427041
    18  H    9.084774   7.832594   9.907971   5.518833   3.927627
    19  H    9.086694   7.861495   9.913054   5.546064   3.928780
    20  H    7.041943   6.018942   7.921187   4.053050   5.989177
    21  H    5.543691   4.100312   6.225168   1.949381   7.292033
    22  H    5.539243   4.031305   6.218466   1.864273   7.290897
    23  H    4.549333   3.744818   5.432116   2.739723   8.440678
    24  H    4.558632   3.815919   5.447556   2.801366   8.436159
    25  H    3.121218   1.338739   3.634906   1.304333   9.742811
    26  H    2.316640   2.807896   3.293348   3.880233  11.044354
    27  H    2.412235   1.339929   2.238466   3.456599  11.902505
    28  H    1.225182   3.052035   1.794665   5.221743  13.069881
    29  H    1.537582   1.682153   1.087837   4.235400  12.697317
    30  H    1.909079   3.766824   1.596542   6.245670  14.384565
    31  H    2.310424   3.808692   1.565696   6.362122  14.688315
    32  H    2.318470   3.775797   1.558985   6.355037  14.697262
    33  H    5.763014   3.958702   6.284342   1.483692   7.371283
    34  H    5.751771   3.969680   6.272939   1.504014   7.382763
                   16         17         18         19         20
    16  H    0.000000
    17  H    3.092231   0.000000
    18  H    2.972348   2.956208   0.000000
    19  H    2.972866   2.958466   1.716840   0.000000
    20  H    4.963562   4.569423   2.355893   2.320197   0.000000
    21  H    6.895582   5.176978   4.578156   4.077893   3.011434
    22  H    6.883523   5.184935   4.057455   4.567550   3.023931
    23  H    7.593441   6.643543   4.697201   5.033921   2.791248
    24  H    7.588086   6.640199   5.028226   4.691869   2.751889
    25  H    9.368240   7.497972   6.682725   6.649288   4.972575
    26  H   10.163699   9.174237   7.389379   7.390763   5.203758
    27  H   11.613171   9.589489   8.917600   8.912135   7.213469
    28  H   12.279406  11.076839   9.478994   9.479900   7.336585
    29  H   12.273023  10.445629   9.508775   9.514754   7.648655
    30  H   13.674479  12.308355  10.862166  10.864048   8.760960
    31  H   14.103976  12.520703  11.348331  11.250859   9.277095
    32  H   14.112675  12.529897  11.258008  11.359125   9.292852
    33  H    7.293627   5.029770   4.799601   4.987169   3.971083
    34  H    7.309290   5.036121   4.982154   4.834165   3.973119
                   21         22         23         24         25
    21  H    0.000000
    22  H    2.542876   0.000000
    23  H    3.121403   2.182622   0.000000
    24  H    2.219478   3.104917   1.906443   0.000000
    25  H    2.828900   2.963457   3.110491   3.033248   0.000000
    26  H    4.548262   4.527530   2.822675   2.830686   3.163890
    27  H    4.989655   5.025863   5.046757   5.040564   2.270121
    28  H    6.228120   6.217666   4.840055   4.846864   4.104115
    29  H    5.680393   5.678714   5.269301   5.286254   2.960571
    30  H    7.400528   7.393608   6.228751   6.237501   5.014372
    31  H    7.527939   7.745456   6.854463   6.678952   5.065529
    32  H    7.753914   7.536336   6.679375   6.872004   5.110494
    33  H    2.232709   1.564289   3.450820   3.733967   2.721167
    34  H    1.589723   2.204835   3.709271   3.484498   2.649167
                   26         27         28         29         30
    26  H    0.000000
    27  H    4.002026   0.000000
    28  H    2.173649   3.635794   0.000000
    29  H    3.619283   1.171698   2.688924   0.000000
    30  H    3.660107   3.834321   1.503072   2.677083   0.000000
    31  H    4.421708   3.465760   2.459611   2.361507   1.281315
    32  H    4.429056   3.489476   2.466939   2.358289   1.281133
    33  H    5.237215   4.629353   6.656749   5.531860   7.660763
    34  H    5.235750   4.597559   6.649487   5.517118   7.651016
                   31         32         33         34
    31  H    0.000000
    32  H    1.307595   0.000000
    33  H    7.755259   7.675274   0.000000
    34  H    7.660533   7.742995   0.958086   0.000000
 Stoichiometry    C14H20
 Framework group  C1[X(C14H20)]
 Deg. of freedom    96
 Full point group                 C1      NOp   1
 Largest Abelian subgroup         C1      NOp   1
 Largest concise Abelian subgroup C1      NOp   1
                         Standard orientation:                         
 ---------------------------------------------------------------------
 Center     Atomic      Atomic             Coordinates (Angstroms)
 Number     Number       Type             X           Y           Z
 ---------------------------------------------------------------------
      1          6           0       -7.051696   -0.088662    0.006544
      2          6           0       -5.711838    0.434996    0.018391
      3          6           0       -3.839095   -0.134454    0.014681
      4          6           0       -1.803696    0.668419    0.007277
      5          6           0       -1.986573   -0.697708   -0.096952
      6          6           0       -0.846572   -0.097457    0.020593
      7          6           0        0.229419   -0.970553   -0.001453
      8          6           0        1.449517   -0.346204    0.046429
      9          6           0        2.542128   -0.943403    0.017411
     10          6           0        3.314689    0.295963    0.055114
     11          6           0        4.510318   -0.359591    0.003168
     12          6           0        3.044269    0.891495   -0.094206
     13          6           0        5.279155    0.245151   -0.002800
     14          6           0        0.465649    1.208538   -0.045603
     15          1           0       -7.982448    0.561171    0.018524
     16          1           0       -7.352305   -1.148477   -0.014573
     17          1           0       -5.740138    1.489702    0.038517
     18          1           0       -4.507031   -1.039686   -0.867467
     19          1           0       -4.508575   -1.075231    0.849004
     20          1           0       -2.413634   -1.643014    0.029149
     21          1           0       -0.801971    0.566898    1.289135
     22          1           0       -0.803422    0.571840   -1.253736
     23          1           0        0.178476   -1.356043   -0.965677
     24          1           0        0.171355   -1.397036    0.940312
     25          1           0        1.745410    1.078911    0.170488
     26          1           0        2.783310   -1.903419   -0.026151
     27          1           0        3.837901    1.955438    0.089051
     28          1           0        4.921674   -1.513506   -0.015198
     29          1           0        4.700446    1.166165    0.011968
     30          1           0        6.320937   -0.964639   -0.009476
     31          1           0        6.683123    0.062370    0.665684
     32          1           0        6.692286    0.085950   -0.641666
     33          1           0       -0.756431    1.929834   -0.478723
     34          1           0       -0.743016    1.933592    0.479262
 ---------------------------------------------------------------------
 Rotational constants (GHZ):           4.5889832           0.1943795           0.1876244
 Standard basis: 6-31G(2df,p) (6D, 7F)
 There are   534 symmetry adapted cartesian basis functions of A   symmetry.
 There are   492 symmetry adapted basis functions of A   symmetry.
   492 basis functions,   756 primitive gaussians,   534 cartesian basis functions
    52 alpha electrons       52 beta electrons
       nuclear repulsion energy       855.3276002701 Hartrees.
 NAtoms=   34 NActive=   34 NUniq=   34 SFac= 1.00D+00 NAtFMM=   60 NAOKFM=F Big=F
 Integral buffers will be    131072 words long.
 Raffenetti 2 integral format.
 Two-electron integral symmetry is turned on.
 One-electron integrals computed using PRISM.
 PrsmSu:  requested number of processors reduced to:  12 ShMem   1 Linda.
 NBasis=   492 RedAO= T EigKep=  1.57D-05  NBF=   492
 NBsUse=   492 1.00D-06 EigRej= -1.00D+00 NBFU=   492
 ExpMin= 1.61D-01 ExpMax= 3.05D+03 ExpMxC= 4.57D+02 IAcc=3 IRadAn=         5 AccDes= 0.00D+00
 Harris functional with IExCor=  402 and IRadAn=       5 diagonalized for initial guess.
 HarFok:  IExCor=  402 AccDes= 0.00D+00 IRadAn=         5 IDoV= 1 UseB2=F ITyADJ=14
 ICtDFT=  3500011 ScaDFX=  1.000000  1.000000  1.000000  1.000000
 FoFCou: FMM=F IPFlag=           0 FMFlag=      100000 FMFlg1=           0
         NFxFlg=           0 DoJE=T BraDBF=F KetDBF=T FulRan=T
         wScrn=  0.000000 ICntrl=       500 IOpCl=  0 I1Cent=   200000004 NGrid=           0
         NMat0=    1 NMatS0=      1 NMatT0=    0 NMatD0=    1 NMtDS0=    0 NMtDT0=    0
 Petite list used in FoFCou.
 Requested convergence on RMS density matrix=1.00D-08 within 128 cycles.
 Requested convergence on MAX density matrix=1.00D-06.
 Requested convergence on             energy=1.00D-06.
 No special actions if energy rises.
 Integral accuracy reduced to 1.0D-05 until final iterations.
 EnCoef did     6 forward-backward iterations
 EnCoef did   100 forward-backward iterations
 EnCoef did   100 forward-backward iterations
 EnCoef did    25 forward-backward iterations
 EnCoef did     4 forward-backward iterations
 EnCoef did     4 forward-backward iterations
 EnCoef did     1 forward-backward iterations
 EnCoef did     5 forward-backward iterations
 EnCoef did     1 forward-backward iterations
 EnCoef did     1 forward-backward iterations
 Initial convergence to 2.2D-05 achieved.  Increase integral accuracy.
 EnCoef did     9 forward-backward iterations
 SCF Done:  E(RB3LYP) =  -541.064869668     A.U. after   39 cycles
            NFock= 39  Conv=0.94D-09     -V/T= 1.9831

 **********************************************************************

            Population analysis using the SCF density.

 **********************************************************************

 Orbital symmetries:
       Occupied  (A) (A) (A) (A) (A) (A) (A) (A) (A) (A) (A) (A)
                 (A) (A) (A) (A) (A) (A) (A) (A) (A) (A) (A) (A)
                 (A) (A) (A) (A) (A) (A) (A) (A) (A) (A) (A) (A)
                 (A) (A) (A) (A) (A) (A) (A) (A) (A) (A) (A) (A)
                 (A) (A) (A) (A)
       Virtual   (A) (A) (A) (A) (A) (A) (A) (A) (A) (A) (A) (A)
                 (A) (A) (A) (A) (A) (A) (A) (A) (A) (A) (A) (A)
                 (A) (A) (A) (A) (A) (A) (A) (A) (A) (A) (A) (A)
                 (A) (A) (A) (A) (A) (A) (A) (A) (A) (A) (A) (A)
                 (A) (A) (A) (A) (A) (A) (A) (A) (A) (A) (A) (A)
                 (A) (A) (A) (A) (A) (A) (A) (A) (A) (A) (A) (A)
                 (A) (A) (A) (A) (A) (A) (A) (A) (A) (A) (A) (A)
                 (A) (A) (A) (A) (A) (A) (A) (A) (A) (A) (A) (A)
                 (A) (A) (A) (A) (A) (A) (A) (A) (A) (A) (A) (A)
                 (A) (A) (A) (A) (A) (A) (A) (A) (A) (A) (A) (A)
                 (A) (A) (A) (A) (A) (A) (A) (A) (A) (A) (A) (A)
                 (A) (A) (A) (A) (A) (A) (A) (A) (A) (A) (A) (A)
                 (A) (A) (A) (A) (A) (A) (A) (A) (A) (A) (A) (A)
                 (A) (A) (A) (A) (A) (A) (A) (A) (A) (A) (A) (A)
                 (A) (A) (A) (A) (A) (A) (A) (A) (A) (A) (A) (A)
                 (A) (A) (A) (A) (A) (A) (A) (A) (A) (A) (A) (A)
                 (A) (A) (A) (A) (A) (A) (A) (A) (A) (A) (A) (A)
                 (A) (A) (A) (A) (A) (A) (A) (A) (A) (A) (A) (A)
                 (A) (A) (A) (A) (A) (A) (A) (A) (A) (A) (A) (A)
                 (A) (A) (A) (A) (A) (A) (A) (A) (A) (A) (A) (A)
                 (A) (A) (A) (A) (A) (A) (A) (A) (A) (A) (A) (A)
                 (A) (A) (A) (A) (A) (A) (A) (A) (A) (A) (A) (A)
                 (A) (A) (A) (A) (A) (A) (A) (A) (A) (A) (A) (A)
                 (A) (A) (A) (A) (A) (A) (A) (A) (A) (A) (A) (A)
                 (A) (A) (A) (A) (A) (A) (A) (A) (A) (A) (A) (A)
                 (A) (A) (A) (A) (A) (A) (A) (A) (A) (A) (A) (A)
                 (A) (A) (A) (A) (A) (A) (A) (A) (A) (A) (A) (A)
                 (A) (A) (A) (A) (A) (A) (A) (A) (A) (A) (A) (A)
                 (A) (A) (A) (A) (A) (A) (A) (A) (A) (A) (A) (A)
                 (A) (A) (A) (A) (A) (A) (A) (A) (A) (A) (A) (A)
                 (A) (A) (A) (A) (A) (A) (A) (A) (A) (A) (A) (A)
                 (A) (A) (A) (A) (A) (A) (A) (A) (A) (A) (A) (A)
                 (A) (A) (A) (A) (A) (A) (A) (A) (A) (A) (A) (A)
                 (A) (A) (A) (A) (A) (A) (A) (A) (A) (A) (A) (A)
                 (A) (A) (A) (A) (A) (A) (A) (A) (A) (A) (A) (A)
                 (A) (A) (A) (A) (A) (A) (A) (A) (A) (A) (A) (A)
                 (A) (A) (A) (A) (A) (A) (A) (A)
 The electronic state is 1-A.
 Alpha  occ. eigenvalues --  -10.40883 -10.29938 -10.27670 -10.27085 -10.26656
 Alpha  occ. eigenvalues --  -10.20885 -10.20528 -10.20382 -10.19776 -10.19089
 Alpha  occ. eigenvalues --  -10.18468 -10.17106 -10.16783 -10.14794  -1.07089
 Alpha  occ. eigenvalues --   -0.97045  -0.92019  -0.85627  -0.77140  -0.74034
 Alpha  occ. eigenvalues --   -0.70231  -0.69204  -0.66479  -0.64248  -0.60780
 Alpha  occ. eigenvalues --   -0.58603  -0.57882  -0.56687  -0.55301  -0.54582
 Alpha  occ. eigenvalues --   -0.51976  -0.50556  -0.49932  -0.49558  -0.45900
 Alpha  occ. eigenvalues --   -0.43264  -0.39876  -0.39155  -0.38880  -0.36407
 Alpha  occ. eigenvalues --   -0.35153  -0.33533  -0.31897  -0.29430  -0.29243
 Alpha  occ. eigenvalues --   -0.26532  -0.23420  -0.21948  -0.20329  -0.18686
 Alpha  occ. eigenvalues --   -0.17282  -0.16603
 Alpha virt. eigenvalues --   -0.13018  -0.11957  -0.11111  -0.09249  -0.05784
 Alpha virt. eigenvalues --   -0.03706  -0.01792   0.02733   0.03273   0.04305
 Alpha virt. eigenvalues --    0.05164   0.07194   0.08705   0.09527   0.10628
 Alpha virt. eigenvalues --    0.10927   0.11246   0.12213   0.13807   0.15684
 Alpha virt. eigenvalues --    0.17576   0.18179   0.18834   0.19574   0.21622
 Alpha virt. eigenvalues --    0.22906   0.24836   0.25189   0.26635   0.27350
 Alpha virt. eigenvalues --    0.28719   0.31907   0.32187   0.33266   0.34591
 Alpha virt. eigenvalues --    0.36408   0.36914   0.40587   0.41427   0.42593
 Alpha virt. eigenvalues --    0.44618   0.44756   0.46032   0.46597   0.47537
 Alpha virt. eigenvalues --    0.49615   0.50379   0.51666   0.52817   0.53264
 Alpha virt. eigenvalues --    0.54046   0.54282   0.55297   0.56818   0.57143
 Alpha virt. eigenvalues --    0.57888   0.58676   0.58886   0.59439   0.59668
 Alpha virt. eigenvalues --    0.61248   0.62810   0.62982   0.63644   0.64194
 Alpha virt. eigenvalues --    0.64940   0.66967   0.67703   0.67948   0.68885
 Alpha virt. eigenvalues --    0.69573   0.70699   0.70870   0.71521   0.72568
 Alpha virt. eigenvalues --    0.73276   0.73852   0.74136   0.74700   0.75670
 Alpha virt. eigenvalues --    0.76704   0.76876   0.77623   0.78045   0.78926
 Alpha virt. eigenvalues --    0.79300   0.81718   0.81967   0.82375   0.82850
 Alpha virt. eigenvalues --    0.83592   0.84989   0.85685   0.86727   0.87221
 Alpha virt. eigenvalues --    0.89950   0.90339   0.91605   0.92634   0.93135
 Alpha virt. eigenvalues --    0.93828   0.94911   0.95616   0.95949   0.97283
 Alpha virt. eigenvalues --    0.99737   1.00922   1.01387   1.01753   1.02459
 Alpha virt. eigenvalues --    1.04135   1.06741   1.08470   1.10230   1.12399
 Alpha virt. eigenvalues --    1.13020   1.14571   1.16000   1.17706   1.18118
 Alpha virt. eigenvalues --    1.18870   1.19806   1.20609   1.22222   1.22446
 Alpha virt. eigenvalues --    1.26095   1.26705   1.27323   1.29479   1.31189
 Alpha virt. eigenvalues --    1.33780   1.35261   1.35822   1.36921   1.37393
 Alpha virt. eigenvalues --    1.37959   1.39609   1.40592   1.41862   1.45531
 Alpha virt. eigenvalues --    1.46336   1.47968   1.49777   1.51369   1.53705
 Alpha virt. eigenvalues --    1.54528   1.55432   1.56997   1.58590   1.59137
 Alpha virt. eigenvalues --    1.60312   1.61936   1.62366   1.64201   1.65679
 Alpha virt. eigenvalues --    1.66335   1.67885   1.69877   1.70489   1.74824
 Alpha virt. eigenvalues --    1.75339   1.76585   1.78385   1.78897   1.80427
 Alpha virt. eigenvalues --    1.82500   1.83167   1.85083   1.88044   1.89031
 Alpha virt. eigenvalues --    1.89466   1.92475   1.93485   1.95925   1.99272
 Alpha virt. eigenvalues --    2.00555   2.01402   2.02474   2.03679   2.06416
 Alpha virt. eigenvalues --    2.06769   2.09304   2.10125   2.12367   2.14392
 Alpha virt. eigenvalues --    2.15459   2.16478   2.16876   2.19425   2.20537
 Alpha virt. eigenvalues --    2.22232   2.24743   2.24867   2.26955   2.27909
 Alpha virt. eigenvalues --    2.28171   2.28816   2.30246   2.32638   2.33840
 Alpha virt. eigenvalues --    2.33899   2.37077   2.38802   2.40765   2.42090
 Alpha virt. eigenvalues --    2.43307   2.45951   2.46369   2.47859   2.49154
 Alpha virt. eigenvalues --    2.51508   2.51971   2.52605   2.55050   2.56122
 Alpha virt. eigenvalues --    2.56508   2.57820   2.60106   2.60739   2.62600
 Alpha virt. eigenvalues --    2.63726   2.64963   2.66014   2.67184   2.69310
 Alpha virt. eigenvalues --    2.70121   2.71712   2.72258   2.76044   2.77114
 Alpha virt. eigenvalues --    2.78664   2.79402   2.79934   2.81169   2.83063
 Alpha virt. eigenvalues --    2.83371   2.84677   2.85396   2.86158   2.87328
 Alpha virt. eigenvalues --    2.88211   2.89387   2.90716   2.92795   2.93311
 Alpha virt. eigenvalues --    2.94363   2.96497   2.97159   2.99126   3.00364
 Alpha virt. eigenvalues --    3.01243   3.02912   3.03734   3.05232   3.06356
 Alpha virt. eigenvalues --    3.08173   3.09063   3.09532   3.09811   3.10634
 Alpha virt. eigenvalues --    3.11656   3.13021   3.14667   3.15445   3.17269
 Alpha virt. eigenvalues --    3.17641   3.18742   3.20295   3.21959   3.23007
 Alpha virt. eigenvalues --    3.24921   3.27222   3.28150   3.28631   3.29800
 Alpha virt. eigenvalues --    3.30712   3.32108   3.33549   3.34963   3.35855
 Alpha virt. eigenvalues --    3.36252   3.37270   3.38373   3.39633   3.40660
 Alpha virt. eigenvalues --    3.41954   3.44602   3.45558   3.47688   3.48324
 Alpha virt. eigenvalues --    3.49269   3.50024   3.52056   3.52253   3.53788
 Alpha virt. eigenvalues --    3.54515   3.55346   3.56029   3.57951   3.59709
 Alpha virt. eigenvalues --    3.61441   3.62222   3.64530   3.65142   3.67303
 Alpha virt. eigenvalues --    3.69128   3.70723   3.71185   3.72425   3.73792
 Alpha virt. eigenvalues --    3.76265   3.77898   3.78824   3.80823   3.82221
 Alpha virt. eigenvalues --    3.83942   3.85183   3.85907   3.87015   3.89972
 Alpha virt. eigenvalues --    3.90570   3.91598   3.94508   3.96017   3.97902
 Alpha virt. eigenvalues --    3.98681   4.02406   4.03923   4.06511   4.08856
 Alpha virt. eigenvalues --    4.10237   4.12105   4.14872   4.15979   4.18554
 Alpha virt. eigenvalues --    4.21906   4.22390   4.25535   4.27214   4.28050
 Alpha virt. eigenvalues --    4.30069   4.30741   4.33231   4.36554   4.37569
 Alpha virt. eigenvalues --    4.38685   4.40473   4.41553   4.41965   4.45194
 Alpha virt. eigenvalues --    4.45701   4.47635   4.48559   4.49885   4.51133
 Alpha virt. eigenvalues --    4.51976   4.53127   4.54708   4.57984   4.58940
 Alpha virt. eigenvalues --    4.60227   4.61502   4.62089   4.65956   4.66699
 Alpha virt. eigenvalues --    4.70771   4.71211   4.72930   4.76713   4.77043
 Alpha virt. eigenvalues --    4.78340   4.80407   4.81276   4.82583   4.84923
 Alpha virt. eigenvalues --    4.86707   4.87295   4.88836   4.91572   4.93849
 Alpha virt. eigenvalues --    4.94178   4.98000   4.99397   5.00582   5.01561
 Alpha virt. eigenvalues --    5.03834   5.06278   5.06928   5.09752   5.12071
 Alpha virt. eigenvalues --    5.14195   5.15658   5.16768   5.19610   5.22026
 Alpha virt. eigenvalues --    5.24224   5.27844   5.32641   5.34497   5.36097
 Alpha virt. eigenvalues --    5.39677   5.42111   5.42862   5.50721   5.53324
 Alpha virt. eigenvalues --    5.56293   5.61249   5.64575   5.76660   5.79553
 Alpha virt. eigenvalues --    5.90168   5.94602   5.95466   6.12485   6.19254
 Alpha virt. eigenvalues --    6.25438   6.32784   6.44928   6.68196   6.91378
 Alpha virt. eigenvalues --    7.01774   7.16217   7.36644   7.62497   8.32462
 Alpha virt. eigenvalues --    8.98530  10.14437  10.28591  10.45605  10.75900
 Alpha virt. eigenvalues --   10.88898  10.98250  11.31815  11.52859  11.65211
 Alpha virt. eigenvalues --   11.67499  12.09776  12.26139  13.04891  14.49850
          Condensed to atoms (all electrons):
               1          2          3          4          5          6
     1  C    5.028328   0.645085  -0.009518  -0.000010  -0.000012   0.000003
     2  C    0.645085   5.054097   0.154976   0.006280  -0.004794  -0.000480
     3  C   -0.009518   0.154976   5.996398  -0.169038   0.049930   0.052841
     4  C   -0.000010   0.006280  -0.169038   6.471173   0.333367   0.340375
     5  C   -0.000012  -0.004794   0.049930   0.333367   5.286642   0.099285
     6  C    0.000003  -0.000480   0.052841   0.340375   0.099285   4.686987
     7  C   -0.000000   0.000005  -0.000894  -0.108155  -0.052064   0.439494
     8  C   -0.000000  -0.000000   0.000038   0.017451  -0.005929  -0.067286
     9  C   -0.000000   0.000000   0.000001   0.000470  -0.002026   0.015005
    10  C   -0.000000   0.000000  -0.000000  -0.000300  -0.000279   0.000457
    11  C    0.000000  -0.000000   0.000000   0.000002  -0.000004   0.000100
    12  C    0.000000  -0.000000   0.000000   0.000217   0.000057  -0.000093
    13  C   -0.000000   0.000000  -0.000000  -0.000000  -0.000000  -0.000019
    14  C   -0.000000   0.000002   0.000141  -0.161188  -0.007088   0.038456
    15  H    0.352052  -0.011891   0.000804   0.000001  -0.000001  -0.000000
    16  H    0.364379  -0.031041  -0.001599  -0.000002   0.000010   0.000000
    17  H   -0.050022   0.350170  -0.032587  -0.000547   0.000311   0.000034
    18  H   -0.007089  -0.014136   0.146822   0.003789   0.006763   0.001085
    19  H   -0.005340  -0.026816   0.169306   0.000338  -0.009115  -0.002574
    20  H   -0.000068   0.001775  -0.076332   0.013169   0.357570  -0.049662
    21  H    0.000001  -0.000135   0.009862  -0.246623  -0.013671   0.078450
    22  H    0.000001  -0.000121   0.007766  -0.331098   0.084851  -0.004441
    23  H    0.000000  -0.000001   0.000433  -0.007490   0.008854  -0.012135
    24  H    0.000000  -0.000001   0.000451  -0.001247   0.005723  -0.008301
    25  H   -0.000000   0.000000   0.000001   0.004395  -0.000765   0.015378
    26  H    0.000000  -0.000000   0.000000   0.000037  -0.000044   0.000597
    27  H   -0.000000   0.000000  -0.000000  -0.000011   0.000001  -0.000036
    28  H   -0.000000   0.000000  -0.000000   0.000000  -0.000000   0.000005
    29  H   -0.000000   0.000000  -0.000000  -0.000000   0.000000  -0.000002
    30  H    0.000000   0.000000  -0.000000  -0.000000  -0.000000  -0.000000
    31  H    0.000000   0.000000  -0.000000  -0.000000  -0.000000  -0.000000
    32  H    0.000000  -0.000000   0.000000   0.000000  -0.000000   0.000000
    33  H    0.000000  -0.000053   0.002650   0.063659  -0.009908  -0.045980
    34  H    0.000000  -0.000046   0.003023   0.023529  -0.001675  -0.035925
               7          8          9         10         11         12
     1  C   -0.000000  -0.000000  -0.000000  -0.000000   0.000000   0.000000
     2  C    0.000005  -0.000000   0.000000   0.000000  -0.000000  -0.000000
     3  C   -0.000894   0.000038   0.000001  -0.000000   0.000000   0.000000
     4  C   -0.108155   0.017451   0.000470  -0.000300   0.000002   0.000217
     5  C   -0.052064  -0.005929  -0.002026  -0.000279  -0.000004   0.000057
     6  C    0.439494  -0.067286   0.015005   0.000457   0.000100  -0.000093
     7  C    5.688027   0.133323  -0.095406  -0.015069   0.002362   0.028935
     8  C    0.133323   5.455503   0.086461   0.290683  -0.064831  -0.107751
     9  C   -0.095406   0.086461   6.473224  -1.684333   0.112840   1.131289
    10  C   -0.015069   0.290683  -1.684333  19.926766  -1.799399 -11.273758
    11  C    0.002362  -0.064831   0.112840  -1.799399   7.036890   0.966039
    12  C    0.028935  -0.107751   1.131289 -11.273758   0.966039  15.656890
    13  C    0.000169  -0.003838  -0.106740   0.430961  -0.470638  -0.116923
    14  C   -0.152149   0.264517  -0.043352   0.067828  -0.001707  -0.092489
    15  H    0.000000  -0.000000   0.000000   0.000000   0.000000  -0.000000
    16  H   -0.000000   0.000000  -0.000000  -0.000000   0.000000   0.000000
    17  H    0.000000   0.000000   0.000000  -0.000000  -0.000000  -0.000000
    18  H    0.000075   0.000001  -0.000000   0.000000  -0.000000  -0.000000
    19  H    0.000005  -0.000000  -0.000000  -0.000000  -0.000000  -0.000000
    20  H    0.008486  -0.000048   0.000005   0.000001  -0.000000  -0.000003
    21  H   -0.040342  -0.012825   0.000300   0.000114   0.000001  -0.000099
    22  H   -0.046955  -0.009248  -0.000414   0.001041   0.000018   0.000411
    23  H    0.251968   0.006543  -0.007836  -0.001923  -0.000117   0.000134
    24  H    0.235227   0.011299  -0.005481  -0.006104  -0.000255   0.003404
    25  H    0.005799  -0.086350   0.012542  -0.151559   0.015150   0.351007
    26  H    0.002737  -0.070120   0.394915  -0.232767   0.005783   0.131671
    27  H   -0.000211   0.003377   0.008255   0.375582  -0.133247  -0.097571
    28  H   -0.000025  -0.002018  -0.025239  -0.236666   0.415492   0.076602
    29  H   -0.000138   0.000747   0.007082  -0.360574   0.217508   0.030665
    30  H   -0.000003  -0.000511  -0.006364  -0.040831  -0.418215   0.005845
    31  H   -0.000000  -0.000134  -0.001647  -0.016305  -0.163043  -0.002397
    32  H   -0.000000   0.000012   0.000732   0.013001   0.081700  -0.003775
    33  H    0.009406   0.008348  -0.000820   0.000333   0.000006   0.001309
    34  H    0.006538   0.007971  -0.000554  -0.001331  -0.000001   0.001130
              13         14         15         16         17         18
     1  C   -0.000000  -0.000000   0.352052   0.364379  -0.050022  -0.007089
     2  C    0.000000   0.000002  -0.011891  -0.031041   0.350170  -0.014136
     3  C   -0.000000   0.000141   0.000804  -0.001599  -0.032587   0.146822
     4  C   -0.000000  -0.161188   0.000001  -0.000002  -0.000547   0.003789
     5  C   -0.000000  -0.007088  -0.000001   0.000010   0.000311   0.006763
     6  C   -0.000019   0.038456  -0.000000   0.000000   0.000034   0.001085
     7  C    0.000169  -0.152149   0.000000  -0.000000   0.000000   0.000075
     8  C   -0.003838   0.264517  -0.000000   0.000000   0.000000   0.000001
     9  C   -0.106740  -0.043352   0.000000  -0.000000   0.000000  -0.000000
    10  C    0.430961   0.067828   0.000000  -0.000000  -0.000000   0.000000
    11  C   -0.470638  -0.001707   0.000000   0.000000  -0.000000  -0.000000
    12  C   -0.116923  -0.092489  -0.000000   0.000000  -0.000000  -0.000000
    13  C    7.028423  -0.000628   0.000000   0.000000  -0.000000   0.000000
    14  C   -0.000628   6.292282   0.000000  -0.000000  -0.000001  -0.000010
    15  H    0.000000   0.000000   0.607884  -0.054699  -0.008061   0.000151
    16  H    0.000000  -0.000000  -0.054699   0.608491   0.006002   0.002023
    17  H   -0.000000  -0.000001  -0.008061   0.006002   0.618122   0.003096
    18  H    0.000000  -0.000010   0.000151   0.002023   0.003096   0.809482
    19  H    0.000000  -0.000012   0.000052   0.002485   0.003828   0.000976
    20  H   -0.000000  -0.000316   0.000001   0.000001   0.000009   0.009440
    21  H    0.000002   0.010019  -0.000000   0.000000   0.000017  -0.000039
    22  H    0.000003   0.121474  -0.000000   0.000000   0.000014  -0.000116
    23  H    0.000014   0.013753  -0.000000   0.000000   0.000000  -0.000014
    24  H    0.000007   0.014107  -0.000000   0.000000   0.000000  -0.000013
    25  H    0.001129   0.069038   0.000000  -0.000000  -0.000000  -0.000000
    26  H    0.006382   0.000247  -0.000000   0.000000   0.000000  -0.000000
    27  H   -0.022456  -0.002411   0.000000  -0.000000  -0.000000   0.000000
    28  H   -0.269037  -0.000023   0.000000  -0.000000  -0.000000   0.000000
    29  H    0.191359   0.000379   0.000000  -0.000000  -0.000000   0.000000
    30  H   -0.318831  -0.000002   0.000000   0.000000  -0.000000   0.000000
    31  H   -0.216753  -0.000000   0.000000   0.000000  -0.000000  -0.000000
    32  H    0.377303   0.000001   0.000000   0.000000   0.000000  -0.000000
    33  H    0.000001  -0.015994  -0.000000   0.000000   0.000012   0.000025
    34  H    0.000001   0.010503  -0.000000   0.000000   0.000010  -0.000027
              19         20         21         22         23         24
     1  C   -0.005340  -0.000068   0.000001   0.000001   0.000000   0.000000
     2  C   -0.026816   0.001775  -0.000135  -0.000121  -0.000001  -0.000001
     3  C    0.169306  -0.076332   0.009862   0.007766   0.000433   0.000451
     4  C    0.000338   0.013169  -0.246623  -0.331098  -0.007490  -0.001247
     5  C   -0.009115   0.357570  -0.013671   0.084851   0.008854   0.005723
     6  C   -0.002574  -0.049662   0.078450  -0.004441  -0.012135  -0.008301
     7  C    0.000005   0.008486  -0.040342  -0.046955   0.251968   0.235227
     8  C   -0.000000  -0.000048  -0.012825  -0.009248   0.006543   0.011299
     9  C   -0.000000   0.000005   0.000300  -0.000414  -0.007836  -0.005481
    10  C   -0.000000   0.000001   0.000114   0.001041  -0.001923  -0.006104
    11  C   -0.000000  -0.000000   0.000001   0.000018  -0.000117  -0.000255
    12  C   -0.000000  -0.000003  -0.000099   0.000411   0.000134   0.003404
    13  C    0.000000  -0.000000   0.000002   0.000003   0.000014   0.000007
    14  C   -0.000012  -0.000316   0.010019   0.121474   0.013753   0.014107
    15  H    0.000052   0.000001  -0.000000  -0.000000  -0.000000  -0.000000
    16  H    0.002485   0.000001   0.000000   0.000000   0.000000   0.000000
    17  H    0.003828   0.000009   0.000017   0.000014   0.000000   0.000000
    18  H    0.000976   0.009440  -0.000039  -0.000116  -0.000014  -0.000013
    19  H    0.814599   0.020225   0.000407   0.000088  -0.000005  -0.000010
    20  H    0.020225   0.520657  -0.007287  -0.005644  -0.002465  -0.000994
    21  H    0.000407  -0.007287   1.335875   0.089550   0.008759   0.013036
    22  H    0.000088  -0.005644   0.089550   1.170352   0.017959   0.006827
    23  H   -0.000005  -0.002465   0.008759   0.017959   0.579667   0.002433
    24  H   -0.000010  -0.000994   0.013036   0.006827   0.002433   0.591301
    25  H    0.000000   0.000014  -0.001674  -0.004882  -0.000150  -0.003012
    26  H   -0.000000  -0.000004  -0.000096  -0.000074   0.001299   0.001740
    27  H    0.000000   0.000000   0.000039   0.000017   0.000021   0.000024
    28  H   -0.000000  -0.000000  -0.000000   0.000000   0.000004  -0.000010
    29  H    0.000000   0.000000   0.000002   0.000003   0.000008   0.000006
    30  H    0.000000  -0.000000   0.000000   0.000000   0.000001   0.000000
    31  H    0.000000  -0.000000   0.000000   0.000000   0.000000  -0.000000
    32  H   -0.000000  -0.000000  -0.000000  -0.000000  -0.000000  -0.000000
    33  H   -0.000037  -0.000402  -0.057373  -0.030271  -0.001528  -0.000123
    34  H   -0.000013  -0.000473  -0.021514  -0.054265   0.000030  -0.001144
              25         26         27         28         29         30
     1  C   -0.000000   0.000000  -0.000000  -0.000000  -0.000000   0.000000
     2  C    0.000000  -0.000000   0.000000   0.000000   0.000000   0.000000
     3  C    0.000001   0.000000  -0.000000  -0.000000  -0.000000  -0.000000
     4  C    0.004395   0.000037  -0.000011   0.000000  -0.000000  -0.000000
     5  C   -0.000765  -0.000044   0.000001  -0.000000   0.000000  -0.000000
     6  C    0.015378   0.000597  -0.000036   0.000005  -0.000002  -0.000000
     7  C    0.005799   0.002737  -0.000211  -0.000025  -0.000138  -0.000003
     8  C   -0.086350  -0.070120   0.003377  -0.002018   0.000747  -0.000511
     9  C    0.012542   0.394915   0.008255  -0.025239   0.007082  -0.006364
    10  C   -0.151559  -0.232767   0.375582  -0.236666  -0.360574  -0.040831
    11  C    0.015150   0.005783  -0.133247   0.415492   0.217508  -0.418215
    12  C    0.351007   0.131671  -0.097571   0.076602   0.030665   0.005845
    13  C    0.001129   0.006382  -0.022456  -0.269037   0.191359  -0.318831
    14  C    0.069038   0.000247  -0.002411  -0.000023   0.000379  -0.000002
    15  H    0.000000  -0.000000   0.000000   0.000000   0.000000   0.000000
    16  H   -0.000000   0.000000  -0.000000  -0.000000  -0.000000   0.000000
    17  H   -0.000000   0.000000  -0.000000  -0.000000  -0.000000  -0.000000
    18  H   -0.000000  -0.000000   0.000000   0.000000   0.000000   0.000000
    19  H    0.000000  -0.000000   0.000000  -0.000000   0.000000   0.000000
    20  H    0.000014  -0.000004   0.000000  -0.000000   0.000000  -0.000000
    21  H   -0.001674  -0.000096   0.000039  -0.000000   0.000002   0.000000
    22  H   -0.004882  -0.000074   0.000017   0.000000   0.000003   0.000000
    23  H   -0.000150   0.001299   0.000021   0.000004   0.000008   0.000001
    24  H   -0.003012   0.001740   0.000024  -0.000010   0.000006   0.000000
    25  H    0.551000   0.003573  -0.029708   0.000319  -0.007322  -0.000037
    26  H    0.003573   0.584553  -0.000619   0.017770   0.000104   0.001846
    27  H   -0.029708  -0.000619   0.761195  -0.001426   0.104179   0.000764
    28  H    0.000319   0.017770  -0.001426   0.839800   0.024970   0.166482
    29  H   -0.007322   0.000104   0.104179   0.024970   0.750360   0.014260
    30  H   -0.000037   0.001846   0.000764   0.166482   0.014260   1.480411
    31  H   -0.000016   0.000206  -0.000606   0.023692   0.010789   0.493290
    32  H    0.000016  -0.000121  -0.001923  -0.034511  -0.025632  -0.221656
    33  H   -0.006456   0.000012  -0.000033   0.000000   0.000001   0.000000
    34  H    0.000864   0.000009   0.000014   0.000000  -0.000001   0.000000
              31         32         33         34
     1  C    0.000000   0.000000   0.000000   0.000000
     2  C    0.000000  -0.000000  -0.000053  -0.000046
     3  C   -0.000000   0.000000   0.002650   0.003023
     4  C   -0.000000   0.000000   0.063659   0.023529
     5  C   -0.000000  -0.000000  -0.009908  -0.001675
     6  C   -0.000000   0.000000  -0.045980  -0.035925
     7  C   -0.000000  -0.000000   0.009406   0.006538
     8  C   -0.000134   0.000012   0.008348   0.007971
     9  C   -0.001647   0.000732  -0.000820  -0.000554
    10  C   -0.016305   0.013001   0.000333  -0.001331
    11  C   -0.163043   0.081700   0.000006  -0.000001
    12  C   -0.002397  -0.003775   0.001309   0.001130
    13  C   -0.216753   0.377303   0.000001   0.000001
    14  C   -0.000000   0.000001  -0.015994   0.010503
    15  H    0.000000   0.000000  -0.000000  -0.000000
    16  H    0.000000   0.000000   0.000000   0.000000
    17  H   -0.000000   0.000000   0.000012   0.000010
    18  H   -0.000000  -0.000000   0.000025  -0.000027
    19  H    0.000000  -0.000000  -0.000037  -0.000013
    20  H   -0.000000  -0.000000  -0.000402  -0.000473
    21  H    0.000000  -0.000000  -0.057373  -0.021514
    22  H    0.000000  -0.000000  -0.030271  -0.054265
    23  H    0.000000  -0.000000  -0.001528   0.000030
    24  H   -0.000000  -0.000000  -0.000123  -0.001144
    25  H   -0.000016   0.000016  -0.006456   0.000864
    26  H    0.000206  -0.000121   0.000012   0.000009
    27  H   -0.000606  -0.001923  -0.000033   0.000014
    28  H    0.023692  -0.034511   0.000000   0.000000
    29  H    0.010789  -0.025632   0.000001  -0.000001
    30  H    0.493290  -0.221656   0.000000   0.000000
    31  H    0.826756  -0.083340   0.000000   0.000000
    32  H   -0.083340   0.661567   0.000000   0.000000
    33  H    0.000000   0.000000   0.684969   0.225768
    34  H    0.000000   0.000000   0.225768   0.648157
 Mulliken charges:
               1
     1  C   -0.317788
     2  C   -0.122874
     3  C   -0.305474
     4  C   -0.252544
     5  C   -0.125988
     6  C    0.458383
     7  C   -0.301141
     8  C    0.144614
     9  C   -0.262909
    10  C    0.714432
    11  C    0.197567
    12  C   -0.690745
    13  C   -0.509892
    14  C   -0.425378
    15  H    0.113708
    16  H    0.103951
    17  H    0.109593
    18  H    0.037717
    19  H    0.031616
    20  H    0.212344
    21  H   -0.144756
    22  H   -0.012848
    23  H    0.141787
    24  H    0.141109
    25  H    0.261708
    26  H    0.150361
    27  H    0.036791
    28  H    0.003819
    29  H    0.041249
    30  H   -0.156448
    31  H    0.129508
    32  H    0.236626
    33  H    0.172477
    34  H    0.189426
 Sum of Mulliken charges =  -0.00000
 Mulliken charges with hydrogens summed into heavy atoms:
               1
     1  C   -0.100129
     2  C   -0.013281
     3  C   -0.236142
     4  C   -0.252544
     5  C    0.086356
     6  C    0.300779
     7  C   -0.018246
     8  C    0.144614
     9  C   -0.112548
    10  C    0.714432
    11  C    0.201386
    12  C   -0.653954
    13  C   -0.258956
    14  C    0.198232
 Electronic spatial extent (au):  <R**2>=           5824.7063
 Charge=             -0.0000 electrons
 Dipole moment (field-independent basis, Debye):
    X=              6.1101    Y=             -1.5251    Z=             -0.5248  Tot=              6.3194
 Quadrupole moment (field-independent basis, Debye-Ang):
   XX=           -107.3507   YY=            -89.3170   ZZ=            -94.1344
   XY=              5.6801   XZ=             -1.7429   YZ=              1.2891
 Traceless Quadrupole moment (field-independent basis, Debye-Ang):
   XX=            -10.4166   YY=              7.6170   ZZ=              2.7996
   XY=              5.6801   XZ=             -1.7429   YZ=              1.2891
 Octapole moment (field-independent basis, Debye-Ang**2):
  XXX=            193.2260  YYY=             -7.1025  ZZZ=             -2.1523  XYY=            -19.7977
  XXY=             42.4856  XXZ=            -24.2047  XZZ=             24.7973  YZZ=             -3.4351
  YYZ=              0.7198  XYZ=              8.9475
 Hexadecapole moment (field-independent basis, Debye-Ang**3):
 XXXX=          -7915.2762 YYYY=           -445.1303 ZZZZ=           -155.3524 XXXY=            364.6345
 XXXZ=           -177.8015 YYYX=              8.9353 YYYZ=              3.2087 ZZZX=             -2.0560
 ZZZY=              0.4956 XXYY=          -1473.9360 XXZZ=          -1425.6910 YYZZ=           -100.3752
 XXYZ=             51.3365 YYXZ=             -0.4281 ZZXY=              5.4506
 N-N= 8.553276002701D+02 E-N=-2.969875377915D+03  KE= 5.503685181213D+02
 PrsmSu:  requested number of processors reduced to:  13 ShMem   1 Linda.
 Calling FoFJK, ICntrl=      2127 FMM=F ISym2X=0 I1Cent= 0 IOpClX= 0 NMat=1 NMatS=1 NMatT=0.
 ***** Axes restored to original set *****
 -------------------------------------------------------------------
 Center     Atomic                   Forces (Hartrees/Bohr)
 Number     Number              X              Y              Z
 -------------------------------------------------------------------
      1        6           0.058860437    0.004831062    0.007317588
      2        6          -0.066337432   -0.005652440    0.000315609
      3        6          -0.224318835    0.024551539    0.022969400
      4        6          -0.073299072   -0.118085485   -0.196225747
      5        6          -0.159782265   -0.034834031    0.026470631
      6        6           0.125451596    0.123146921    0.116724702
      7        6          -0.002909805    0.024026197    0.013781416
      8        6          -0.108481332   -0.018521611   -0.013210411
      9        6          -0.043470366    0.007872130   -0.013753898
     10        6           0.323706724    4.870374394    3.802627425
     11        6          -0.880481463    0.356798227    0.369363132
     12        6          -0.275790471   -4.958949289   -3.941986904
     13        6           1.075599787   -0.383552351   -0.282609131
     14        6           0.063685979   -0.016581925    0.031066379
     15        1           0.025592451    0.010430904    0.010244873
     16        1           0.012786912   -0.001134937   -0.000134339
     17        1           0.016793558   -0.014709637   -0.017168760
     18        1           0.054847649    0.010133374   -0.030061544
     19        1           0.060690925   -0.028667606    0.005436969
     20        1          -0.014835138    0.020146927    0.008639539
     21        1           0.000846934    0.034976909   -0.040743169
     22        1           0.038757058   -0.037688158    0.030809026
     23        1          -0.029153174    0.007648142    0.048769986
     24        1          -0.034825406    0.053036609    0.019213300
     25        1           0.043360787   -0.033535437   -0.018432316
     26        1          -0.000889719    0.048336848    0.061859133
     27        1          -0.045907192   -0.029698074    0.002864290
     28        1          -0.025716347   -0.010098248   -0.008468836
     29        1           0.094547307   -0.024577250   -0.024682640
     30        1           0.057411280    0.114319109    0.020382674
     31        1          -0.015163891    0.050952496    0.083116317
     32        1          -0.067645161   -0.031576048   -0.076226227
     33        1           0.005376856    0.017462359   -0.033522123
     34        1           0.010690827   -0.031181618    0.015253655
 -------------------------------------------------------------------
 Cartesian Forces:  Max     4.958949289 RMS     0.892309641

 GradGradGradGradGradGradGradGradGradGradGradGradGradGradGradGradGradGrad
 Berny optimization.
 FormGI is forming the generalized inverse of G from B-inverse, IUseBI=4.
 Internal  Forces:  Max     5.580953955 RMS     0.410543812
 Search for a local minimum.
 Step number   1 out of a maximum of  204
 All quantities printed in internal units (Hartrees-Bohrs-Radians)
 Mixed Optimization -- RFO/linear search
 Second derivative matrix not updated -- first step.
 ITU=  0
     Eigenvalues ---    0.00250   0.00377   0.00844   0.00886   0.01231
     Eigenvalues ---    0.01368   0.01403   0.01578   0.01578   0.01747
     Eigenvalues ---    0.01836   0.02086   0.02091   0.02437   0.02558
     Eigenvalues ---    0.02717   0.02920   0.03451   0.03989   0.04308
     Eigenvalues ---    0.04523   0.04530   0.04559   0.04694   0.05128
     Eigenvalues ---    0.05529   0.05860   0.05974   0.06147   0.06422
     Eigenvalues ---    0.06645   0.06815   0.06863   0.06995   0.07191
     Eigenvalues ---    0.07370   0.07508   0.08282   0.08343   0.08503
     Eigenvalues ---    0.08712   0.08886   0.09314   0.09665   0.09712
     Eigenvalues ---    0.10115   0.11014   0.11088   0.11458   0.11652
     Eigenvalues ---    0.11674   0.11813   0.11909   0.12205   0.12673
     Eigenvalues ---    0.12912   0.13269   0.13696   0.13916   0.14986
     Eigenvalues ---    0.15171   0.15291   0.15996   0.15997   0.16000
     Eigenvalues ---    0.16000   0.16148   0.16990   0.17952   0.18538
     Eigenvalues ---    0.18751   0.19718   0.20699   0.20742   0.21579
     Eigenvalues ---    0.21620   0.23244   0.30069   0.33481   0.33498
     Eigenvalues ---    0.34641   0.35057   0.37931   0.39154   0.39778
     Eigenvalues ---    0.41342   0.41960   0.44946   0.48318   0.49342
     Eigenvalues ---    0.52040   0.63322   0.77838   0.80598   3.24429
     Eigenvalues ---   15.34529
 RFO step:  Lambda=-2.32822666D+00 EMin= 2.49796261D-03
 Linear search not attempted -- first point.
 Maximum step size (   0.300) exceeded in Quadratic search.
    -- Step size scaled by   0.689
 Iteration  1 RMS(Cart)=  0.05599320 RMS(Int)=  0.00123986
 Iteration  2 RMS(Cart)=  0.00252027 RMS(Int)=  0.00008406
 Iteration  3 RMS(Cart)=  0.00000383 RMS(Int)=  0.00008401
 Iteration  4 RMS(Cart)=  0.00000000 RMS(Int)=  0.00008401
 Variable       Old X    -DE/DX   Delta X   Delta X   Delta X     New X
                                 (Linear)    (Quad)   (Total)
    R1        2.71856  -0.09695   0.00000  -0.02449  -0.02449   2.69408
    R2        2.14526  -0.02645   0.00000  -0.00693  -0.00693   2.13833
    R3        2.08215  -0.00826   0.00000  -0.00213  -0.00213   2.08001
    R4        3.69897  -0.05091   0.00000  -0.01444  -0.01442   3.68455
    R5        1.99419   0.02685   0.00000   0.00680   0.00680   2.00098
    R6        3.96887   0.00577   0.00000   0.00168   0.00166   3.97053
    R7        3.97227   0.01183   0.00000   0.00342   0.00340   3.97567
    R8        3.66507   0.05972   0.00000   0.01658   0.01659   3.68166
    R9        2.70156  -0.06124   0.00000  -0.01712  -0.01711   2.68445
   R10        2.69202  -0.06603   0.00000  -0.01844  -0.01843   2.67359
   R11        3.92222  -0.01079   0.00000  -0.00281  -0.00282   3.91940
   R12        2.61207   0.09348   0.00000   0.02105   0.02093   2.63300
   R13        2.31661   0.19462   0.00000   0.04252   0.04259   2.35921
   R14        2.44478   0.17319   0.00000   0.03992   0.03997   2.48475
   R15        1.97464   0.02691   0.00000   0.00678   0.00679   1.98143
   R16        2.61885  -0.00267   0.00000   0.02044   0.02043   2.63928
   R17        2.70736   0.03664   0.00000   0.01072   0.01068   2.71804
   R18        2.72129   0.05518   0.00000   0.01450   0.01450   2.73579
   R19        2.59157   0.15432   0.00000   0.03575   0.03574   2.62731
   R20        1.96470   0.04283   0.00000   0.01076   0.01076   1.97546
   R21        1.95674   0.05033   0.00000   0.01261   0.01261   1.96935
   R22        2.35367   0.52054   0.00000   0.03419   0.03399   2.38766
   R23        2.76049   0.85046   0.00000   0.06281   0.06265   2.82314
   R24        2.76075  -0.38154   0.00000   0.01917   0.01926   2.78001
[...]
 Standard basis: 6-31G(2df,p) (6D, 7F)
 There are   534 symmetry adapted cartesian basis functions of A   symmetry.
 There are   492 symmetry adapted basis functions of A   symmetry.
   492 basis functions,   756 primitive gaussians,   534 cartesian basis functions
    52 alpha electrons       52 beta electrons
       nuclear repulsion energy       773.3495459133 Hartrees.
 NAtoms=   34 NActive=   34 NUniq=   34 SFac= 1.00D+00 NAtFMM=   60 NAOKFM=F Big=F
 Integral buffers will be    131072 words long.
 Raffenetti 2 integral format.
 Two-electron integral symmetry is turned on.
 One-electron integrals computed using PRISM.
 PrsmSu:  requested number of processors reduced to:  12 ShMem   1 Linda.
 NBasis=   492 RedAO= T EigKep=  3.20D-04  NBF=   492
 NBsUse=   492 1.00D-06 EigRej= -1.00D+00 NBFU=   492
 Initial guess from the checkpoint file:  "CdCCC1dCCCCdCCdCCqCrC1.chk"
 B after Tr=    -0.000000   -0.000000    0.000000
         Rot=    0.999923    0.012363    0.000759    0.000247 Ang=   1.42 deg.
 ExpMin= 1.61D-01 ExpMax= 3.05D+03 ExpMxC= 4.57D+02 IAcc=2 IRadAn=         4 AccDes= 0.00D+00
 Harris functional with IExCor=  402 and IRadAn=       4 diagonalized for initial guess.
 HarFok:  IExCor=  402 AccDes= 0.00D+00 IRadAn=         4 IDoV= 1 UseB2=F ITyADJ=14
 ICtDFT=  3500011 ScaDFX=  1.000000  1.000000  1.000000  1.000000
 FoFCou: FMM=F IPFlag=           0 FMFlag=      100000 FMFlg1=           0
         NFxFlg=           0 DoJE=T BraDBF=F KetDBF=T FulRan=T
         wScrn=  0.000000 ICntrl=       500 IOpCl=  0 I1Cent=   200000004 NGrid=           0
         NMat0=    1 NMatS0=      1 NMatT0=    0 NMatD0=    1 NMtDS0=    0 NMtDT0=    0
 Petite list used in FoFCou.
 Requested convergence on RMS density matrix=1.00D-08 within 128 cycles.
 Requested convergence on MAX density matrix=1.00D-06.
 Requested convergence on             energy=1.00D-06.
 No special actions if energy rises.
 Integral accuracy reduced to 1.0D-05 until final iterations.
 Initial convergence to 1.0D-05 achieved.  Increase integral accuracy.
 EnCoef did    46 forward-backward iterations
 SCF Done:  E(RB3LYP) =  -545.206387391     A.U. after   13 cycles
            NFock= 13  Conv=0.91D-08     -V/T= 2.0087
 PrsmSu:  requested number of processors reduced to:  13 ShMem   1 Linda.
 Calling FoFJK, ICntrl=      2127 FMM=F ISym2X=0 I1Cent= 0 IOpClX= 0 NMat=1 NMatS=1 NMatT=0.
 ***** Axes restored to original set *****
 -------------------------------------------------------------------
 Center     Atomic                   Forces (Hartrees/Bohr)
 Number     Number              X              Y              Z
 -------------------------------------------------------------------
      1        6           0.000355357    0.001419071   -0.000144050
      2        6          -0.000068537   -0.000994506   -0.000102104
      3        6          -0.003101381   -0.002566811    0.001614498
      4        6           0.005186424    0.004487481   -0.001164448
      5        6          -0.002011054   -0.002023086    0.000784029
      6        6          -0.003490531    0.003240700   -0.000073491
      7        6           0.001047077   -0.000223627    0.002429499
      8        6          -0.002543145    0.005357876   -0.001468814
      9        6          -0.001652872   -0.000797381    0.004960503
     10        6           0.002546384    0.001017100   -0.000923768
     11        6           0.001540182   -0.002623928    0.000704332
     12        6           0.003371794    0.000072972    0.001644863
     13        6          -0.000724376   -0.003269608    0.002195038
     14        6          -0.002943468   -0.005110940   -0.006899648
     15        1          -0.000045660   -0.000002276    0.000045992
     16        1           0.000166841    0.000074082   -0.000015381
     17        1           0.000066777    0.000564386    0.000136779
     18        1          -0.000159921   -0.000179449   -0.000385870
     19        1           0.002163434   -0.000841441   -0.000275004
     20        1           0.000324506   -0.000391123   -0.000271781
     21        1           0.000504231   -0.000604968    0.001006719
     22        1           0.000508348   -0.004279687   -0.001402941
     23        1          -0.000119939    0.000020634   -0.000679408
     24        1           0.000497964    0.000280772    0.000553274
     25        1           0.002169661   -0.000630976   -0.003611515
     26        1           0.000115942   -0.000162136    0.000032447
     27        1          -0.005049610    0.001666082    0.002252476
     28        1           0.000108189    0.002522640    0.000300613
     29        1           0.001218700    0.003525145   -0.000739913
     30        1          -0.000516539   -0.001197440    0.000795824
     31        1           0.000647968    0.001312719   -0.000509759
     32        1          -0.000151858    0.000120064   -0.001383286
     33        1          -0.001205602    0.000257137    0.000596136
     34        1           0.001244713   -0.000039477   -0.000001840
 -------------------------------------------------------------------
 Cartesian Forces:  Max     0.006899648 RMS     0.002022042

 GradGradGradGradGradGradGradGradGradGradGradGradGradGradGradGradGradGrad
 Berny optimization.
 Using GEDIIS/GDIIS optimizer.
 FormGI is forming the generalized inverse of G from B-inverse, IUseBI=4.
 Internal  Forces:  Max     0.021838397 RMS     0.002725442
 Search for a local minimum.
 Step number  66 out of a maximum of  204
 All quantities printed in internal units (Hartrees-Bohrs-Radians)
 Mixed Optimization -- RFO/linear search
 Update second derivatives using D2CorX and points   64   65   66
 DE= -3.73D-04 DEPred=-3.74D-04 R= 9.97D-01
 TightC=F SS=  1.41D+00  RLast= 1.16D-01 DXNew= 2.3450D+00 3.4794D-01
 Trust test= 9.97D-01 RLast= 1.16D-01 DXMaxT set to 1.39D+00
 ITU=  1  1  1  1  1 -1  1  0  1  0  1 -1  1  1  1  1  1  1  1  1
 ITU=  1  1  1  1  1  1  1  0  0  1  1 -1  1  0 -1  0 -1 -1  1  1
 ITU=  1  1  0  1  1  1  1 -1  0  0  1  0  1  1  1  0  0  0 -1 -1
 ITU=  1  0  0  0  1  0
 Use linear search instead of GDIIS.
     Eigenvalues ---    0.00297   0.00413   0.00708   0.00953   0.01197
     Eigenvalues ---    0.01300   0.01406   0.01555   0.01609   0.01659
     Eigenvalues ---    0.01888   0.01962   0.02199   0.02280   0.02622
     Eigenvalues ---    0.02772   0.02934   0.03131   0.03272   0.03725
     Eigenvalues ---    0.04048   0.04361   0.04493   0.04695   0.04868
     Eigenvalues ---    0.05033   0.05243   0.05258   0.05728   0.05855
     Eigenvalues ---    0.06352   0.06437   0.06782   0.07025   0.07119
     Eigenvalues ---    0.07383   0.07740   0.08187   0.08427   0.08668
     Eigenvalues ---    0.09350   0.09412   0.09873   0.10405   0.10866
     Eigenvalues ---    0.11443   0.11699   0.12124   0.12785   0.13425
     Eigenvalues ---    0.13807   0.14151   0.14458   0.15270   0.15750
     Eigenvalues ---    0.15952   0.16051   0.16329   0.16542   0.17935
     Eigenvalues ---    0.18668   0.19974   0.20208   0.21687   0.22902
     Eigenvalues ---    0.23916   0.25759   0.27917   0.28463   0.28824
     Eigenvalues ---    0.29598   0.30702   0.30887   0.33301   0.33659
     Eigenvalues ---    0.35258   0.35978   0.36698   0.38939   0.40171
     Eigenvalues ---    0.41324   0.41888   0.42408   0.44870   0.47714
     Eigenvalues ---    0.49499   0.52505   0.55470   0.60252   0.73550
     Eigenvalues ---    0.84783   1.15672   1.41321   2.32487   3.11863
     Eigenvalues ---   39.36341
 RFO step:  Lambda=-8.07936350D-04 EMin= 2.96846079D-03
 Quartic linear search produced a step of  2.00000.
 Iteration  1 RMS(Cart)=  0.00684986 RMS(Int)=  0.30089930
 Iteration  2 RMS(Cart)=  0.06095258 RMS(Int)=  0.29375560
 Iteration  3 RMS(Cart)=  0.00171687 RMS(Int)=  0.27587731
 Iteration  4 RMS(Cart)=  0.00107288 RMS(Int)=  0.25783697
 Iteration  5 RMS(Cart)=  0.00111705 RMS(Int)=  0.24003806
 Iteration  6 RMS(Cart)=  0.00115803 RMS(Int)=  0.22231154
 Iteration  7 RMS(Cart)=  0.00119865 RMS(Int)=  0.20418854
 Iteration  8 RMS(Cart)=  0.00155760 RMS(Int)=  0.18517379
 Iteration  9 RMS(Cart)=  0.00234926 RMS(Int)=  0.16993716
 Iteration 10 RMS(Cart)=  0.00059394 RMS(Int)=  0.16805723
 Iteration 11 RMS(Cart)=  0.00052035 RMS(Int)=  0.16642814
 Iteration 12 RMS(Cart)=  0.00049178 RMS(Int)=  0.16488633
 Iteration 13 RMS(Cart)=  0.00047674 RMS(Int)=  0.16337894
 Iteration 14 RMS(Cart)=  0.00046726 RMS(Int)=  0.16187856
 Iteration 15 RMS(Cart)=  0.00046039 RMS(Int)=  0.16036427
 Iteration 16 RMS(Cart)=  0.00045481 RMS(Int)=  0.15881296
 Iteration 17 RMS(Cart)=  0.00044993 RMS(Int)=  0.15718897
 Iteration 18 RMS(Cart)=  0.00044559 RMS(Int)=  0.15541760
 Iteration 19 RMS(Cart)=  0.00044231 RMS(Int)=  0.15326325
 Iteration 20 RMS(Cart)=  0.00044257 RMS(Int)=  0.14839304
 Iteration 21 RMS(Cart)=  0.00047112 RMS(Int)=  0.15200314
 Iteration 22 RMS(Cart)=  0.00027275 RMS(Int)=  0.14191646
 Iteration 23 RMS(Cart)=  0.00021361 RMS(Int)=  0.14004851
 Iteration 24 RMS(Cart)=  0.00024395 RMS(Int)=  0.13716706
 Iteration 25 RMS(Cart)=  0.00029622 RMS(Int)=  0.16174464
 Iteration 26 RMS(Cart)=  0.00025800 RMS(Int)=  0.13831543
 Iteration 27 RMS(Cart)=  0.00026667 RMS(Int)=  0.16115209
 Iteration 28 RMS(Cart)=  0.00025967 RMS(Int)=  0.13876280
 Iteration 29 RMS(Cart)=  0.00025582 RMS(Int)=  0.16078105
 Iteration 30 RMS(Cart)=  0.00026665 RMS(Int)=  0.13922763
 Iteration 31 RMS(Cart)=  0.00024566 RMS(Int)=  0.15985700
 Iteration 32 RMS(Cart)=  0.00029492 RMS(Int)=  0.14052459
 Iteration 33 RMS(Cart)=  0.00021847 RMS(Int)=  0.14879842
 Iteration 34 RMS(Cart)=  0.00046123 RMS(Int)=  0.15211574
 Iteration 35 RMS(Cart)=  0.00031151 RMS(Int)=  0.14004408
 Iteration 36 RMS(Cart)=  0.00026407 RMS(Int)=  0.13809754
 Iteration 37 RMS(Cart)=  0.00029330 RMS(Int)=  0.13479104
 Iteration 38 RMS(Cart)=  0.00034958 RMS(Int)=  0.16491692
 Iteration 39 RMS(Cart)=  0.00019418 RMS(Int)=  0.12645095
 Iteration 40 RMS(Cart)=  0.00051046 RMS(Int)=  0.17446932
 Iteration 41 RMS(Cart)=  0.00010867 RMS(Int)=  0.15539624
 Iteration 42 RMS(Cart)=  0.00040335 RMS(Int)=  0.14569625
 Iteration 43 RMS(Cart)=  0.00049269 RMS(Int)=  0.15510958
 Iteration 44 RMS(Cart)=  0.00109525 RMS(Int)=  0.14952716
 Iteration 45 RMS(Cart)=  0.00021196 RMS(Int)=  0.14614470
 Iteration 46 RMS(Cart)=  0.00016280 RMS(Int)=  0.14463818
 Iteration 47 RMS(Cart)=  0.00018427 RMS(Int)=  0.14311819
 Iteration 48 RMS(Cart)=  0.00020729 RMS(Int)=  0.14152294
 Iteration 49 RMS(Cart)=  0.00023119 RMS(Int)=  0.13974845
 Iteration 50 RMS(Cart)=  0.00025840 RMS(Int)=  0.13740300
 Iteration 51 RMS(Cart)=  0.00029678 RMS(Int)=  0.10320185
 Iteration 52 RMS(Cart)=  0.00046786 RMS(Int)=  0.19775304
 Iteration 53 RMS(Cart)=  0.00460091 RMS(Int)=  0.19571693
 Iteration 54 RMS(Cart)=  0.00173114 RMS(Int)=  0.17951877
 Iteration 55 RMS(Cart)=  0.00162232 RMS(Int)=  0.16060061
 Iteration 56 RMS(Cart)=  0.00166469 RMS(Int)=  0.14424710
 Iteration 57 RMS(Cart)=  0.00052666 RMS(Int)=  0.14253991
 Iteration 58 RMS(Cart)=  0.00049970 RMS(Int)=  0.14097219
 Iteration 59 RMS(Cart)=  0.00049240 RMS(Int)=  0.13945572
 Iteration 60 RMS(Cart)=  0.00049164 RMS(Int)=  0.13795503
 Iteration 61 RMS(Cart)=  0.00049329 RMS(Int)=  0.13644771
 Iteration 62 RMS(Cart)=  0.00049573 RMS(Int)=  0.13491272
 Iteration 63 RMS(Cart)=  0.00049830 RMS(Int)=  0.13332176
 Iteration 64 RMS(Cart)=  0.00050085 RMS(Int)=  0.13162273
 Iteration 65 RMS(Cart)=  0.00050390 RMS(Int)=  0.12968131
 Iteration 66 RMS(Cart)=  0.00050917 RMS(Int)=  0.12684717
 Iteration 67 RMS(Cart)=  0.00052734 RMS(Int)=  0.17016383
 Iteration 68 RMS(Cart)=  0.00007757 RMS(Int)=  0.16711369
 Iteration 69 RMS(Cart)=  0.00013978 RMS(Int)=  0.13318223
 Iteration 70 RMS(Cart)=  0.00037773 RMS(Int)=  0.16742287
 Iteration 71 RMS(Cart)=  0.00015008 RMS(Int)=  0.16493582
 Iteration 72 RMS(Cart)=  0.00019340 RMS(Int)=  0.13240976
 Iteration 73 RMS(Cart)=  0.00038988 RMS(Int)=  0.16839269
 Iteration 74 RMS(Cart)=  0.00013166 RMS(Int)=  0.16641378
 Iteration 75 RMS(Cart)=  0.00016363 RMS(Int)=  0.16131076
 Iteration 76 RMS(Cart)=  0.00026383 RMS(Int)=  0.13938189
 Iteration 77 RMS(Cart)=  0.00024492 RMS(Int)=  0.15387073
 Iteration 78 RMS(Cart)=  0.00039630 RMS(Int)=  0.14699271
 Iteration 79 RMS(Cart)=  0.00008185 RMS(Int)=  0.14536756
 Iteration 80 RMS(Cart)=  0.00011211 RMS(Int)=  0.14329292
 Iteration 81 RMS(Cart)=  0.00015194 RMS(Int)=  0.13006249
 Iteration 82 RMS(Cart)=  0.00043833 RMS(Int)=  0.17086733
 Iteration 83 RMS(Cart)=  0.00008182 RMS(Int)=  0.16931614
 Iteration 84 RMS(Cart)=  0.00011001 RMS(Int)=  0.16750708
 Iteration 85 RMS(Cart)=  0.00014234 RMS(Int)=  0.16439765
 Iteration 86 RMS(Cart)=  0.00020071 RMS(Int)=  0.13555959
 Iteration 87 RMS(Cart)=  0.00032748 RMS(Int)=  0.16480703
 Iteration 88 RMS(Cart)=  0.00020098 RMS(Int)=  0.15095328
 Iteration 89 RMS(Cart)=  0.00043607 RMS(Int)=  0.14996455
 Iteration 90 RMS(Cart)=  0.00006845 RMS(Int)=  0.14549956
 Iteration 91 RMS(Cart)=  0.00011393 RMS(Int)=  0.14365456
 Iteration 92 RMS(Cart)=  0.00015818 RMS(Int)=  0.14003428
 Iteration 93 RMS(Cart)=  0.00022218 RMS(Int)=  0.16023208
 Iteration 94 RMS(Cart)=  0.00029115 RMS(Int)=  0.13959248
 Iteration 95 RMS(Cart)=  0.00023686 RMS(Int)=  0.15927352
 Iteration 96 RMS(Cart)=  0.00030588 RMS(Int)=  0.14121696
 Iteration 97 RMS(Cart)=  0.00020331 RMS(Int)=  0.12260476
 Iteration 98 RMS(Cart)=  0.00056651 RMS(Int)=  0.17833820
 Iteration 99 RMS(Cart)=  0.00114320 RMS(Int)=  0.17222984
 Iteration100 RMS(Cart)=  0.00019491 RMS(Int)=  0.17023145
 New curvilinear step not converged.
 ITry= 1 IFail=1 DXMaxC= 3.32D-01 DCOld= 1.00D+10 DXMaxT= 1.39D+00 DXLimC= 3.00D+00 Rises=F
 SLEqS3 Cycle:  1021 Max:0.126635E-02 RMS:0.199099E-03 Conv:0.257465E-06
 SLEqS3 Cycle:  1021 Max:0.126635E-02 RMS:0.199099E-03 Conv:0.257465E-06
 Iteration  1 RMS(Cart)=  0.00657162 RMS(Int)=  0.30079544
 Iteration  2 RMS(Cart)=  0.05928005 RMS(Int)=  0.29382617
 Iteration  3 RMS(Cart)=  0.00164315 RMS(Int)=  0.27594663
 Iteration  4 RMS(Cart)=  0.00103269 RMS(Int)=  0.25790259
 Iteration  5 RMS(Cart)=  0.00107318 RMS(Int)=  0.24010219
 Iteration  6 RMS(Cart)=  0.00111459 RMS(Int)=  0.22237903
 Iteration  7 RMS(Cart)=  0.00115298 RMS(Int)=  0.20427247
 Iteration  8 RMS(Cart)=  0.00148754 RMS(Int)=  0.18524437
 Iteration  9 RMS(Cart)=  0.00226192 RMS(Int)=  0.16985894
 Iteration 10 RMS(Cart)=  0.00057641 RMS(Int)=  0.16796506
 Iteration 11 RMS(Cart)=  0.00050298 RMS(Int)=  0.16633143
 Iteration 12 RMS(Cart)=  0.00047493 RMS(Int)=  0.16478737
 Iteration 13 RMS(Cart)=  0.00046016 RMS(Int)=  0.16327877
 Iteration 14 RMS(Cart)=  0.00045089 RMS(Int)=  0.16177789
 Iteration 15 RMS(Cart)=  0.00044417 RMS(Int)=  0.16026378
 Iteration 16 RMS(Cart)=  0.00043869 RMS(Int)=  0.15871355
 Iteration 17 RMS(Cart)=  0.00043387 RMS(Int)=  0.15709217
 Iteration 18 RMS(Cart)=  0.00042956 RMS(Int)=  0.15532698
 Iteration 19 RMS(Cart)=  0.00042623 RMS(Int)=  0.15319258
 Iteration 20 RMS(Cart)=  0.00042617 RMS(Int)=  0.14862369
 Iteration 21 RMS(Cart)=  0.00045023 RMS(Int)=  0.15168070
 Iteration 22 RMS(Cart)=  0.00017695 RMS(Int)=  0.14000868
 Iteration 23 RMS(Cart)=  0.00024369 RMS(Int)=  0.13761949
 Iteration 24 RMS(Cart)=  0.00028214 RMS(Int)=  0.14481236
 Iteration 25 RMS(Cart)=  0.00048032 RMS(Int)=  0.15610535
 Iteration 26 RMS(Cart)=  0.00124301 RMS(Int)=  0.15079732
 Iteration 27 RMS(Cart)=  0.00037760 RMS(Int)=  0.14290031
 Iteration 28 RMS(Cart)=  0.00023228 RMS(Int)=  0.14136361
 Iteration 29 RMS(Cart)=  0.00025200 RMS(Int)=  0.13974163
 Iteration 30 RMS(Cart)=  0.00027287 RMS(Int)=  0.13792341
 Iteration 31 RMS(Cart)=  0.00029670 RMS(Int)=  0.13545559
 Iteration 32 RMS(Cart)=  0.00033222 RMS(Int)=  0.15332097
 Iteration 33 RMS(Cart)=  0.00038396 RMS(Int)=  0.14754564
 Iteration 34 RMS(Cart)=  0.00007016 RMS(Int)=  0.14596813
 Iteration 35 RMS(Cart)=  0.00009898 RMS(Int)=  0.14405430
 Iteration 36 RMS(Cart)=  0.00013342 RMS(Int)=  0.13953249
 Iteration 37 RMS(Cart)=  0.00022553 RMS(Int)=  0.16108577
 Iteration 38 RMS(Cart)=  0.00026397 RMS(Int)=  0.13744442
 Iteration 39 RMS(Cart)=  0.00027457 RMS(Int)=  0.16294475
 Iteration 40 RMS(Cart)=  0.00022743 RMS(Int)=  0.13232862
 Iteration 41 RMS(Cart)=  0.00037590 RMS(Int)=  0.16849436
 Iteration 42 RMS(Cart)=  0.00012068 RMS(Int)=  0.16657912
 Iteration 43 RMS(Cart)=  0.00015268 RMS(Int)=  0.16243203
 Iteration 44 RMS(Cart)=  0.00022873 RMS(Int)=  0.13807867
 Iteration 45 RMS(Cart)=  0.00026552 RMS(Int)=  0.16087087
 Iteration 46 RMS(Cart)=  0.00026244 RMS(Int)=  0.13934385
 Iteration 47 RMS(Cart)=  0.00023693 RMS(Int)=  0.15898914
 Iteration 48 RMS(Cart)=  0.00029442 RMS(Int)=  0.14156403
 Iteration 49 RMS(Cart)=  0.00019073 RMS(Int)=  0.13176609
 Iteration 50 RMS(Cart)=  0.00039200 RMS(Int)=  0.16911065
 Iteration 51 RMS(Cart)=  0.00010932 RMS(Int)=  0.16735019
 Iteration 52 RMS(Cart)=  0.00013920 RMS(Int)=  0.16467210
 Iteration 53 RMS(Cart)=  0.00018627 RMS(Int)=  0.13424092
 Iteration 54 RMS(Cart)=  0.00034385 RMS(Int)=  0.16642101
 Iteration 55 RMS(Cart)=  0.00016048 RMS(Int)=  0.16349132
 Iteration 56 RMS(Cart)=  0.00021058 RMS(Int)=  0.13602229
 Iteration 57 RMS(Cart)=  0.00030695 RMS(Int)=  0.16439066
 Iteration 58 RMS(Cart)=  0.00019886 RMS(Int)=  0.14454820
 Iteration 59 RMS(Cart)=  0.00047624 RMS(Int)=  0.15638194
 Iteration 60 RMS(Cart)=  0.00130636 RMS(Int)=  0.15122309
 Iteration 61 RMS(Cart)=  0.00042438 RMS(Int)=  0.14159238
 Iteration 62 RMS(Cart)=  0.00026376 RMS(Int)=  0.14002827
 Iteration 63 RMS(Cart)=  0.00028250 RMS(Int)=  0.13835145
 Iteration 64 RMS(Cart)=  0.00030259 RMS(Int)=  0.13640012
 Iteration 65 RMS(Cart)=  0.00032696 RMS(Int)=  0.13320463
 Iteration 66 RMS(Cart)=  0.00037430 RMS(Int)=  0.16619833
 Iteration 67 RMS(Cart)=  0.00015790 RMS(Int)=  0.14168630
 Iteration 68 RMS(Cart)=  0.00049759 RMS(Int)=  0.15925550
 Iteration 69 RMS(Cart)=  0.00191181 RMS(Int)=  0.15521825
 Iteration 70 RMS(Cart)=  0.00052480 RMS(Int)=  0.13710389
 Iteration 71 RMS(Cart)=  0.00041830 RMS(Int)=  0.13553056
 Iteration 72 RMS(Cart)=  0.00042608 RMS(Int)=  0.13385973
 Iteration 73 RMS(Cart)=  0.00043427 RMS(Int)=  0.13197462
 Iteration 74 RMS(Cart)=  0.00044475 RMS(Int)=  0.12937005
 Iteration 75 RMS(Cart)=  0.00046513 RMS(Int)=  0.16267306
 Iteration 76 RMS(Cart)=  0.00022052 RMS(Int)=  0.13789224
 Iteration 77 RMS(Cart)=  0.00026870 RMS(Int)=  0.16115967
 Iteration 78 RMS(Cart)=  0.00025813 RMS(Int)=  0.13896803
 Iteration 79 RMS(Cart)=  0.00024399 RMS(Int)=  0.15998678
 Iteration 80 RMS(Cart)=  0.00027763 RMS(Int)=  0.14037291
 Iteration 81 RMS(Cart)=  0.00021461 RMS(Int)=  0.15331705
 Iteration 82 RMS(Cart)=  0.00038457 RMS(Int)=  0.14754652
 Iteration 83 RMS(Cart)=  0.00007005 RMS(Int)=  0.14596965
 Iteration 84 RMS(Cart)=  0.00009823 RMS(Int)=  0.14406194
 Iteration 85 RMS(Cart)=  0.00013315 RMS(Int)=  0.13961755
 Iteration 86 RMS(Cart)=  0.00022345 RMS(Int)=  0.16098593
 Iteration 87 RMS(Cart)=  0.00026590 RMS(Int)=  0.13771430
 Iteration 88 RMS(Cart)=  0.00026873 RMS(Int)=  0.16260536
 Iteration 89 RMS(Cart)=  0.00023373 RMS(Int)=  0.13458321
 Iteration 90 RMS(Cart)=  0.00033182 RMS(Int)=  0.16613237
 Iteration 91 RMS(Cart)=  0.00016713 RMS(Int)=  0.16304058
 Iteration 92 RMS(Cart)=  0.00022062 RMS(Int)=  0.13673807
 Iteration 93 RMS(Cart)=  0.00029181 RMS(Int)=  0.16347889
 Iteration 94 RMS(Cart)=  0.00021596 RMS(Int)=  0.13101003
 Iteration 95 RMS(Cart)=  0.00040536 RMS(Int)=  0.16984655
 Iteration 96 RMS(Cart)=  0.00009423 RMS(Int)=  0.16818800
 Iteration 97 RMS(Cart)=  0.00012291 RMS(Int)=  0.16599539
 Iteration 98 RMS(Cart)=  0.00016100 RMS(Int)=  0.09974987
 Iteration 99 RMS(Cart)=  0.00069078 RMS(Int)=  0.20122149
 Iteration100 RMS(Cart)=  0.00538248 RMS(Int)=  0.19897354
 New curvilinear step not converged.
 ITry= 2 IFail=1 DXMaxC= 3.31D-01 DCOld= 1.00D+10 DXMaxT= 1.39D+00 DXLimC= 3.00D+00 Rises=F
slurmstepd: error: *** JOB 27504957 ON lewis4-r630-hpc4-node674 CANCELLED AT 2023-05-28T21:45:28 DUE TO TIME LIMIT ***
