### Starting Gaussian ###
 Entering Gaussian System, Link 0=g16
 Initial command:
 /cluster/software/gaussian/gaussian-16-A.03/avx2/g16/l1.exe "/local/scratch/ks29c/Gau-28315.inp" -scrdir="/local/scratch/ks29c/"
 Entering Link 1 = /cluster/software/gaussian/gaussian-16-A.03/avx2/g16/l1.exe PID=     28316.
  
 Copyright (c) 1988,1990,1992,1993,1995,1998,2003,2009,2016,
            Gaussian, Inc.  All Rights Reserved.
  
 This is part of the Gaussian(R) 16 program.  It is based on
 the Gaussian(R) 09 system (copyright 2009, Gaussian, Inc.),
 the Gaussian(R) 03 system (copyright 2003, Gaussian, Inc.),
 the Gaussian(R) 98 system (copyright 1998, Gaussian, Inc.),
 the Gaussian(R) 94 system (copyright 1995, Gaussian, Inc.),
 the Gaussian 92(TM) system (copyright 1992, Gaussian, Inc.),
 the Gaussian 90(TM) system (copyright 1990, Gaussian, Inc.),
 the Gaussian 88(TM) system (copyright 1988, Gaussian, Inc.),
 the Gaussian 86(TM) system (copyright 1986, Carnegie Mellon
 University), and the Gaussian 82(TM) system (copyright 1983,
 Carnegie Mellon University). Gaussian is a federally registered
 trademark of Gaussian, Inc.
  
 This software contains proprietary and confidential information,
 including trade secrets, belonging to Gaussian, Inc.
  
 This software is provided under written license and may be
 used, copied, transmitted, or stored only in accord with that
 written license.
  
 The following legend is applicable only to US Government
 contracts under FAR:
  
                    RESTRICTED RIGHTS LEGEND
  
 Use, reproduction and disclosure by the US Government is
 subject to restrictions as set forth in subparagraphs (a)
 and (c) of the Commercial Computer Software - Restricted
 Rights clause in FAR 52.227-19.
  
 Gaussian, Inc.
 340 Quinnipiac St., Bldg. 40, Wallingford CT 06492
  
  
 ---------------------------------------------------------------
 Warning -- This program may not be used in any manner that
 competes with the business of Gaussian, Inc. or will provide
 assistance to any competitor of Gaussian, Inc.  The licensee
 of this program is prohibited from giving any competitor of
 Gaussian, Inc. access to this program.  By using this program,
 the user acknowledges that Gaussian, Inc. is engaged in the
 business of creating and licensing software in the field of
 computational chemistry and represents and warrants to the
 licensee that it is not a competitor of Gaussian, Inc. and that
 it will not use this program in any manner prohibited above.
 ---------------------------------------------------------------
  

 Cite this work as:
 Gaussian 16, Revision A.03,
 M. J. Frisch, G. W. Trucks, H. B. Schlegel, G. E. Scuseria, 
 M. A. Robb, J. R. Cheeseman, G. Scalmani, V. Barone, 
 G. A. Petersson, H. Nakatsuji, X. Li, M. Caricato, A. V. Marenich, 
 J. Bloino, B. G. Janesko, R. Gomperts, B. Mennucci, H. P. Hratchian, 
 J. V. Ortiz, A. F. Izmaylov, J. L. Sonnenberg, D. Williams-Young, 
 F. Ding, F. Lipparini, F. Egidi, J. Goings, B. Peng, A. Petrone, 
 T. Henderson, D. Ranasinghe, V. G. Zakrzewski, J. Gao, N. Rega, 
 G. Zheng, W. Liang, M. Hada, M. Ehara, K. Toyota, R. Fukuda, 
 J. Hasegawa, M. Ishida, T. Nakajima, Y. Honda, O. Kitao, H. Nakai, 
 T. Vreven, K. Throssell, J. A. Montgomery, Jr., J. E. Peralta, 
 F. Ogliaro, M. J. Bearpark, J. J. Heyd, E. N. Brothers, K. N. Kudin, 
 V. N. Staroverov, T. A. Keith, R. Kobayashi, J. Normand, 
 K. Raghavachari, A. P. Rendell, J. C. Burant, S. S. Iyengar, 
 J. Tomasi, M. Cossi, J. M. Millam, M. Klene, C. Adamo, R. Cammi, 
 J. W. Ochterski, R. L. Martin, K. Morokuma, O. Farkas, 
 J. B. Foresman, and D. J. Fox, Gaussian, Inc., Wallingford CT, 2016.
 
 ******************************************
 Gaussian 16:  ES64L-G16RevA.03 25-Dec-2016
                22-May-2023 
 ******************************************
 %chk=CdCCCqCrCCCqCrCOCCO.chk
 %NProcShared=20
 Will use up to   20 processors via shared memory.
 -----------------------------
 # opt freq b3lyp/6-31g(2df,p)
 -----------------------------
 1/18=20,19=15,26=3,38=1/1,3;
 2/9=110,12=2,17=6,18=5,40=1/2;
 3/5=1,6=6,7=104,11=2,25=1,30=1,71=1,74=-5/1,2,3;
 4//1;
 5/5=2,38=5/2;
 6/7=2,8=2,9=2,10=2,28=1/1;
 7//1,2,3,16;
 1/18=20,19=15,26=3/3(2);
 2/9=110/2;
 99//99;
 2/9=110/2;
 3/5=1,6=6,7=104,11=2,25=1,30=1,71=1,74=-5/1,2,3;
 4/5=5,16=3,69=1/1;
 5/5=2,38=5/2;
 7//1,2,3,16;
 1/18=20,19=15,26=3/3(-5);
 2/9=110/2;
 6/7=2,8=2,9=2,10=2,19=2,28=1/1;
 99/9=1/99;
 -------------------
 Title Card Required
 -------------------
 Symbolic Z-matrix:
 Charge =  0 Multiplicity = 1
 C                     0.92436  -0.02788   0.10644 
 C                     2.2637   -0.04449   0.13652 
 C                     3.07445   0.89299   0.9791 
 C                     4.58582   0.72289   0.74381 
 C                     4.96297   1.00101  -0.71502 
 C                     5.3437    1.66197   1.68795 
 C                     6.85575   1.49377   1.56898 
 C                     7.62532   2.42808   2.49971 
 C                     7.27653   2.17261   3.96568 
 C                     9.12002   2.22771   2.2534 
 O                     9.85179   3.12083   3.08388 
 C                     11.24893   2.93316   2.91253 
 C                     12.0018   3.87969   3.83296 
 O                     13.40516   3.71388   3.67436 
 H                     0.38606  -0.71127  -0.53929 
 H                     0.35793   0.66116   0.72098 
 H                     2.78453  -0.76215  -0.49095 
 H                     2.84655   0.70827   2.03742 
 H                     2.78956   1.93063   0.76027 
 H                     4.86402  -0.31081   0.99299 
 H                     4.73338   2.03849  -0.9779 
 H                     4.43297   0.34483  -1.40793 
 H                     6.02575   0.82499  -0.89813 
 H                     5.02131   1.44108   2.7113 
 H                     5.07383   2.70649   1.48689 
 H                     7.18055   1.71267   0.54621 
 H                     7.12509   0.44867   1.76992 
 H                     7.36785   3.46911   2.26273 
 H                     7.5008    1.13594   4.23801 
 H                     6.21717   2.35538   4.16486 
 H                     7.83703   2.8365    4.62837 
 H                     9.36393   2.43055   1.2029 
 H                     9.40421   1.19293   2.48262 
 H                     11.52782   3.12182   1.86954 
 H                     11.51671   1.89622   3.1491 
 H                     11.73409   3.70077   4.88011 
 H                     11.73989   4.91872   3.608 
 H                     13.61444   2.79207   3.90304 
 

 GradGradGradGradGradGradGradGradGradGradGradGradGradGradGradGradGradGrad
 Berny optimization.
 Initialization pass.
                           ----------------------------
                           !    Initial Parameters    !
                           ! (Angstroms and Degrees)  !
 --------------------------                            --------------------------
 ! Name  Definition              Value          Derivative Info.                !
 --------------------------------------------------------------------------------
 ! R1    R(1,2)                  1.3398         estimate D2E/DX2                !
 ! R2    R(1,15)                 1.0834         estimate D2E/DX2                !
 ! R3    R(1,16)                 1.0832         estimate D2E/DX2                !
 ! R4    R(2,3)                  1.4987         estimate D2E/DX2                !
 ! R5    R(2,17)                 1.0863         estimate D2E/DX2                !
 ! R6    R(3,4)                  1.539          estimate D2E/DX2                !
 ! R7    R(3,18)                 1.0982         estimate D2E/DX2                !
 ! R8    R(3,19)                 1.0981         estimate D2E/DX2                !
 ! R9    R(4,5)                  1.5322         estimate D2E/DX2                !
 ! R10   R(4,6)                  1.5322         estimate D2E/DX2                !
 ! R11   R(4,20)                 1.0991         estimate D2E/DX2                !
 ! R12   R(5,21)                 1.0946         estimate D2E/DX2                !
 ! R13   R(5,22)                 1.0916         estimate D2E/DX2                !
 ! R14   R(5,23)                 1.0927         estimate D2E/DX2                !
 ! R15   R(6,7)                  1.526          estimate D2E/DX2                !
 ! R16   R(6,24)                 1.0954         estimate D2E/DX2                !
 ! R17   R(6,25)                 1.0974         estimate D2E/DX2                !
 ! R18   R(7,8)                  1.5269         estimate D2E/DX2                !
 ! R19   R(7,26)                 1.0952         estimate D2E/DX2                !
 ! R20   R(7,27)                 1.0978         estimate D2E/DX2                !
 ! R21   R(8,9)                  1.5284         estimate D2E/DX2                !
 ! R22   R(8,10)                 1.5281         estimate D2E/DX2                !
 ! R23   R(8,28)                 1.0983         estimate D2E/DX2                !
 ! R24   R(9,29)                 1.0951         estimate D2E/DX2                !
 ! R25   R(9,30)                 1.0933         estimate D2E/DX2                !
 ! R26   R(9,31)                 1.0927         estimate D2E/DX2                !
 ! R27   R(10,11)                1.4223         estimate D2E/DX2                !
 ! R28   R(10,32)                1.0974         estimate D2E/DX2                !
 ! R29   R(10,33)                1.0973         estimate D2E/DX2                !
 ! R30   R(11,12)                1.4201         estimate D2E/DX2                !
 ! R31   R(12,13)                1.5198         estimate D2E/DX2                !
 ! R32   R(12,34)                1.096          estimate D2E/DX2                !
 ! R33   R(12,35)                1.0968         estimate D2E/DX2                !
 ! R34   R(13,14)                1.422          estimate D2E/DX2                !
 ! R35   R(13,36)                1.0955         estimate D2E/DX2                !
 ! R36   R(13,37)                1.0949         estimate D2E/DX2                !
 ! R37   R(14,38)                0.9725         estimate D2E/DX2                !
 ! A1    A(2,1,15)             120.1496         estimate D2E/DX2                !
 ! A2    A(2,1,16)             121.1921         estimate D2E/DX2                !
 ! A3    A(15,1,16)            118.6583         estimate D2E/DX2                !
 ! A4    A(1,2,3)              123.0695         estimate D2E/DX2                !
 ! A5    A(1,2,17)             118.3283         estimate D2E/DX2                !
 ! A6    A(3,2,17)             118.596          estimate D2E/DX2                !
 ! A7    A(2,3,4)              112.0962         estimate D2E/DX2                !
 ! A8    A(2,3,18)             108.9234         estimate D2E/DX2                !
 ! A9    A(2,3,19)             109.7984         estimate D2E/DX2                !
 ! A10   A(4,3,18)             109.4224         estimate D2E/DX2                !
 ! A11   A(4,3,19)             109.1938         estimate D2E/DX2                !
 ! A12   A(18,3,19)            107.2864         estimate D2E/DX2                !
 ! A13   A(3,4,5)              111.5443         estimate D2E/DX2                !
 ! A14   A(3,4,6)              108.8931         estimate D2E/DX2                !
 ! A15   A(3,4,20)             108.5335         estimate D2E/DX2                !
 ! A16   A(5,4,6)              110.7123         estimate D2E/DX2                !
 ! A17   A(5,4,20)             108.9206         estimate D2E/DX2                !
 ! A18   A(6,4,20)             108.1512         estimate D2E/DX2                !
 ! A19   A(4,5,21)             110.4299         estimate D2E/DX2                !
 ! A20   A(4,5,22)             112.0696         estimate D2E/DX2                !
 ! A21   A(4,5,23)             111.6975         estimate D2E/DX2                !
 ! A22   A(21,5,22)            108.3886         estimate D2E/DX2                !
 ! A23   A(21,5,23)            108.4474         estimate D2E/DX2                !
 ! A24   A(22,5,23)            105.6062         estimate D2E/DX2                !
 ! A25   A(4,6,7)              111.9941         estimate D2E/DX2                !
 ! A26   A(4,6,24)             107.8478         estimate D2E/DX2                !
 ! A27   A(4,6,25)             110.4156         estimate D2E/DX2                !
 ! A28   A(7,6,24)             110.0119         estimate D2E/DX2                !
 ! A29   A(7,6,25)             109.5296         estimate D2E/DX2                !
 ! A30   A(24,6,25)            106.9008         estimate D2E/DX2                !
 ! A31   A(6,7,8)              112.6082         estimate D2E/DX2                !
 ! A32   A(6,7,26)             110.1589         estimate D2E/DX2                !
 ! A33   A(6,7,27)             109.4972         estimate D2E/DX2                !
 ! A34   A(8,7,26)             107.3056         estimate D2E/DX2                !
 ! A35   A(8,7,27)             110.3221         estimate D2E/DX2                !
 ! A36   A(26,7,27)            106.7652         estimate D2E/DX2                !
 ! A37   A(7,8,9)              111.553          estimate D2E/DX2                !
 ! A38   A(7,8,10)             108.3315         estimate D2E/DX2                !
 ! A39   A(7,8,28)             109.2885         estimate D2E/DX2                !
 ! A40   A(9,8,10)             110.8496         estimate D2E/DX2                !
 ! A41   A(9,8,28)             108.1739         estimate D2E/DX2                !
 ! A42   A(10,8,28)            108.5921         estimate D2E/DX2                !
 ! A43   A(8,9,29)             110.4894         estimate D2E/DX2                !
 ! A44   A(8,9,30)             111.5873         estimate D2E/DX2                !
 ! A45   A(8,9,31)             111.2892         estimate D2E/DX2                !
 ! A46   A(29,9,30)            108.1433         estimate D2E/DX2                !
 ! A47   A(29,9,31)            108.6199         estimate D2E/DX2                !
 ! A48   A(30,9,31)            106.5563         estimate D2E/DX2                !
 ! A49   A(8,10,11)            109.0756         estimate D2E/DX2                !
 ! A50   A(8,10,32)            110.3339         estimate D2E/DX2                !
 ! A51   A(8,10,33)            110.0793         estimate D2E/DX2                !
 ! A52   A(11,10,32)           109.1806         estimate D2E/DX2                !
 ! A53   A(11,10,33)           109.6909         estimate D2E/DX2                !
 ! A54   A(32,10,33)           108.4647         estimate D2E/DX2                !
 ! A55   A(10,11,12)           110.6561         estimate D2E/DX2                !
 ! A56   A(11,12,13)           109.3893         estimate D2E/DX2                !
 ! A57   A(11,12,34)           110.0253         estimate D2E/DX2                !
 ! A58   A(11,12,35)           109.8239         estimate D2E/DX2                !
 ! A59   A(13,12,34)           110.0638         estimate D2E/DX2                !
 ! A60   A(13,12,35)           109.7085         estimate D2E/DX2                !
 ! A61   A(34,12,35)           107.8112         estimate D2E/DX2                !
 ! A62   A(12,13,14)           110.4081         estimate D2E/DX2                !
 ! A63   A(12,13,36)           110.8609         estimate D2E/DX2                !
 ! A64   A(12,13,37)           110.37           estimate D2E/DX2                !
 ! A65   A(14,13,36)           109.1914         estimate D2E/DX2                !
 ! A66   A(14,13,37)           108.8938         estimate D2E/DX2                !
 ! A67   A(36,13,37)           107.0328         estimate D2E/DX2                !
 ! A68   A(13,14,38)           107.2575         estimate D2E/DX2                !
 ! D1    D(15,1,2,3)           178.4651         estimate D2E/DX2                !
 ! D2    D(15,1,2,17)           -0.6124         estimate D2E/DX2                !
 ! D3    D(16,1,2,3)            -1.581          estimate D2E/DX2                !
 ! D4    D(16,1,2,17)          179.3414         estimate D2E/DX2                !
 ! D5    D(1,2,3,4)           -175.828          estimate D2E/DX2                !
 ! D6    D(1,2,3,18)            62.9352         estimate D2E/DX2                !
 ! D7    D(1,2,3,19)           -54.2764         estimate D2E/DX2                !
 ! D8    D(17,2,3,4)             3.2473         estimate D2E/DX2                !
 ! D9    D(17,2,3,18)         -117.9896         estimate D2E/DX2                !
 ! D10   D(17,2,3,19)          124.7989         estimate D2E/DX2                !
 ! D11   D(2,3,4,5)             60.3221         estimate D2E/DX2                !
 ! D12   D(2,3,4,6)           -177.1975         estimate D2E/DX2                !
 ! D13   D(2,3,4,20)           -59.6805         estimate D2E/DX2                !
 ! D14   D(18,3,4,5)          -178.7287         estimate D2E/DX2                !
 ! D15   D(18,3,4,6)           -56.2483         estimate D2E/DX2                !
 ! D16   D(18,3,4,20)           61.2686         estimate D2E/DX2                !
 ! D17   D(19,3,4,5)           -61.5757         estimate D2E/DX2                !
 ! D18   D(19,3,4,6)            60.9047         estimate D2E/DX2                !
 ! D19   D(19,3,4,20)          178.4216         estimate D2E/DX2                !
 ! D20   D(3,4,5,21)            62.5202         estimate D2E/DX2                !
 ! D21   D(3,4,5,22)           -58.4287         estimate D2E/DX2                !
 ! D22   D(3,4,5,23)          -176.707          estimate D2E/DX2                !
 ! D23   D(6,4,5,21)           -58.9101         estimate D2E/DX2                !
 ! D24   D(6,4,5,22)          -179.859          estimate D2E/DX2                !
 ! D25   D(6,4,5,23)            61.8627         estimate D2E/DX2                !
 ! D26   D(20,4,5,21)         -177.7055         estimate D2E/DX2                !
 ! D27   D(20,4,5,22)           61.3456         estimate D2E/DX2                !
 ! D28   D(20,4,5,23)          -56.9327         estimate D2E/DX2                !
 ! D29   D(3,4,6,7)            176.7844         estimate D2E/DX2                !
 ! D30   D(3,4,6,24)            55.6004         estimate D2E/DX2                !
 ! D31   D(3,4,6,25)           -60.8695         estimate D2E/DX2                !
 ! D32   D(5,4,6,7)            -60.235          estimate D2E/DX2                !
 ! D33   D(5,4,6,24)           178.5811         estimate D2E/DX2                !
 ! D34   D(5,4,6,25)            62.1112         estimate D2E/DX2                !
 ! D35   D(20,4,6,7)            59.0253         estimate D2E/DX2                !
 ! D36   D(20,4,6,24)          -62.1586         estimate D2E/DX2                !
 ! D37   D(20,4,6,25)         -178.6285         estimate D2E/DX2                !
 ! D38   D(4,6,7,8)            179.7364         estimate D2E/DX2                !
 ! D39   D(4,6,7,26)            59.9918         estimate D2E/DX2                !
 ! D40   D(4,6,7,27)           -57.1341         estimate D2E/DX2                !
 ! D41   D(24,6,7,8)           -60.337          estimate D2E/DX2                !
 ! D42   D(24,6,7,26)          179.9184         estimate D2E/DX2                !
 ! D43   D(24,6,7,27)           62.7925         estimate D2E/DX2                !
 ! D44   D(25,6,7,8)            56.8867         estimate D2E/DX2                !
 ! D45   D(25,6,7,26)          -62.8579         estimate D2E/DX2                !
 ! D46   D(25,6,7,27)         -179.9838         estimate D2E/DX2                !
 ! D47   D(6,7,8,9)             60.4312         estimate D2E/DX2                !
 ! D48   D(6,7,8,10)          -177.2927         estimate D2E/DX2                !
 ! D49   D(6,7,8,28)           -59.1413         estimate D2E/DX2                !
 ! D50   D(26,7,8,9)          -178.1855         estimate D2E/DX2                !
 ! D51   D(26,7,8,10)          -55.9095         estimate D2E/DX2                !
 ! D52   D(26,7,8,28)           62.2419         estimate D2E/DX2                !
 ! D53   D(27,7,8,9)           -62.2365         estimate D2E/DX2                !
 ! D54   D(27,7,8,10)           60.0396         estimate D2E/DX2                !
 ! D55   D(27,7,8,28)          178.191          estimate D2E/DX2                !
 ! D56   D(7,8,9,29)            58.6672         estimate D2E/DX2                !
 ! D57   D(7,8,9,30)           -61.6876         estimate D2E/DX2                !
 ! D58   D(7,8,9,31)           179.4258         estimate D2E/DX2                !
 ! D59   D(10,8,9,29)          -62.1489         estimate D2E/DX2                !
 ! D60   D(10,8,9,30)          177.4963         estimate D2E/DX2                !
 ! D61   D(10,8,9,31)           58.6097         estimate D2E/DX2                !
 ! D62   D(28,8,9,29)          178.8971         estimate D2E/DX2                !
 ! D63   D(28,8,9,30)           58.5423         estimate D2E/DX2                !
 ! D64   D(28,8,9,31)          -60.3443         estimate D2E/DX2                !
 ! D65   D(7,8,10,11)          178.2291         estimate D2E/DX2                !
 ! D66   D(7,8,10,32)           58.3027         estimate D2E/DX2                !
 ! D67   D(7,8,10,33)          -61.3731         estimate D2E/DX2                !
 ! D68   D(9,8,10,11)          -59.0663         estimate D2E/DX2                !
 ! D69   D(9,8,10,32)         -178.9928         estimate D2E/DX2                !
 ! D70   D(9,8,10,33)           61.3314         estimate D2E/DX2                !
 ! D71   D(28,8,10,11)          59.6352         estimate D2E/DX2                !
 ! D72   D(28,8,10,32)         -60.2912         estimate D2E/DX2                !
 ! D73   D(28,8,10,33)        -179.967          estimate D2E/DX2                !
 ! D74   D(8,10,11,12)         178.157          estimate D2E/DX2                !
 ! D75   D(32,10,11,12)        -61.2071         estimate D2E/DX2                !
 ! D76   D(33,10,11,12)         57.5209         estimate D2E/DX2                !
 ! D77   D(10,11,12,13)       -178.8185         estimate D2E/DX2                !
 ! D78   D(10,11,12,34)         60.1593         estimate D2E/DX2                !
 ! D79   D(10,11,12,35)        -58.3606         estimate D2E/DX2                !
 ! D80   D(11,12,13,14)       -179.7395         estimate D2E/DX2                !
 ! D81   D(11,12,13,36)         59.1205         estimate D2E/DX2                !
 ! D82   D(11,12,13,37)        -59.2957         estimate D2E/DX2                !
 ! D83   D(34,12,13,14)        -58.7407         estimate D2E/DX2                !
 ! D84   D(34,12,13,36)       -179.8806         estimate D2E/DX2                !
 ! D85   D(34,12,13,37)         61.7032         estimate D2E/DX2                !
 ! D86   D(35,12,13,14)         59.7321         estimate D2E/DX2                !
 ! D87   D(35,12,13,36)        -61.4078         estimate D2E/DX2                !
 ! D88   D(35,12,13,37)       -179.824          estimate D2E/DX2                !
 ! D89   D(12,13,14,38)        -60.2046         estimate D2E/DX2                !
 ! D90   D(36,13,14,38)         61.9232         estimate D2E/DX2                !
 ! D91   D(37,13,14,38)        178.4711         estimate D2E/DX2                !
 --------------------------------------------------------------------------------
 Trust Radius=3.00D-01 FncErr=1.00D-07 GrdErr=1.00D-06 EigMax=2.50D+02 EigMin=1.00D-04
 Number of steps in this run=    206 maximum allowed number of steps=    228.
 GradGradGradGradGradGradGradGradGradGradGradGradGradGradGradGradGradGrad

                          Input orientation:                          
 ---------------------------------------------------------------------
 Center     Atomic      Atomic             Coordinates (Angstroms)
 Number     Number       Type             X           Y           Z
 ---------------------------------------------------------------------
      1          6           0        0.924360   -0.027880    0.106440
      2          6           0        2.263700   -0.044490    0.136520
      3          6           0        3.074450    0.892990    0.979100
      4          6           0        4.585820    0.722890    0.743810
      5          6           0        4.962970    1.001010   -0.715020
      6          6           0        5.343700    1.661970    1.687950
      7          6           0        6.855750    1.493770    1.568980
      8          6           0        7.625320    2.428080    2.499710
      9          6           0        7.276530    2.172610    3.965680
     10          6           0        9.120020    2.227710    2.253400
     11          8           0        9.851790    3.120830    3.083880
     12          6           0       11.248930    2.933160    2.912530
     13          6           0       12.001800    3.879690    3.832960
     14          8           0       13.405160    3.713880    3.674360
     15          1           0        0.386060   -0.711270   -0.539290
     16          1           0        0.357930    0.661160    0.720980
     17          1           0        2.784530   -0.762150   -0.490950
     18          1           0        2.846550    0.708270    2.037420
     19          1           0        2.789560    1.930630    0.760270
     20          1           0        4.864020   -0.310810    0.992990
     21          1           0        4.733380    2.038490   -0.977900
     22          1           0        4.432970    0.344830   -1.407930
     23          1           0        6.025750    0.824990   -0.898130
     24          1           0        5.021310    1.441080    2.711300
     25          1           0        5.073830    2.706490    1.486890
     26          1           0        7.180550    1.712670    0.546210
     27          1           0        7.125090    0.448670    1.769920
     28          1           0        7.367850    3.469110    2.262730
     29          1           0        7.500800    1.135940    4.238010
     30          1           0        6.217170    2.355380    4.164860
     31          1           0        7.837030    2.836500    4.628370
     32          1           0        9.363930    2.430550    1.202900
     33          1           0        9.404210    1.192930    2.482620
     34          1           0       11.527820    3.121820    1.869540
     35          1           0       11.516710    1.896220    3.149100
     36          1           0       11.734090    3.700770    4.880110
     37          1           0       11.739890    4.918720    3.608000
     38          1           0       13.614440    2.792070    3.903040
 ---------------------------------------------------------------------
                    Distance matrix (angstroms):
                    1          2          3          4          5
     1  C    0.000000
     2  C    1.339781   0.000000
     3  C    2.496482   1.498708   0.000000
     4  C    3.791594   2.519904   1.539004   0.000000
     5  C    4.247797   3.017325   2.539334   1.532246   0.000000
     6  C    4.988721   3.847771   2.498658   1.532205   2.521128
     7  C    6.295699   5.050258   3.873903   2.535300   3.007006
     8  C    7.527440   6.359657   5.037775   3.902489   4.411250
     9  C    7.751513   6.686289   5.311738   4.440952   5.351090
    10  C    8.767324   7.526832   6.320936   5.010221   5.253320
    11  O    9.923635   8.734145   7.438125   6.241513   6.544145
    12  C   11.101290   9.864431   8.644222   7.347494   7.510367
    13  C   12.323381  11.130743   9.836792   8.631628   8.860928
    14  O   13.509300  12.278998  11.042890   9.762935   9.894286
    15  H    1.083400   2.104007   3.479454   4.619648   4.889876
    16  H    1.083180   2.114591   2.738586   4.228402   4.835699
    17  H    2.087165   1.086287   2.232619   2.640951   2.811502
    18  H    2.822307   2.125978   1.098226   2.167649   3.484373
    19  H    2.782486   2.136982   1.098065   2.164592   2.786465
    20  H    4.048079   2.750660   2.156824   1.099100   2.155913
    21  H    4.467025   3.417610   2.809638   2.171834   1.094615
    22  H    3.839606   2.691213   2.800709   2.190041   1.091603
    23  H    5.268845   3.997439   3.498398   2.186273   1.092709
    24  H    5.072291   4.054728   2.662928   2.139267   3.454958
    25  H    5.157569   4.157911   2.746662   2.173704   2.787357
    26  H    6.508673   5.237449   4.209433   2.784122   2.648551
    27  H    6.437648   5.152118   4.150964   2.752452   3.339876
    28  H    7.641799   6.551221   5.168886   4.193869   4.554334
    29  H    7.853274   6.755949   5.502008   4.569152   5.566982
    30  H    7.082693   6.133256   4.707902   4.126731   5.217333
    31  H    8.742856   7.716141   6.306867   5.488854   6.338853
    32  H    8.858467   7.594488   6.478560   5.094821   5.009037
    33  H    8.890695   7.617235   6.512787   5.144053   5.475979
    34  H   11.201004   9.942474   8.787493   7.430579   7.367160
    35  H   11.187396   9.922711   8.774231   7.429627   7.660570
    36  H   12.391167  11.234630   9.904084   8.779209   9.189246
    37  H   12.397801  11.246457   9.909968   8.774354   8.942237
    38  H   13.542689  12.291137  11.101681   9.786635   9.969068
                    6          7          8          9         10
     6  C    0.000000
     7  C    1.526021   0.000000
     8  C    2.540014   1.526903   0.000000
     9  C    3.030617   2.526272   1.528394   0.000000
    10  C    3.860102   2.476695   1.528053   2.516624   0.000000
    11  O    4.939612   3.730751   2.403815   2.882474   1.422269
    12  C    6.163381   4.814250   3.681858   4.179417   2.337599
    13  C    7.338232   6.107377   4.799823   5.025924   3.678139
    14  O    8.552385   7.228851   6.036525   6.326175   4.752921
    15  H    5.930519   7.152894   8.455645   8.722964   9.629059
    16  H    5.176346   6.605604   7.687707   7.789710   9.031977
    17  H    4.144070   5.089923   6.523409   6.975129   7.523905
    18  H    2.695817   4.112193   5.099814   5.048485   6.458465
    19  H    2.730641   4.168784   5.163108   5.519611   6.510946
    20  H    2.145908   2.748684   4.170911   4.563383   5.113341
    21  H    2.760618   3.359728   4.539699   5.560988   5.451579
    22  H    3.485507   4.006485   5.459000   6.348409   6.238510
    23  H    2.802416   2.687526   4.083361   5.199729   4.634034
    24  H    1.095433   2.161676   2.792814   2.682279   4.198557
    25  H    1.097396   2.157004   2.759242   3.358767   4.145892
    26  H    2.163367   1.095204   2.127391   3.451598   2.634636
    27  H    2.156888   1.097795   2.168153   2.795758   2.716336
    28  H    2.773682   2.155343   1.098269   2.142263   2.147385
    29  H    3.381212   2.769089   2.169520   1.095055   2.784333
    30  H    2.716404   2.808692   2.181948   1.093307   3.478005
    31  H    4.030172   3.482198   2.177802   1.092734   2.767159
    32  H    4.121679   2.702321   2.168983   3.472280   1.097354
    33  H    4.164041   2.723948   2.165719   2.772411   1.097304
    34  H    6.356688   4.956725   4.013464   4.834074   2.596976
    35  H    6.347904   4.937944   3.980892   4.326930   2.579978
    36  H    7.428572   6.295445   4.916100   4.800135   3.987841
    37  H    7.429957   6.304182   4.935715   5.252679   3.992517
    38  H    8.636486   7.267277   6.162092   6.368419   4.820749
                   11         12         13         14         15
    11  O    0.000000
    12  C    1.420064   0.000000
    13  C    2.399903   1.519843   0.000000
    14  O    3.650591   2.416451   1.421994   0.000000
    15  H   10.835700  11.966573  13.233250  14.381716   0.000000
    16  H   10.087946  11.339257  12.474897  13.721216   1.863501
    17  H    8.820607   9.843021  11.189323  12.254894   2.399497
    18  H    7.482574   8.735900   9.853957  11.099437   3.835171
    19  H    7.529331   8.786252   9.904828  11.151810   3.800698
    20  H    6.405140   7.414516   8.750636   9.815241   4.749776
    21  H    6.623265   7.641222   8.908665   9.982496   5.162630
    22  H    7.566118   8.474853   9.861509  10.848058   4.271693
    23  H    5.980457   6.800523   8.211430   9.149265   5.856190
    24  H    5.127759   6.407031   7.478782   8.739682   6.056772
    25  H    5.054795   6.341584   7.407915   8.672423   6.145053
    26  H    3.944389   4.862179   6.224400   7.248168   7.295128
    27  H    4.037552   4.948162   6.309543   7.329923   7.217509
    28  H    2.639232   3.971431   4.909958   6.204976   8.606526
    29  H    3.286177   4.362955   5.286892   6.467221   8.766659
    30  H    3.868449   5.217353   5.991296   7.331665   8.095382
    31  H    2.554516   3.820276   4.366490   5.716992   9.736957
    32  H    2.062178   2.593969   3.996946   4.907809   9.669975
    33  H    2.068487   2.572200   3.973609   4.876785   9.699740
    34  H    2.069710   1.095993   2.157323   2.670640  12.026382
    35  H    2.067821   1.096775   2.153400   2.673206  12.012268
    36  H    2.665676   2.167020   1.095538   2.060699  13.327182
    37  H    2.659329   2.160363   1.094891   2.056494  13.334401
    38  H    3.864795   2.568395   1.946391   0.972536  14.387415
                   16         17         18         19         20
    16  H    0.000000
    17  H    3.063164   0.000000
    18  H    2.815753   2.925515   0.000000
    19  H    2.743341   2.969283   1.768763   0.000000
    20  H    4.617744   2.594237   2.489888   3.062939   0.000000
    21  H    4.891604   3.446552   3.797600   2.609848   3.069313
    22  H    4.608500   2.187147   3.810414   3.149071   2.525883
    23  H    5.896825   3.631847   4.328786   3.800744   2.493189
    24  H    5.129987   4.484620   2.391800   3.004478   2.458953
    25  H    5.197086   4.602631   3.042490   2.519489   3.064646
    26  H    6.905386   5.150284   4.692130   4.401604   3.108118
    27  H    6.851269   5.041635   4.294747   4.691739   2.508559
    28  H    7.707176   6.818588   5.302373   5.058166   4.708418
    29  H    7.975933   6.943271   5.165999   5.909483   4.424460
    30  H    7.004383   6.571041   4.312778   4.849758   4.358938
    31  H    8.714169   8.042728   6.012260   6.423375   5.653347
    32  H    9.190812   7.506728   6.792563   6.608191   5.273358
    33  H    9.231540   7.515625   6.590600   6.874903   5.009347
    34  H   11.495237   9.854048   9.012095   8.888566   7.547021
    35  H   11.486493   9.826895   8.821493   9.048251   7.333354
    36  H   12.488179  11.351677   9.799199  10.005553   8.854397
    37  H   12.490425  11.369791   9.964241   9.856300   9.025733
    38  H   13.798599  12.215833  11.125206  11.304738   9.729651
                   21         22         23         24         25
    21  H    0.000000
    22  H    1.773036   0.000000
    23  H    1.774589   1.739942   0.000000
    24  H    3.748333   4.303018   3.796900   0.000000
    25  H    2.576300   3.790531   3.183475   1.761590   0.000000
    26  H    2.901329   3.638522   2.051257   3.069803   2.512136
    27  H    3.974710   4.166176   2.910096   2.509375   3.063580
    28  H    4.414611   5.643438   4.334010   3.133747   2.538906
    29  H    5.973184   6.474108   5.352793   2.927768   3.990673
    30  H    5.361906   6.187218   5.292693   2.092573   2.932921
    31  H    6.457533   7.364303   6.153788   3.681119   4.185818
    32  H    5.133380   5.956595   4.258591   4.702411   4.308335
    33  H    5.874251   6.369370   4.793625   4.395871   4.694096
    34  H    7.446203   8.293997   6.573294   6.772601   6.478650
    35  H    7.941406   8.564619   6.904944   6.526028   6.702998
    36  H    9.278437  10.203339   8.616456   7.407520   7.540663
    37  H    8.855359   9.973520   8.349565   7.618226   7.336854
    38  H   10.161923  10.885531   9.192870   8.779937   8.876211
                   26         27         28         29         30
    26  H    0.000000
    27  H    1.760181   0.000000
    28  H    2.463048   3.069992   0.000000
    29  H    3.750275   2.589395   3.059917   0.000000
    30  H    3.799448   3.193055   2.486475   1.772030   0.000000
    31  H    4.284623   3.792008   2.493307   1.776889   1.752217
    32  H    2.390343   3.043315   2.487204   3.789348   4.322147
    33  H    2.994074   2.501250   3.062043   2.589906   3.786614
    34  H    4.757695   5.151668   4.192918   5.076442   5.836003
    35  H    5.060732   4.825336   4.524674   4.229809   5.415507
    36  H    6.593175   6.441453   5.095920   4.991131   5.723466
    37  H    6.359316   6.682534   4.798526   5.716312   6.114020
    38  H    7.336781   7.221730   6.493758   6.342836   7.414773
                   31         32         33         34         35
    31  H    0.000000
    32  H    3.772276   0.000000
    33  H    3.124359   1.780733   0.000000
    34  H    4.616761   2.367421   2.933633   0.000000
    35  H    4.075833   2.950875   2.324106   1.771861   0.000000
    36  H    3.999677   4.555545   4.179182   3.072664   2.509990
    37  H    4.539726   4.197700   4.539096   2.509196   3.065274
    38  H    5.822933   5.048593   4.722381   2.932207   2.402383
                   36         37         38
    36  H    0.000000
    37  H    1.761164   0.000000
    38  H    2.305671   2.850198   0.000000
 Stoichiometry    C12H24O2
 Framework group  C1[X(C12H24O2)]
 Deg. of freedom   108
 Full point group                 C1      NOp   1
 Largest Abelian subgroup         C1      NOp   1
 Largest concise Abelian subgroup C1      NOp   1
                         Standard orientation:                         
 ---------------------------------------------------------------------
 Center     Atomic      Atomic             Coordinates (Angstroms)
 Number     Number       Type             X           Y           Z
 ---------------------------------------------------------------------
      1          6           0       -6.744344    0.351256   -0.010996
      2          6           0       -5.532716   -0.124881    0.305650
      3          6           0       -4.258047    0.488051   -0.189991
      4          6           0       -3.021085   -0.318944    0.242698
      5          6           0       -3.064408   -1.750454   -0.301985
      6          6           0       -1.761221    0.406865   -0.240623
      7          6           0       -0.486016   -0.293745    0.219528
      8          6           0        0.778706    0.414688   -0.260088
      9          6           0        0.856519    1.845642    0.271234
     10          6           0        1.988237   -0.400857    0.194737
     11          8           0        3.174840    0.223655   -0.279401
     12          6           0        4.324080   -0.484885    0.160828
     13          6           0        5.574062    0.222281   -0.336549
     14          8           0        6.739395   -0.473526    0.087618
     15          1           0       -7.636080   -0.144083    0.353970
     16          1           0       -6.856395    1.232243   -0.631145
     17          1           0       -5.474289   -1.005084    0.939563
     18          1           0       -4.180420    1.512105    0.199094
     19          1           0       -4.279529    0.556081   -1.285735
     20          1           0       -2.994800   -0.356111    1.340855
     21          1           0       -3.050144   -1.743409   -1.396484
     22          1           0       -3.955705   -2.287797    0.027334
     23          1           0       -2.216796   -2.342847    0.051056
     24          1           0       -1.790518    1.428668    0.153119
     25          1           0       -1.761482    0.486592   -1.335119
     26          1           0       -0.454947   -1.316229   -0.171664
     27          1           0       -0.486441   -0.373474    1.314425
     28          1           0        0.777145    0.456394   -1.357563
     29          1           0        0.840710    1.849353    1.366169
     30          1           0        0.019094    2.452497   -0.083402
     31          1           0        1.767935    2.345146   -0.066235
     32          1           0        1.932856   -1.420931   -0.205971
     33          1           0        2.013240   -0.458680    1.290231
     34          1           0        4.298445   -1.513387   -0.216964
     35          1           0        4.336003   -0.530187    1.256603
     36          1           0        5.613960    1.251920    0.035548
     37          1           0        5.571743    0.276326   -1.430103
     38          1           0        6.729926   -0.486236    1.060025
 ---------------------------------------------------------------------
 Rotational constants (GHZ):           2.9020624           0.1509321           0.1460055
 Standard basis: 6-31G(2df,p) (6D, 7F)
 There are   554 symmetry adapted cartesian basis functions of A   symmetry.
 There are   512 symmetry adapted basis functions of A   symmetry.
   512 basis functions,   784 primitive gaussians,   554 cartesian basis functions
    56 alpha electrons       56 beta electrons
       nuclear repulsion energy       889.9601915148 Hartrees.
 NAtoms=   38 NActive=   38 NUniq=   38 SFac= 1.00D+00 NAtFMM=   60 NAOKFM=F Big=F
 Integral buffers will be    131072 words long.
 Raffenetti 2 integral format.
 Two-electron integral symmetry is turned on.
 One-electron integrals computed using PRISM.
 PrsmSu:  requested number of processors reduced to:  12 ShMem   1 Linda.
 NBasis=   512 RedAO= T EigKep=  4.55D-04  NBF=   512
 NBsUse=   512 1.00D-06 EigRej= -1.00D+00 NBFU=   512
 ExpMin= 1.61D-01 ExpMax= 5.48D+03 ExpMxC= 8.25D+02 IAcc=3 IRadAn=         5 AccDes= 0.00D+00
 Harris functional with IExCor=  402 and IRadAn=       5 diagonalized for initial guess.
 HarFok:  IExCor=  402 AccDes= 0.00D+00 IRadAn=         5 IDoV= 1 UseB2=F ITyADJ=14
 ICtDFT=  3500011 ScaDFX=  1.000000  1.000000  1.000000  1.000000
 FoFCou: FMM=F IPFlag=           0 FMFlag=      100000 FMFlg1=           0
         NFxFlg=           0 DoJE=T BraDBF=F KetDBF=T FulRan=T
         wScrn=  0.000000 ICntrl=       500 IOpCl=  0 I1Cent=   200000004 NGrid=           0
         NMat0=    1 NMatS0=      1 NMatT0=    0 NMatD0=    1 NMtDS0=    0 NMtDT0=    0
 Petite list used in FoFCou.
 Requested convergence on RMS density matrix=1.00D-08 within 128 cycles.
 Requested convergence on MAX density matrix=1.00D-06.
 Requested convergence on             energy=1.00D-06.
 No special actions if energy rises.
 Integral accuracy reduced to 1.0D-05 until final iterations.
 Initial convergence to 1.0D-05 achieved.  Increase integral accuracy.
 SCF Done:  E(RB3LYP) =  -622.182971280     A.U. after   12 cycles
            NFock= 12  Conv=0.80D-08     -V/T= 2.0079

 **********************************************************************

            Population analysis using the SCF density.

 **********************************************************************

 Orbital symmetries:
       Occupied  (A) (A) (A) (A) (A) (A) (A) (A) (A) (A) (A) (A)
                 (A) (A) (A) (A) (A) (A) (A) (A) (A) (A) (A) (A)
                 (A) (A) (A) (A) (A) (A) (A) (A) (A) (A) (A) (A)
                 (A) (A) (A) (A) (A) (A) (A) (A) (A) (A) (A) (A)
                 (A) (A) (A) (A) (A) (A) (A) (A)
       Virtual   (A) (A) (A) (A) (A) (A) (A) (A) (A) (A) (A) (A)
                 (A) (A) (A) (A) (A) (A) (A) (A) (A) (A) (A) (A)
                 (A) (A) (A) (A) (A) (A) (A) (A) (A) (A) (A) (A)
                 (A) (A) (A) (A) (A) (A) (A) (A) (A) (A) (A) (A)
                 (A) (A) (A) (A) (A) (A) (A) (A) (A) (A) (A) (A)
                 (A) (A) (A) (A) (A) (A) (A) (A) (A) (A) (A) (A)
                 (A) (A) (A) (A) (A) (A) (A) (A) (A) (A) (A) (A)
                 (A) (A) (A) (A) (A) (A) (A) (A) (A) (A) (A) (A)
                 (A) (A) (A) (A) (A) (A) (A) (A) (A) (A) (A) (A)
                 (A) (A) (A) (A) (A) (A) (A) (A) (A) (A) (A) (A)
                 (A) (A) (A) (A) (A) (A) (A) (A) (A) (A) (A) (A)
                 (A) (A) (A) (A) (A) (A) (A) (A) (A) (A) (A) (A)
                 (A) (A) (A) (A) (A) (A) (A) (A) (A) (A) (A) (A)
                 (A) (A) (A) (A) (A) (A) (A) (A) (A) (A) (A) (A)
                 (A) (A) (A) (A) (A) (A) (A) (A) (A) (A) (A) (A)
                 (A) (A) (A) (A) (A) (A) (A) (A) (A) (A) (A) (A)
                 (A) (A) (A) (A) (A) (A) (A) (A) (A) (A) (A) (A)
                 (A) (A) (A) (A) (A) (A) (A) (A) (A) (A) (A) (A)
                 (A) (A) (A) (A) (A) (A) (A) (A) (A) (A) (A) (A)
                 (A) (A) (A) (A) (A) (A) (A) (A) (A) (A) (A) (A)
                 (A) (A) (A) (A) (A) (A) (A) (A) (A) (A) (A) (A)
                 (A) (A) (A) (A) (A) (A) (A) (A) (A) (A) (A) (A)
                 (A) (A) (A) (A) (A) (A) (A) (A) (A) (A) (A) (A)
                 (A) (A) (A) (A) (A) (A) (A) (A) (A) (A) (A) (A)
                 (A) (A) (A) (A) (A) (A) (A) (A) (A) (A) (A) (A)
                 (A) (A) (A) (A) (A) (A) (A) (A) (A) (A) (A) (A)
                 (A) (A) (A) (A) (A) (A) (A) (A) (A) (A) (A) (A)
                 (A) (A) (A) (A) (A) (A) (A) (A) (A) (A) (A) (A)
                 (A) (A) (A) (A) (A) (A) (A) (A) (A) (A) (A) (A)
                 (A) (A) (A) (A) (A) (A) (A) (A) (A) (A) (A) (A)
                 (A) (A) (A) (A) (A) (A) (A) (A) (A) (A) (A) (A)
                 (A) (A) (A) (A) (A) (A) (A) (A) (A) (A) (A) (A)
                 (A) (A) (A) (A) (A) (A) (A) (A) (A) (A) (A) (A)
                 (A) (A) (A) (A) (A) (A) (A) (A) (A) (A) (A) (A)
                 (A) (A) (A) (A) (A) (A) (A) (A) (A) (A) (A) (A)
                 (A) (A) (A) (A) (A) (A) (A) (A) (A) (A) (A) (A)
                 (A) (A) (A) (A) (A) (A) (A) (A) (A) (A) (A) (A)
                 (A) (A) (A) (A) (A) (A) (A) (A) (A) (A) (A) (A)
 The electronic state is 1-A.
 Alpha  occ. eigenvalues --  -19.13880 -19.13613 -10.22521 -10.22470 -10.22218
 Alpha  occ. eigenvalues --  -10.18397 -10.18207 -10.18034 -10.17846 -10.17533
 Alpha  occ. eigenvalues --  -10.17388 -10.16977 -10.16827 -10.16495  -1.03102
 Alpha  occ. eigenvalues --   -1.01273  -0.82801  -0.80336  -0.76350  -0.73765
 Alpha  occ. eigenvalues --   -0.70301  -0.67869  -0.67047  -0.62883  -0.61211
 Alpha  occ. eigenvalues --   -0.56323  -0.55982  -0.54836  -0.50887  -0.48895
 Alpha  occ. eigenvalues --   -0.48108  -0.47026  -0.46263  -0.45468  -0.44107
 Alpha  occ. eigenvalues --   -0.42785  -0.42439  -0.40680  -0.40312  -0.39662
 Alpha  occ. eigenvalues --   -0.39247  -0.38091  -0.37366  -0.35786  -0.35484
 Alpha  occ. eigenvalues --   -0.34424  -0.33394  -0.33113  -0.32424  -0.32150
 Alpha  occ. eigenvalues --   -0.31842  -0.31020  -0.29637  -0.26770  -0.25613
 Alpha  occ. eigenvalues --   -0.24577
 Alpha virt. eigenvalues --    0.01739   0.06782   0.08099   0.09242   0.10364
 Alpha virt. eigenvalues --    0.10732   0.11314   0.12202   0.13167   0.13574
 Alpha virt. eigenvalues --    0.14122   0.14436   0.15536   0.16321   0.16658
 Alpha virt. eigenvalues --    0.17619   0.17887   0.18175   0.18904   0.19207
 Alpha virt. eigenvalues --    0.19876   0.20100   0.20653   0.20787   0.21286
 Alpha virt. eigenvalues --    0.21728   0.23164   0.23920   0.24164   0.24382
 Alpha virt. eigenvalues --    0.25176   0.26313   0.27355   0.28279   0.29248
 Alpha virt. eigenvalues --    0.32853   0.32892   0.34791   0.40660   0.44810
 Alpha virt. eigenvalues --    0.45845   0.46263   0.46526   0.47604   0.48264
 Alpha virt. eigenvalues --    0.49128   0.49332   0.49795   0.51344   0.52432
 Alpha virt. eigenvalues --    0.52944   0.55080   0.55461   0.56265   0.57006
 Alpha virt. eigenvalues --    0.57622   0.58409   0.60434   0.60808   0.61897
 Alpha virt. eigenvalues --    0.62872   0.63692   0.63952   0.64446   0.65443
 Alpha virt. eigenvalues --    0.67317   0.67946   0.68388   0.69235   0.70377
 Alpha virt. eigenvalues --    0.71082   0.71387   0.71891   0.72379   0.72937
 Alpha virt. eigenvalues --    0.73413   0.74159   0.74811   0.75589   0.76088
 Alpha virt. eigenvalues --    0.76273   0.77175   0.77210   0.77366   0.78615
 Alpha virt. eigenvalues --    0.78892   0.80034   0.80911   0.81118   0.81432
 Alpha virt. eigenvalues --    0.82083   0.82571   0.83843   0.85471   0.86056
 Alpha virt. eigenvalues --    0.86665   0.87230   0.87961   0.88685   0.88960
 Alpha virt. eigenvalues --    0.89394   0.90257   0.91637   0.93096   0.93221
 Alpha virt. eigenvalues --    0.95483   0.96331   0.97460   0.99046   1.00636
 Alpha virt. eigenvalues --    1.01555   1.03535   1.04626   1.06554   1.08906
 Alpha virt. eigenvalues --    1.10077   1.11199   1.11696   1.12306   1.13476
 Alpha virt. eigenvalues --    1.14595   1.16872   1.18908   1.21391   1.22125
 Alpha virt. eigenvalues --    1.22715   1.27870   1.29537   1.29843   1.31863
 Alpha virt. eigenvalues --    1.33434   1.34111   1.35467   1.36951   1.37863
 Alpha virt. eigenvalues --    1.37898   1.38633   1.40281   1.41162   1.42252
 Alpha virt. eigenvalues --    1.42962   1.44108   1.44816   1.46083   1.47091
 Alpha virt. eigenvalues --    1.47758   1.48403   1.48937   1.52120   1.52554
 Alpha virt. eigenvalues --    1.54223   1.55953   1.57822   1.59447   1.61729
 Alpha virt. eigenvalues --    1.62429   1.63991   1.65839   1.66999   1.67732
 Alpha virt. eigenvalues --    1.68566   1.68819   1.70329   1.72074   1.72963
 Alpha virt. eigenvalues --    1.76226   1.77956   1.78651   1.80268   1.81522
 Alpha virt. eigenvalues --    1.82127   1.82832   1.85036   1.86105   1.87019
 Alpha virt. eigenvalues --    1.88989   1.89675   1.90992   1.91642   1.94207
 Alpha virt. eigenvalues --    1.94999   1.96085   1.97280   1.98139   2.01138
 Alpha virt. eigenvalues --    2.02121   2.04088   2.05996   2.09397   2.13766
 Alpha virt. eigenvalues --    2.16134   2.16873   2.18212   2.20997   2.22155
 Alpha virt. eigenvalues --    2.23136   2.25042   2.26556   2.27402   2.28151
 Alpha virt. eigenvalues --    2.29466   2.29926   2.30962   2.32777   2.35157
 Alpha virt. eigenvalues --    2.36868   2.38265   2.41174   2.42132   2.43338
 Alpha virt. eigenvalues --    2.45658   2.46086   2.47019   2.51949   2.52327
 Alpha virt. eigenvalues --    2.55248   2.56566   2.59106   2.61696   2.63422
 Alpha virt. eigenvalues --    2.67467   2.68109   2.72317   2.73027   2.74414
 Alpha virt. eigenvalues --    2.75068   2.75570   2.75986   2.76733   2.78004
 Alpha virt. eigenvalues --    2.78897   2.79181   2.79962   2.80697   2.81073
 Alpha virt. eigenvalues --    2.81873   2.82768   2.83357   2.85138   2.85690
 Alpha virt. eigenvalues --    2.86029   2.87279   2.88030   2.88832   2.89281
 Alpha virt. eigenvalues --    2.89808   2.90736   2.91359   2.92175   2.93716
 Alpha virt. eigenvalues --    2.94336   2.95279   2.96314   2.97514   2.97870
 Alpha virt. eigenvalues --    2.98648   2.99851   3.00633   3.01160   3.01585
 Alpha virt. eigenvalues --    3.04692   3.05918   3.07247   3.10395   3.11266
 Alpha virt. eigenvalues --    3.12424   3.13960   3.14332   3.15623   3.18463
 Alpha virt. eigenvalues --    3.20631   3.20653   3.23942   3.25590   3.25834
 Alpha virt. eigenvalues --    3.26504   3.30247   3.30656   3.31521   3.33500
 Alpha virt. eigenvalues --    3.34541   3.35326   3.38563   3.38886   3.39606
 Alpha virt. eigenvalues --    3.40285   3.41481   3.42734   3.45336   3.46180
 Alpha virt. eigenvalues --    3.46345   3.47502   3.49594   3.51252   3.53087
 Alpha virt. eigenvalues --    3.54055   3.54210   3.57428   3.58597   3.59476
 Alpha virt. eigenvalues --    3.60709   3.61834   3.63133   3.64553   3.65534
 Alpha virt. eigenvalues --    3.67044   3.67818   3.69797   3.70739   3.71128
 Alpha virt. eigenvalues --    3.71949   3.72706   3.74042   3.74685   3.75767
 Alpha virt. eigenvalues --    3.78469   3.79963   3.81139   3.83124   3.87954
 Alpha virt. eigenvalues --    3.88129   3.90798   3.93522   3.94332   3.97945
 Alpha virt. eigenvalues --    3.99083   4.01419   4.06096   4.07774   4.12359
 Alpha virt. eigenvalues --    4.14926   4.16932   4.18215   4.21331   4.24914
 Alpha virt. eigenvalues --    4.26987   4.28645   4.29345   4.33010   4.33541
 Alpha virt. eigenvalues --    4.36660   4.38659   4.40487   4.41211   4.41753
 Alpha virt. eigenvalues --    4.42543   4.43062   4.44708   4.45255   4.46716
 Alpha virt. eigenvalues --    4.47305   4.48439   4.48722   4.50762   4.51120
 Alpha virt. eigenvalues --    4.53444   4.54060   4.55220   4.55946   4.56451
 Alpha virt. eigenvalues --    4.57338   4.58551   4.59124   4.61168   4.62206
 Alpha virt. eigenvalues --    4.62582   4.63385   4.64433   4.65577   4.66398
 Alpha virt. eigenvalues --    4.67764   4.68573   4.69493   4.70382   4.72164
 Alpha virt. eigenvalues --    4.72462   4.73153   4.74090   4.75159   4.75965
 Alpha virt. eigenvalues --    4.76158   4.76401   4.77867   4.79727   4.80421
 Alpha virt. eigenvalues --    4.81415   4.82138   4.82936   4.83672   4.84292
 Alpha virt. eigenvalues --    4.86047   4.87071   4.88154   4.88929   4.89351
 Alpha virt. eigenvalues --    4.91096   4.91415   4.92420   4.93528   4.94807
 Alpha virt. eigenvalues --    4.97054   4.98998   5.01584   5.03809   5.07229
 Alpha virt. eigenvalues --    5.12684   5.21667   5.24124   5.25768   5.28737
 Alpha virt. eigenvalues --    5.30111   5.31161   5.33059   5.36412   5.39483
 Alpha virt. eigenvalues --    5.42566   5.43451   5.44398   5.45983   5.47155
 Alpha virt. eigenvalues --    5.48688   5.52005   5.54029   5.54899   5.57655
 Alpha virt. eigenvalues --    5.59362   5.62864   5.68279   5.71498   5.75245
 Alpha virt. eigenvalues --    5.87123   5.92749   5.95150   6.02353   6.03612
 Alpha virt. eigenvalues --    6.10620   6.14029   6.25987   6.34457   6.48163
 Alpha virt. eigenvalues --    7.00589   7.09344  10.29357  11.16831  11.25939
 Alpha virt. eigenvalues --   11.38668  11.51679  11.81030  11.91817  12.02540
 Alpha virt. eigenvalues --   12.16034  12.37771  12.56002  12.74759  13.13104
 Alpha virt. eigenvalues --   13.49560
          Condensed to atoms (all electrons):
               1          2          3          4          5          6
     1  C    5.022958   0.667926  -0.018073   0.001069   0.000681  -0.000177
     2  C    0.667926   4.612637   0.413550  -0.022809  -0.002938   0.001916
     3  C   -0.018073   0.413550   4.917568   0.420300  -0.038635  -0.033391
     4  C    0.001069  -0.022809   0.420300   4.607278   0.404729   0.416539
     5  C    0.000681  -0.002938  -0.038635   0.404729   5.009293  -0.035022
     6  C   -0.000177   0.001916  -0.033391   0.416539  -0.035022   4.873186
     7  C    0.000002  -0.000126   0.001869  -0.029339  -0.005282   0.426364
     8  C   -0.000000   0.000001  -0.000114   0.000946   0.000509  -0.028916
     9  C    0.000000   0.000000   0.000002   0.000537  -0.000010  -0.005094
    10  C    0.000000  -0.000000   0.000000  -0.000105   0.000002   0.001099
    11  O   -0.000000   0.000000  -0.000000   0.000000  -0.000000  -0.000022
    12  C    0.000000  -0.000000  -0.000000  -0.000000  -0.000000  -0.000001
    13  C    0.000000   0.000000  -0.000000   0.000000  -0.000000  -0.000000
    14  O    0.000000   0.000000   0.000000   0.000000  -0.000000   0.000000
    15  H    0.358048  -0.006843   0.004723  -0.000157   0.000012   0.000002
    16  H    0.360879  -0.016051  -0.016611   0.000348  -0.000004  -0.000008
    17  H   -0.048227   0.379624  -0.070032  -0.002576  -0.001148   0.000217
    18  H   -0.005127  -0.027562   0.351414  -0.025395   0.005608  -0.004943
    19  H   -0.007076  -0.025576   0.349617  -0.023791  -0.009211  -0.005450
    20  H    0.000337  -0.001228  -0.043509   0.360545  -0.051768  -0.040522
    21  H   -0.000023  -0.000280  -0.004905  -0.026285   0.371501  -0.006111
    22  H   -0.000047   0.003243  -0.005177  -0.024960   0.370382   0.004322
    23  H   -0.000006   0.000062   0.004160  -0.023446   0.374199  -0.004277
    24  H    0.000009   0.000274  -0.003852  -0.024304   0.005465   0.353941
    25  H    0.000004   0.000210  -0.004731  -0.025076  -0.009529   0.355018
    26  H    0.000000   0.000008   0.000114  -0.004904   0.000062  -0.031499
    27  H    0.000000   0.000007   0.000184  -0.001899  -0.001187  -0.033856
    28  H    0.000000   0.000000   0.000005   0.000196  -0.000026  -0.004112
    29  H    0.000000  -0.000000   0.000001  -0.000041  -0.000000  -0.000365
    30  H    0.000000   0.000000   0.000004   0.000014  -0.000002  -0.000387
    31  H   -0.000000  -0.000000  -0.000000  -0.000006   0.000000   0.000185
    32  H    0.000000   0.000000   0.000000   0.000014  -0.000012   0.000012
    33  H    0.000000   0.000000   0.000000   0.000013   0.000000   0.000052
    34  H    0.000000  -0.000000   0.000000   0.000000  -0.000000   0.000000
    35  H    0.000000   0.000000   0.000000   0.000000   0.000000   0.000000
    36  H   -0.000000  -0.000000   0.000000  -0.000000   0.000000   0.000000
    37  H    0.000000   0.000000   0.000000   0.000000   0.000000   0.000000
    38  H    0.000000   0.000000   0.000000   0.000000   0.000000   0.000000
               7          8          9         10         11         12
     1  C    0.000002  -0.000000   0.000000   0.000000  -0.000000   0.000000
     2  C   -0.000126   0.000001   0.000000  -0.000000   0.000000  -0.000000
     3  C    0.001869  -0.000114   0.000002   0.000000  -0.000000  -0.000000
     4  C   -0.029339   0.000946   0.000537  -0.000105   0.000000  -0.000000
     5  C   -0.005282   0.000509  -0.000010   0.000002  -0.000000  -0.000000
     6  C    0.426364  -0.028916  -0.005094   0.001099  -0.000022  -0.000001
     7  C    4.882491   0.388588  -0.032322  -0.039480   0.001504  -0.000275
     8  C    0.388588   4.672319   0.392921   0.436440  -0.031201   0.002738
     9  C   -0.032322   0.392921   5.008465  -0.030399  -0.002212   0.000888
    10  C   -0.039480   0.436440  -0.030399   4.774146   0.351509  -0.071164
    11  O    0.001504  -0.031201  -0.002212   0.351509   7.759528   0.303950
    12  C   -0.000275   0.002738   0.000888  -0.071164   0.303950   4.851518
    13  C    0.000001  -0.000191   0.000002   0.003136  -0.024694   0.406025
    14  O    0.000000   0.000000   0.000000  -0.000013   0.001378  -0.041411
    15  H   -0.000000   0.000000   0.000000  -0.000000   0.000000  -0.000000
    16  H    0.000000   0.000000  -0.000000  -0.000000   0.000000  -0.000000
    17  H    0.000006   0.000000  -0.000000  -0.000000   0.000000  -0.000000
    18  H    0.000170   0.000009  -0.000010   0.000000   0.000000   0.000000
    19  H    0.000130   0.000006  -0.000000   0.000000   0.000000   0.000000
    20  H   -0.004333   0.000222  -0.000028   0.000007   0.000000   0.000000
    21  H   -0.000386  -0.000038  -0.000000   0.000001  -0.000000   0.000000
    22  H    0.000154  -0.000007   0.000000  -0.000000   0.000000  -0.000000
    23  H   -0.000985  -0.000048  -0.000001   0.000003  -0.000000  -0.000000
    24  H   -0.030463  -0.005071   0.000447   0.000135   0.000000   0.000000
    25  H   -0.034695  -0.001526  -0.001153   0.000214   0.000001   0.000000
    26  H    0.357574  -0.029041   0.005765  -0.003791   0.000053   0.000008
    27  H    0.354902  -0.026770  -0.009113  -0.005493   0.000009   0.000003
    28  H   -0.036920   0.356775  -0.050950  -0.034880   0.001525  -0.000001
    29  H   -0.005908  -0.028348   0.369171  -0.004822  -0.000312  -0.000061
    30  H   -0.005574  -0.024109   0.374191   0.003583   0.000215  -0.000006
    31  H    0.004424  -0.022490   0.370020  -0.005544   0.010638  -0.000426
    32  H   -0.002124  -0.030800   0.006949   0.347963  -0.029403  -0.005014
    33  H   -0.000447  -0.022048  -0.012543   0.339634  -0.032540  -0.009002
    34  H    0.000016  -0.000133   0.000040  -0.005362  -0.028234   0.347894
    35  H    0.000052   0.000715  -0.000199  -0.003785  -0.028533   0.340914
    36  H    0.000000   0.000010  -0.000016   0.000225   0.006354  -0.042992
    37  H    0.000000   0.000029  -0.000002   0.000086   0.003315  -0.026348
    38  H    0.000000   0.000000  -0.000000   0.000011   0.000017  -0.003179
              13         14         15         16         17         18
     1  C    0.000000   0.000000   0.358048   0.360879  -0.048227  -0.005127
     2  C    0.000000   0.000000  -0.006843  -0.016051   0.379624  -0.027562
     3  C   -0.000000   0.000000   0.004723  -0.016611  -0.070032   0.351414
     4  C    0.000000   0.000000  -0.000157   0.000348  -0.002576  -0.025395
     5  C   -0.000000  -0.000000   0.000012  -0.000004  -0.001148   0.005608
     6  C   -0.000000   0.000000   0.000002  -0.000008   0.000217  -0.004943
     7  C    0.000001   0.000000  -0.000000   0.000000   0.000006   0.000170
     8  C   -0.000191   0.000000   0.000000   0.000000   0.000000   0.000009
     9  C    0.000002   0.000000   0.000000  -0.000000  -0.000000  -0.000010
    10  C    0.003136  -0.000013  -0.000000  -0.000000  -0.000000   0.000000
    11  O   -0.024694   0.001378   0.000000   0.000000   0.000000   0.000000
    12  C    0.406025  -0.041411  -0.000000  -0.000000  -0.000000   0.000000
    13  C    4.776983   0.340639   0.000000  -0.000000   0.000000   0.000000
    14  O    0.340639   7.845799   0.000000   0.000000   0.000000   0.000000
    15  H    0.000000   0.000000   0.594516  -0.045851  -0.009077  -0.000129
    16  H   -0.000000   0.000000  -0.045851   0.606974   0.007091   0.002022
    17  H    0.000000   0.000000  -0.009077   0.007091   0.638255   0.004109
    18  H    0.000000   0.000000  -0.000129   0.002022   0.004109   0.628710
    19  H   -0.000000   0.000000  -0.000102   0.002532   0.004703  -0.037041
    20  H   -0.000000  -0.000000  -0.000001   0.000015   0.002964  -0.004378
    21  H   -0.000000   0.000000  -0.000000   0.000002   0.000061  -0.000042
    22  H    0.000000  -0.000000   0.000019   0.000003   0.003882   0.000053
    23  H   -0.000000   0.000000  -0.000000   0.000000  -0.000115  -0.000183
    24  H   -0.000000  -0.000000  -0.000000   0.000001   0.000013   0.006263
    25  H    0.000000  -0.000000   0.000000   0.000000   0.000014  -0.000468
    26  H    0.000000  -0.000000  -0.000000  -0.000000  -0.000001   0.000002
    27  H    0.000000   0.000000   0.000000  -0.000000  -0.000000  -0.000010
    28  H    0.000008   0.000000   0.000000   0.000000  -0.000000   0.000000
    29  H   -0.000000  -0.000000  -0.000000   0.000000  -0.000000   0.000000
    30  H   -0.000000   0.000000  -0.000000   0.000000   0.000000  -0.000007
    31  H    0.000025   0.000000   0.000000   0.000000   0.000000   0.000000
    32  H    0.000164   0.000003   0.000000   0.000000   0.000000   0.000000
    33  H    0.000109   0.000003   0.000000   0.000000   0.000000   0.000000
    34  H   -0.031431   0.005931   0.000000   0.000000   0.000000   0.000000
    35  H   -0.039705   0.001854   0.000000   0.000000   0.000000   0.000000
    36  H    0.359523  -0.027453   0.000000   0.000000   0.000000   0.000000
    37  H    0.358674  -0.013940   0.000000   0.000000   0.000000   0.000000
    38  H   -0.065717   0.307862   0.000000   0.000000   0.000000   0.000000
              19         20         21         22         23         24
     1  C   -0.007076   0.000337  -0.000023  -0.000047  -0.000006   0.000009
     2  C   -0.025576  -0.001228  -0.000280   0.003243   0.000062   0.000274
     3  C    0.349617  -0.043509  -0.004905  -0.005177   0.004160  -0.003852
     4  C   -0.023791   0.360545  -0.026285  -0.024960  -0.023446  -0.024304
     5  C   -0.009211  -0.051768   0.371501   0.370382   0.374199   0.005465
     6  C   -0.005450  -0.040522  -0.006111   0.004322  -0.004277   0.353941
     7  C    0.000130  -0.004333  -0.000386   0.000154  -0.000985  -0.030463
     8  C    0.000006   0.000222  -0.000038  -0.000007  -0.000048  -0.005071
     9  C   -0.000000  -0.000028  -0.000000   0.000000  -0.000001   0.000447
    10  C    0.000000   0.000007   0.000001  -0.000000   0.000003   0.000135
    11  O    0.000000   0.000000  -0.000000   0.000000  -0.000000   0.000000
    12  C    0.000000   0.000000   0.000000  -0.000000  -0.000000   0.000000
    13  C   -0.000000  -0.000000  -0.000000   0.000000  -0.000000  -0.000000
    14  O    0.000000  -0.000000   0.000000  -0.000000   0.000000  -0.000000
    15  H   -0.000102  -0.000001  -0.000000   0.000019  -0.000000  -0.000000
    16  H    0.002532   0.000015   0.000002   0.000003   0.000000   0.000001
    17  H    0.004703   0.002964   0.000061   0.003882  -0.000115   0.000013
    18  H   -0.037041  -0.004378  -0.000042   0.000053  -0.000183   0.006263
    19  H    0.627418   0.006801   0.005336  -0.000336  -0.000068  -0.000498
    20  H    0.006801   0.697425   0.006299  -0.003117  -0.003494  -0.004402
    21  H    0.005336   0.006299   0.601574  -0.031439  -0.033560   0.000010
    22  H   -0.000336  -0.003117  -0.031439   0.602047  -0.031407  -0.000192
    23  H   -0.000068  -0.003494  -0.033560  -0.031407   0.597987  -0.000028
    24  H   -0.000498  -0.004402   0.000010  -0.000192  -0.000028   0.645163
    25  H    0.005334   0.006821   0.005514  -0.000086   0.000034  -0.042478
    26  H    0.000008   0.000036   0.001158  -0.000229   0.003577   0.006191
    27  H    0.000011   0.005839   0.000115  -0.000046   0.001043  -0.004949
    28  H   -0.000001   0.000013   0.000009  -0.000000   0.000023  -0.000004
    29  H   -0.000000   0.000008   0.000000  -0.000000   0.000000   0.001063
    30  H    0.000002   0.000023   0.000000  -0.000000  -0.000001   0.003435
    31  H    0.000000  -0.000000  -0.000000  -0.000000  -0.000000  -0.000203
    32  H    0.000000   0.000000   0.000000   0.000000  -0.000006  -0.000002
    33  H   -0.000000  -0.000002  -0.000000   0.000000   0.000004   0.000007
    34  H   -0.000000   0.000000  -0.000000  -0.000000   0.000000  -0.000000
    35  H    0.000000  -0.000000  -0.000000   0.000000   0.000000   0.000000
    36  H   -0.000000  -0.000000  -0.000000  -0.000000   0.000000  -0.000000
    37  H    0.000000  -0.000000   0.000000   0.000000   0.000000  -0.000000
    38  H    0.000000  -0.000000  -0.000000   0.000000   0.000000  -0.000000
              25         26         27         28         29         30
     1  C    0.000004   0.000000   0.000000   0.000000   0.000000   0.000000
     2  C    0.000210   0.000008   0.000007   0.000000  -0.000000   0.000000
     3  C   -0.004731   0.000114   0.000184   0.000005   0.000001   0.000004
     4  C   -0.025076  -0.004904  -0.001899   0.000196  -0.000041   0.000014
     5  C   -0.009529   0.000062  -0.001187  -0.000026  -0.000000  -0.000002
     6  C    0.355018  -0.031499  -0.033856  -0.004112  -0.000365  -0.000387
     7  C   -0.034695   0.357574   0.354902  -0.036920  -0.005908  -0.005574
     8  C   -0.001526  -0.029041  -0.026770   0.356775  -0.028348  -0.024109
     9  C   -0.001153   0.005765  -0.009113  -0.050950   0.369171   0.374191
    10  C    0.000214  -0.003791  -0.005493  -0.034880  -0.004822   0.003583
    11  O    0.000001   0.000053   0.000009   0.001525  -0.000312   0.000215
    12  C    0.000000   0.000008   0.000003  -0.000001  -0.000061  -0.000006
    13  C    0.000000   0.000000   0.000000   0.000008  -0.000000  -0.000000
    14  O   -0.000000  -0.000000   0.000000   0.000000  -0.000000   0.000000
    15  H    0.000000  -0.000000   0.000000   0.000000  -0.000000  -0.000000
    16  H    0.000000  -0.000000  -0.000000   0.000000   0.000000   0.000000
    17  H    0.000014  -0.000001  -0.000000  -0.000000  -0.000000   0.000000
    18  H   -0.000468   0.000002  -0.000010   0.000000   0.000000  -0.000007
    19  H    0.005334   0.000008   0.000011  -0.000001  -0.000000   0.000002
    20  H    0.006821   0.000036   0.005839   0.000013   0.000008   0.000023
    21  H    0.005514   0.001158   0.000115   0.000009   0.000000   0.000000
    22  H   -0.000086  -0.000229  -0.000046  -0.000000  -0.000000  -0.000000
    23  H    0.000034   0.003577   0.001043   0.000023   0.000000  -0.000001
    24  H   -0.042478   0.006191  -0.004949  -0.000004   0.001063   0.003435
    25  H    0.648535  -0.004940   0.006389   0.005510   0.000110   0.000993
    26  H   -0.004940   0.648493  -0.043485  -0.004649  -0.000004  -0.000021
    27  H    0.006389  -0.043485   0.652480   0.006736   0.005499   0.000071
    28  H    0.005510  -0.004649   0.006736   0.680687   0.006289  -0.003059
    29  H    0.000110  -0.000004   0.005499   0.006289   0.613501  -0.033902
    30  H    0.000993  -0.000021   0.000071  -0.003059  -0.033902   0.602045
    31  H   -0.000040  -0.000181  -0.000050  -0.002244  -0.030338  -0.030805
    32  H   -0.000002   0.006445  -0.000484  -0.006385  -0.000061  -0.000149
    33  H    0.000008  -0.000662   0.005762   0.007357   0.005671  -0.000135
    34  H    0.000000   0.000001   0.000000  -0.000051  -0.000000   0.000001
    35  H   -0.000000  -0.000001  -0.000000   0.000046   0.000023  -0.000001
    36  H    0.000000  -0.000000  -0.000000  -0.000000   0.000000   0.000000
    37  H   -0.000000  -0.000000  -0.000000   0.000003   0.000000  -0.000000
    38  H   -0.000000  -0.000000  -0.000000   0.000000   0.000000  -0.000000
              31         32         33         34         35         36
     1  C   -0.000000   0.000000   0.000000   0.000000   0.000000  -0.000000
     2  C   -0.000000   0.000000   0.000000  -0.000000   0.000000  -0.000000
     3  C   -0.000000   0.000000   0.000000   0.000000   0.000000   0.000000
     4  C   -0.000006   0.000014   0.000013   0.000000   0.000000  -0.000000
     5  C    0.000000  -0.000012   0.000000  -0.000000   0.000000   0.000000
     6  C    0.000185   0.000012   0.000052   0.000000   0.000000   0.000000
     7  C    0.004424  -0.002124  -0.000447   0.000016   0.000052   0.000000
     8  C   -0.022490  -0.030800  -0.022048  -0.000133   0.000715   0.000010
     9  C    0.370020   0.006949  -0.012543   0.000040  -0.000199  -0.000016
    10  C   -0.005544   0.347963   0.339634  -0.005362  -0.003785   0.000225
    11  O    0.010638  -0.029403  -0.032540  -0.028234  -0.028533   0.006354
    12  C   -0.000426  -0.005014  -0.009002   0.347894   0.340914  -0.042992
    13  C    0.000025   0.000164   0.000109  -0.031431  -0.039705   0.359523
    14  O    0.000000   0.000003   0.000003   0.005931   0.001854  -0.027453
    15  H    0.000000   0.000000   0.000000   0.000000   0.000000   0.000000
    16  H    0.000000   0.000000   0.000000   0.000000   0.000000   0.000000
    17  H    0.000000   0.000000   0.000000   0.000000   0.000000   0.000000
    18  H    0.000000   0.000000   0.000000   0.000000   0.000000   0.000000
    19  H    0.000000   0.000000  -0.000000  -0.000000   0.000000  -0.000000
    20  H   -0.000000   0.000000  -0.000002   0.000000  -0.000000  -0.000000
    21  H   -0.000000   0.000000  -0.000000  -0.000000  -0.000000  -0.000000
    22  H   -0.000000   0.000000   0.000000  -0.000000   0.000000  -0.000000
    23  H   -0.000000  -0.000006   0.000004   0.000000   0.000000   0.000000
    24  H   -0.000203  -0.000002   0.000007  -0.000000   0.000000  -0.000000
    25  H   -0.000040  -0.000002   0.000008   0.000000  -0.000000   0.000000
    26  H   -0.000181   0.006445  -0.000662   0.000001  -0.000001  -0.000000
    27  H   -0.000050  -0.000484   0.005762   0.000000  -0.000000  -0.000000
    28  H   -0.002244  -0.006385   0.007357  -0.000051   0.000046  -0.000000
    29  H   -0.030338  -0.000061   0.005671  -0.000000   0.000023   0.000000
    30  H   -0.030805  -0.000149  -0.000135   0.000001  -0.000001   0.000000
    31  H    0.580156   0.000276   0.000224   0.000040   0.000018   0.000125
    32  H    0.000276   0.676791  -0.058987   0.013522  -0.002961   0.000032
    33  H    0.000224  -0.058987   0.683068  -0.002856   0.015205  -0.000036
    34  H    0.000040   0.013522  -0.002856   0.666509  -0.062425   0.007205
    35  H    0.000018  -0.002961   0.015205  -0.062425   0.700510  -0.008205
    36  H    0.000125   0.000032  -0.000036   0.007205  -0.008205   0.660928
    37  H   -0.000001  -0.000040   0.000035  -0.007514   0.006641  -0.047445
    38  H    0.000000   0.000001   0.000005  -0.000509   0.006774  -0.005270
              37         38
     1  C    0.000000   0.000000
     2  C    0.000000   0.000000
     3  C    0.000000   0.000000
     4  C    0.000000   0.000000
     5  C    0.000000   0.000000
     6  C    0.000000   0.000000
     7  C    0.000000   0.000000
     8  C    0.000029   0.000000
     9  C   -0.000002  -0.000000
    10  C    0.000086   0.000011
    11  O    0.003315   0.000017
    12  C   -0.026348  -0.003179
    13  C    0.358674  -0.065717
    14  O   -0.013940   0.307862
    15  H    0.000000   0.000000
    16  H    0.000000   0.000000
    17  H    0.000000   0.000000
    18  H    0.000000   0.000000
    19  H    0.000000   0.000000
    20  H   -0.000000  -0.000000
    21  H    0.000000  -0.000000
    22  H    0.000000   0.000000
    23  H    0.000000   0.000000
    24  H   -0.000000  -0.000000
    25  H   -0.000000  -0.000000
    26  H   -0.000000  -0.000000
    27  H   -0.000000  -0.000000
    28  H    0.000003   0.000000
    29  H    0.000000   0.000000
    30  H   -0.000000  -0.000000
    31  H   -0.000001   0.000000
    32  H   -0.000040   0.000001
    33  H    0.000035   0.000005
    34  H   -0.007514  -0.000509
    35  H    0.006641   0.006774
    36  H   -0.047445  -0.005270
    37  H    0.595787   0.006774
    38  H    0.006774   0.467961
 Mulliken charges:
               1
     1  C   -0.333159
     2  C    0.023953
     3  C   -0.224482
     4  C    0.022565
     5  C   -0.387670
     6  C   -0.198701
     7  C   -0.189591
     8  C   -0.001380
     9  C   -0.385342
    10  C   -0.053354
    11  O   -0.262847
    12  C   -0.054058
    13  C   -0.083550
    14  O   -0.420652
    15  H    0.104841
    16  H    0.098657
    17  H    0.090237
    18  H    0.106934
    19  H    0.107253
    20  H    0.069427
    21  H    0.111489
    22  H    0.112938
    23  H    0.116534
    24  H    0.094027
    25  H    0.090013
    26  H    0.093912
    27  H    0.088293
    28  H    0.078102
    29  H    0.102825
    30  H    0.113581
    31  H    0.126195
    32  H    0.084256
    33  H    0.082103
    34  H    0.097355
    35  H    0.073064
    36  H    0.097016
    37  H    0.123945
    38  H    0.285272
 Sum of Mulliken charges =  -0.00000
 Mulliken charges with hydrogens summed into heavy atoms:
               1
     1  C   -0.129661
     2  C    0.114190
     3  C   -0.010295
     4  C    0.091992
     5  C   -0.046710
     6  C   -0.014661
     7  C   -0.007386
     8  C    0.076722
     9  C   -0.042742
    10  C    0.113005
    11  O   -0.262847
    12  C    0.116362
    13  C    0.137411
    14  O   -0.135380
 Electronic spatial extent (au):  <R**2>=           7224.8010
 Charge=             -0.0000 electrons
 Dipole moment (field-independent basis, Debye):
    X=             -0.7891    Y=             -0.2874    Z=              1.4450  Tot=              1.6713
 Quadrupole moment (field-independent basis, Debye-Ang):
   XX=           -105.0646   YY=            -89.7607   ZZ=            -86.6855
   XY=              0.9942   XZ=              8.7376   YZ=             -1.6543
 Traceless Quadrupole moment (field-independent basis, Debye-Ang):
   XX=            -11.2277   YY=              4.0762   ZZ=              7.1515
   XY=              0.9942   XZ=              8.7376   YZ=             -1.6543
 Octapole moment (field-independent basis, Debye-Ang**2):
  XXX=            -31.0924  YYY=             -0.0446  ZZZ=              0.0925  XYY=             12.4267
  XXY=             14.8437  XXZ=             56.8122  XZZ=             35.2783  YZZ=             -1.5928
  YYZ=             -0.3099  XYZ=              3.2816
 Hexadecapole moment (field-independent basis, Debye-Ang**3):
 XXXX=          -9804.3700 YYYY=           -552.7139 ZZZZ=           -196.8735 XXXY=            153.7383
 XXXZ=            367.6787 YYYX=            -13.9662 YYYZ=             -4.6628 ZZZX=             18.6400
 ZZZY=             -2.6219 XXYY=          -1553.5893 XXZZ=          -1397.8679 YYZZ=           -126.9544
 XXYZ=            -79.1730 YYXZ=              0.1149 ZZXY=             -8.1239
 N-N= 8.899601915148D+02 E-N=-3.225938703836D+03  KE= 6.173045524419D+02
 PrsmSu:  requested number of processors reduced to:  13 ShMem   1 Linda.
 Calling FoFJK, ICntrl=      2127 FMM=F ISym2X=0 I1Cent= 0 IOpClX= 0 NMat=1 NMatS=1 NMatT=0.
 ***** Axes restored to original set *****
 -------------------------------------------------------------------
 Center     Atomic                   Forces (Hartrees/Bohr)
 Number     Number              X              Y              Z
 -------------------------------------------------------------------
      1        6           0.015308577   -0.005218243   -0.003685843
      2        6          -0.024815277    0.001799578   -0.000932826
      3        6           0.007642660   -0.007077131   -0.003126928
      4        6          -0.003452885    0.010270868    0.001195773
      5        6           0.000608301   -0.004793365   -0.002496683
      6        6           0.003048405   -0.008916448   -0.002618856
      7        6          -0.000802076    0.007906280    0.000765829
      8        6           0.004947262   -0.005366824    0.004698582
      9        6          -0.000238444    0.004560302    0.005446517
     10        6          -0.003356242    0.013822056    0.008162197
     11        8           0.007447379   -0.005873014   -0.003979661
     12        6          -0.011621474    0.006942606    0.003405736
     13        6           0.004920457   -0.003975778    0.004473040
     14        8           0.002259186   -0.003963137   -0.001975638
     15        1          -0.003752564    0.000085212    0.001513793
     16        1          -0.002998008    0.001052992   -0.000599014
     17        1           0.001742036   -0.000518580    0.000899488
     18        1           0.001057538    0.002279244    0.000228234
     19        1           0.000101889   -0.000050714    0.001377295
     20        1          -0.000653474   -0.000405519   -0.000174496
     21        1          -0.000019212    0.000799409   -0.001272496
     22        1          -0.002817820    0.000975294   -0.001121109
     23        1          -0.000004743    0.001419636    0.000118549
     24        1           0.000384870    0.001187254   -0.000081218
     25        1          -0.001306214    0.000329112   -0.000925229
     26        1          -0.001135107   -0.001549057   -0.000644664
     27        1           0.000840024   -0.000443140    0.000904857
     28        1           0.001390419   -0.000308502   -0.001897912
     29        1           0.000064308   -0.000937142    0.001388861
     30        1           0.000237436   -0.001013372   -0.000145378
     31        1           0.002397905   -0.001461629   -0.000672096
     32        1           0.000607186   -0.001598741   -0.003538358
     33        1           0.000704542   -0.003891073   -0.000404243
     34        1           0.003171409    0.000393927   -0.002691491
     35        1           0.002344869   -0.004734920    0.000550423
     36        1          -0.006121903   -0.000719294    0.001431529
     37        1           0.003887792   -0.000567281   -0.001973621
     38        1          -0.002019008    0.009559133   -0.001602942
 -------------------------------------------------------------------
 Cartesian Forces:  Max     0.024815277 RMS     0.004605403

 GradGradGradGradGradGradGradGradGradGradGradGradGradGradGradGradGradGrad
 Berny optimization.
 FormGI is forming the generalized inverse of G from B-inverse, IUseBI=4.
 Internal  Forces:  Max     0.016149007 RMS     0.003382673
 Search for a local minimum.
 Step number   1 out of a maximum of  206
 All quantities printed in internal units (Hartrees-Bohrs-Radians)
 Mixed Optimization -- RFO/linear search
 Second derivative matrix not updated -- first step.
 ITU=  0
     Eigenvalues ---    0.00250   0.00339   0.00340   0.00390   0.00395
     Eigenvalues ---    0.00410   0.00422   0.00503   0.00783   0.01397
     Eigenvalues ---    0.01401   0.01426   0.01622   0.02885   0.02885
     Eigenvalues ---    0.03576   0.03609   0.03678   0.03794   0.04158
     Eigenvalues ---    0.04579   0.04651   0.04872   0.04880   0.04893
     Eigenvalues ---    0.04927   0.05074   0.05223   0.05236   0.05411
[...]
 76,0.00001198,0.00001678,0.00000649,-0.00000870,-0.00000826,0.00000857
 ,-0.00000003,-0.00000718,-0.00001046,-0.00004973,-0.00000124,-0.000004
 21,0.00000014,0.00005121,0.00000679,0.00003456,-0.00003717,-0.00006917
 ,-0.00001192,-0.00012943,-0.00011294,-0.00006538,0.00013102,-0.0000529
 7,-0.00042945,0.00048413,0.00008620,-0.00206015,-0.00038412,-0.0005026
 6,-0.00059165,0.07168996,0.00000092,0.00000101,-0.00000112,0.00000141,
 -0.00000229,-0.00000125,-0.00000104,0.00000165,-0.00000012,-0.00000082
 ,-0.00000265,0.00000289,-0.00000689,0.00000319,0.00000121,-0.00000462,
 0.00000551,-0.00001528,-0.00003883,-0.00001929,0.00003033,-0.00009617,
 0.00001492,-0.00020102,0.00007732,-0.00006601,-0.00000716,0.00031812,0
 .00028609,0.00170924,-0.00140149,0.00424026,-0.00441510,-0.00895424,-0
 .06425000,0.05065773,0.00383442,0.00395684,-0.02476379,0.00121826,0.00
 061804,0.00190280,-0.00000013,0.00000003,0.00000065,-0.00000042,0.0000
 0007,0.00000025,-0.00000038,0.00000024,0.00000067,0.00000117,0.0000000
 6,-0.00000120,0.00000028,-0.00000003,0.00000029,-0.00000041,0.00000019
 ,0.00000012,0.00000073,-0.00000057,-0.00000044,0.00000124,-0.00000015,
 -0.00000016,0.00000250,-0.00000200,-0.00000202,0.00001107,-0.00000133,
 -0.00000418,0.00000191,-0.00000149,0.00000102,-0.00001484,0.00000469,-
 0.00003180,-0.00000149,0.00000356,0.00000050,0.00003067,-0.00001815,-0
 .00001098,0.00001012,0.00002811,0.00000771,-0.00001041,0.00001344,-0.0
 0003323,-0.00001759,-0.00001488,-0.00000778,0.00002062,0.00010210,-0.0
 0021361,0.00013622,-0.00014508,0.00026898,0.00999643,0.06352116,0.0000
 0529,0.00000831,0.00000743,0.00000151,-0.00001682,-0.00000934,0.000004
 93,0.00001877,0.00001780,0.00000836,-0.00002823,-0.00003191,0.00001398
 ,0.00001617,0.00000409,-0.00001244,0.00006269,0.00003736,0.00014142,-0
 .00002676,-0.00010387,0.00011218,0.00014570,0.00052438,-0.00025882,-0.
 00008227,-0.00007082,-0.00179881,-0.00191676,0.00151380,0.01196624,-0.
 00107537,-0.00161546,0.03861714,0.04861484,-0.26833458,0.00481589,0.00
 463312,-0.02100168,-0.00094650,0.00046328,0.00300834,0.00000303,0.0000
 0120,0.00000307,0.00000051,-0.00000141,-0.00000162,0.00000005,0.000001
 56,0.00000013,-0.00000646,-0.00000014,0.00000626,0.00000273,-0.0000018
 5,-0.00000065,-0.00000116,-0.00000068,0.00000363,0.00000210,-0.0000060
 8,-0.00000083,0.00000612,0.00000034,0.00001167,-0.00000305,-0.00000044
 ,-0.00001092,-0.00000873,-0.00000585,0.00000983,0.00000800,-0.00000937
 ,-0.00000107,-0.00000278,-0.00000708,0.00001586,0.00000837,0.00000726,
 -0.00000171,-0.00002910,-0.00000726,-0.00002123,0.00001324,0.00000664,
 0.00002123,0.00002492,-0.00001406,0.00006047,-0.00009217,0.00003582,0.
 00014403,0.00160505,0.00116700,0.00069509,-0.00005735,0.00044880,-0.00
 019556,-0.05351147,-0.05100107,0.29298605,-0.00001094,-0.00001246,-0.0
 0000474,-0.00000625,0.00002895,0.00001759,-0.00000470,-0.00002600,-0.0
 0002869,-0.00001310,0.00004281,0.00003453,-0.00000964,-0.00001739,-0.0
 0000603,0.00003778,-0.00008066,-0.00004848,-0.00016496,-0.00004491,0.0
 0016676,-0.00008412,-0.00044023,-0.00003925,0.00001919,0.00010034,-0.0
 0003987,0.00404690,0.00746643,0.00361190,-0.03650185,0.03205422,-0.005
 82829,-0.06738212,0.05864789,-0.01627779,0.00418370,-0.01307808,0.0029
 3034,0.00269391,0.00023303,0.00057246,-0.00000346,-0.00000256,-0.00000
 682,0.00000163,0.00000101,0.00000075,0.00000101,-0.00000393,-0.0000026
 3,0.00000442,-0.00000057,-0.00000197,-0.00000215,0.00000007,0.00000045
 ,0.00000094,-0.00000521,-0.00000257,0.00000438,0.00000162,0.00000288,-
 0.00001013,-0.00000367,-0.00001398,-0.00000276,0.00000985,0.00001754,-
 0.00000894,0.00000248,0.00000699,0.00000227,0.00000730,0.00000232,0.00
 001820,0.00002102,0.00002554,-0.00004977,-0.00007138,-0.00003482,0.000
 28913,-0.00022502,0.00000717,-0.00004504,-0.00009554,0.00001015,-0.000
 05169,-0.00004867,0.00003933,0.00008467,0.00008194,-0.00019290,-0.0003
 3575,-0.00062628,-0.00054050,0.00066142,-0.00222529,-0.00012088,0.0049
 4259,-0.00335680,0.00040291,0.08902143,0.00000720,0.00000720,0.0000033
 3,0.00000394,-0.00002029,-0.00001117,0.00000395,0.00001603,0.00001889,
 0.00001187,-0.00003535,-0.00002255,0.00000974,0.00000771,0.00000454,-0
 .00001018,0.00004113,0.00004903,0.00015222,-0.00004865,-0.00006615,-0.
 00019974,0.00065191,0.00008835,0.00002207,-0.00011991,-0.00000069,-0.0
 0192725,0.00175518,-0.00153692,0.00978792,0.00255957,-0.00297570,0.061
 70238,-0.24272739,0.04986975,0.00879364,-0.02299998,0.00630084,-0.0008
 3466,0.00324077,0.00033909,0.00000252,0.00000199,0.00000443,-0.0000014
 9,0.00000052,-0.00000078,-0.00000031,0.00000443,0.00000173,-0.00000240
 ,-0.00000060,0.00000089,-0.00000088,0.00000253,-0.00000138,-0.00000063
 ,0.00001043,-0.00000008,-0.00000653,0.00000351,-0.00000256,0.00000731,
 0.00000335,0.00000884,0.00000062,-0.00000932,-0.00000969,0.00000605,-0
 .00000092,-0.00000547,0.00000016,0.00000335,-0.00000024,-0.00001293,-0
 .00001342,-0.00001691,0.00001880,0.00001941,-0.00000395,-0.00032598,-0
 .00006538,-0.00002517,0.00003531,0.00008706,0.00001006,0.00002729,0.00
 004660,-0.00003508,-0.00003738,-0.00004700,0.00011084,0.00000651,-0.00
 024347,0.00042002,0.00169980,0.00077785,0.00104083,0.00194949,-0.00718
 025,0.00184551,-0.07743539,0.26528038,-0.00000029,-0.00000008,0.000000
 02,0.00000031,0.00000171,0.00000015,-0.00000049,-0.00000066,0.00000018
 ,-0.00000159,0.00000655,-0.00000162,-0.00000390,0.00000153,-0.00000046
 ,-0.00000589,-0.00001303,0.00000135,-0.00003708,0.00004299,-0.00002082
 ,-0.00005617,-0.00024675,0.00003624,-0.00001272,0.00004148,0.00002074,
 -0.00007040,0.00127263,0.00005868,0.00255422,-0.00789940,0.00558639,-0
 .01656836,0.05040123,-0.06729239,0.00549643,-0.02098573,0.00457107,0.0
 0181105,0.00121032,0.00022306,-0.00000034,-0.00000031,-0.00000022,0.00
 000034,-0.00000041,0.00000002,-0.00000030,-0.00000083,0.00000007,-0.00
 000013,0.00000027,0.00000004,0.00000123,-0.00000124,0.00000009,-0.0000
 0105,-0.00000436,0.00000190,0.00000414,-0.00000368,0.00000026,-0.00000
 083,-0.00000115,-0.00000024,0.00000038,0.00000388,-0.00000129,0.000002
 01,0.00000022,-0.00000132,0.00000846,-0.00000343,-0.00000138,-0.000001
 28,0.00000548,0.00000419,-0.00000815,-0.00002303,0.00001246,0.00006488
 ,-0.00003003,-0.00004390,0.00000226,-0.00000157,0.00000993,-0.00001792
 ,-0.00000734,-0.00001135,0.00002309,-0.00003663,-0.00002814,0.00016585
 ,0.00030063,-0.00010954,-0.00002239,-0.00012982,0.00004513,-0.00894814
 ,0.02909216,-0.00762439,0.01714464,-0.05114385,0.06446437,-0.00000074,
 -0.00000040,-0.00000020,0.00000014,0.00000153,0.00000094,0.00000010,-0
 .00000031,-0.00000037,0.00000160,-0.00000025,0.00000077,0.00000052,-0.
 00000001,-0.00000073,0.00000238,0.00000356,0.00000379,0.00002166,-0.00
 000278,0.00000162,0.00003274,0.00004318,0.00007828,-0.00005651,-0.0000
 1599,-0.00000881,0.00007819,-0.00001911,-0.00025939,0.00198774,0.00059
 885,0.00086603,0.00436456,0.00208044,-0.01328089,-0.05929782,-0.005886
 21,0.04622075,-0.02808422,-0.00631922,0.03674712,-0.00000024,-0.000000
 26,-0.00000031,0.00000017,0.,0.00000004,0.00000017,-0.00000029,-0.0000
 0012,-0.00000007,-0.00000026,-0.00000021,-0.00000003,-0.00000009,-0.00
 000003,-0.00000009,-0.00000033,-0.00000003,0.00000075,-0.00000031,0.00
 000028,-0.00000087,-0.00000063,-0.00000042,-0.00000048,0.00000112,0.00
 000117,-0.00000260,-0.00000053,0.00000116,0.00000033,-0.00000058,-0.00
 000016,0.00000609,0.00000290,0.00000757,-0.00000155,-0.00000190,-0.000
 00029,-0.00000730,-0.00000155,-0.00000076,0.00000599,0.00000624,0.0000
 0597,-0.00000054,0.,0.00001557,-0.00003972,-0.00001732,0.00000364,-0.0
 0010723,-0.00003984,0.00020670,0.00001406,0.00004548,0.00001478,-0.001
 70651,-0.00228680,-0.00154270,0.00042114,0.00002715,0.00066811,0.07557
 361,-0.00000095,-0.00000121,-0.00000070,-0.00000016,0.00000310,0.00000
 150,-0.00000027,-0.00000219,-0.00000149,-0.00000005,0.00000350,0.00000
 200,0.00000068,-0.00000268,-0.00000086,0.00000260,-0.00000280,-0.00000
 217,0.00001712,0.00000782,0.00000381,0.00000928,-0.00001769,0.00009377
 ,-0.00003587,0.00001718,0.00001007,-0.00003923,-0.00009911,-0.00005468
 ,0.00137769,0.00071716,0.00137231,0.00319126,0.00355189,-0.02577728,-0
 .00915065,-0.06390711,0.04470411,-0.00035256,0.00377483,-0.00025536,-0
 .00000046,-0.00000028,-0.00000056,0.00000014,0.,0.00000024,0.00000004,
 -0.00000056,-0.00000023,0.00000019,0.00000030,-0.00000044,-0.00000019,
 -0.00000015,0.00000034,0.00000023,-0.00000081,-0.00000060,-0.00000011,
 0.00000049,0.00000043,-0.00000121,-0.00000017,-0.00000134,-0.00000042,
 0.00000105,0.00000177,-0.00000084,0.00000143,0.00000052,-0.00000075,-0
 .00000018,0.00000098,0.00000520,-0.00000134,0.00000156,-0.00000060,-0.
 00000317,-0.00000203,-0.00000493,0.00000127,0.00000789,-0.00001030,-0.
 00002271,-0.00000939,0.00000146,-0.00000723,0.00002138,-0.00001776,0.0
 0002463,-0.00001182,0.00003260,-0.00001724,0.00021738,0.00001384,0.000
 00213,-0.00002100,-0.00233107,-0.00230675,-0.00315972,0.00084106,0.001
 39869,0.00067116,0.01237867,0.06064048,-0.00000200,-0.00000099,0.00000
 303,-0.00000383,0.00000207,0.00000344,0.00000071,-0.00000322,-0.000005
 80,-0.00000933,0.00000318,0.00000183,0.00000621,0.00000193,0.00000059,
 0.00000343,-0.00001003,-0.00002322,-0.00004357,0.00001277,0.00004470,0
 .00002022,-0.00007045,-0.00005967,-0.00012052,-0.00005910,-0.00009966,
 -0.00034549,0.00001353,0.00032031,-0.00031761,0.00028564,0.00189218,0.
 00494912,0.00479252,-0.02281573,0.04850902,0.04317816,-0.27343992,0.00
 819415,-0.00105804,0.00348299,0.00000081,-0.00000011,-0.00000158,0.000
 00090,0.00000004,-0.00000102,0.00000079,0.00000007,-0.00000141,-0.0000
 0206,-0.00000111,0.00000420,-0.00000011,-0.00000001,-0.00000096,0.0000
 0062,-0.00000065,0.00000099,0.00000191,-0.00000152,0.00000025,-0.00000
 026,-0.00000088,0.00000126,-0.00000410,0.00000295,0.00000176,-0.000015
 89,-0.00000507,0.00001155,-0.00000009,-0.00000009,-0.00000175,0.000015
 58,0.00000728,0.00003356,0.00000215,-0.00000303,-0.00000534,-0.0000121
 6,0.00000059,0.00000556,0.00000183,-0.00000330,0.00001124,0.00001238,0
 .00000047,0.00005341,-0.00004153,0.00002068,0.00002573,0.00017416,0.00
 010861,0.00029715,0.00002379,0.00001920,-0.00001671,-0.00178189,-0.003
 47243,-0.00109160,0.00029797,-0.00021219,0.00134944,-0.06156310,-0.044
 69504,0.29639424,-0.00000008,0.00000038,0.00000030,-0.00000004,-0.0000
 0087,0.00000001,0.00000038,-0.00000017,0.00000063,0.00000037,-0.000000
 59,-0.00000123,0.00000127,-0.00000058,0.00000015,0.00000153,0.00000015
 ,0.00000250,0.00001614,0.00000431,-0.00000231,0.00001366,0.00005781,0.
 00001392,-0.00001601,-0.00000027,-0.00000007,0.00006030,-0.00026970,-0
 .00005156,0.00150771,0.00112044,0.00014647,0.00530620,-0.01342275,0.00
 322216,-0.06697099,0.06326782,-0.01673530,-0.02527503,0.03594946,-0.01
 024545,0.00000015,0.,0.00000003,0.,-0.00000002,-0.00000017,0.00000008,
 0.00000059,-0.00000006,-0.00000011,-0.00000020,0.00000014,-0.00000032,
 0.00000033,-0.00000037,0.00000029,0.00000112,0.00000025,-0.00000043,0.
 00000037,-0.00000040,0.00000012,0.00000036,0.00000032,-0.00000046,0.,0
 .00000026,-0.00000041,-0.00000009,0.00000033,-0.00000248,0.00000149,-0
 .00000132,0.00000051,-0.00000152,0.00000029,0.00000446,0.00000728,0.00
 000160,-0.00004312,0.00001453,-0.00000292,0.00000873,0.00001479,-0.000
 00005,-0.00000617,0.00000025,-0.00000014,0.00000791,-0.00001618,0.0000
 0638,0.00000894,0.00001867,0.00002760,-0.00013344,0.00019979,-0.000026
 27,0.00047676,0.00076435,0.00029148,-0.00160714,-0.00193595,-0.0018497
 5,0.00458005,-0.00597102,0.00120044,0.08918656,-0.00000067,-0.00000209
 ,-0.00000007,-0.00000203,0.00000204,0.00000136,0.00000033,-0.00000498,
 -0.00000249,-0.00000478,0.00000253,0.00000399,0.00000338,-0.00000504,0
 .00000008,0.00000356,-0.00002049,-0.00000749,-0.00002564,0.00001798,0.
 00001893,-0.00000878,-0.00002438,-0.00006498,-0.00003348,-0.00000078,-
 0.00001391,-0.00035516,0.00011764,-0.00005616,-0.00009122,0.00194741,0
 .00017323,0.00718554,-0.02389320,0.00591785,0.07324740,-0.27097615,0.0
 6241748,0.00350472,0.00404397,-0.00072893,0.00000018,0.00000056,-0.000
 00055,-0.00000031,0.00000078,-0.00000017,0.00000057,0.00000065,-0.0000
 0002,0.00000052,-0.00000098,0.00000003,-0.00000199,0.00000218,-0.00000
 134,0.00000104,0.00000474,-0.00000047,-0.00000275,0.00000357,-0.000000
 71,-0.00000044,0.00000093,-0.00000117,-0.00000157,-0.00000090,0.000002
 24,-0.00000075,0.00000003,0.00000086,-0.00000664,0.00000694,-0.0000029
 9,0.00000420,-0.00000349,0.00000165,0.00000640,0.00001466,0.00000078,-
 0.00007377,0.00003279,-0.00000956,0.00001753,0.00003169,0.00000249,-0.
 00001739,-0.00000060,0.00000567,0.00001896,-0.00003150,0.00000893,0.00
 001284,-0.00001375,-0.00000239,0.00012405,0.00033017,0.00007983,0.0002
 0826,0.00146977,-0.00006803,-0.00226831,-0.00170231,-0.00314196,0.0010
 9790,-0.00432408,0.00120863,-0.08100006,0.29096593,0.00000009,-0.00000
 008,-0.00000090,0.00000068,0.00000023,0.00000018,-0.00000048,0.0000002
 4,-0.00000056,0.00000083,-0.00000058,0.00000204,-0.00000039,-0.0000011
 0,-0.00000028,0.00000004,0.00000256,0.00000069,0.00002051,-0.00000877,
 0.00000680,-0.00001306,0.00012280,-0.00001236,0.00000693,-0.00001255,-
 0.00000358,0.00000495,-0.00014568,-0.00009516,0.00113362,0.00133234,0.
 00045698,0.00517479,-0.02216054,0.00472871,-0.02093878,0.06543341,-0.0
 7135138,0.00097990,-0.00400654,0.00325056,-0.00000030,-0.00000018,0.00
 000006,-0.00000017,0.00000004,0.00000033,-0.00000019,-0.00000009,0.000
 00002,0.00000036,0.00000052,-0.00000079,-0.00000005,-0.00000022,0.0000
 0074,0.00000020,-0.00000013,-0.00000107,-0.00000120,0.00000098,0.00000
 027,-0.00000024,0.00000029,-0.00000058,0.00000078,-0.00000112,0.000000
 47,0.00000067,0.00000142,-0.00000114,-0.00000059,-0.00000083,0.0000020
 9,0.00000078,-0.00000239,-0.00000418,0.00000152,-0.00000028,-0.0000041
 3,-0.00003465,-0.00000343,0.00002347,-0.00000349,-0.00001224,-0.000008
 62,0.00000922,0.00000331,0.00000619,-0.00002204,0.00002718,-0.00000698
 ,0.00000969,-0.00000769,-0.00002053,-0.00000371,0.00017969,-0.00002570
 ,0.00083040,0.00042866,0.00128952,-0.00188960,-0.00344106,-0.00148762,
 -0.00865097,0.02837556,-0.00749332,0.02213191,-0.06487836,0.07000416,0
 .00001114,0.00001119,0.00000463,0.00000396,-0.00002740,-0.00001713,0.0
 0000161,0.00002119,0.00002081,0.00000274,-0.00002914,-0.00002703,0.000
 00579,0.00001540,0.00000630,-0.00002019,0.00004759,0.00003442,0.000068
 67,-0.00004687,-0.00006650,-0.00002293,0.00010427,0.00009542,0.0000271
 9,-0.00003387,0.00000703,-0.00029842,-0.00068801,-0.00046900,0.0017077
 7,-0.00008353,0.00077752,-0.00071564,0.00177000,-0.00118926,-0.0241490
 3,0.04246623,-0.01667876,-0.09473520,0.11464658,-0.04218484,0.00000348
 ,0.00000269,0.00000642,-0.00000184,-0.00000105,-0.00000065,-0.00000164
 ,0.00000357,0.00000220,-0.00000363,0.00000134,0.00000293,0.00000281,-0
 .00000070,0.00000034,-0.00000106,0.00000174,0.00000226,-0.00000301,-0.
 00000301,-0.00000231,0.00000948,0.00000394,0.00001325,0.00000377,-0.00
 000798,-0.00001558,0.00000121,-0.00000215,-0.00000345,0.00000641,-0.00
 000499,0.00000140,-0.00001205,-0.00000460,-0.00000529,0.00000291,0.000
 00785,0.00000085,0.00001050,-0.00000935,-0.00000504,-0.00001355,0.0000
 0142,-0.00000141,0.00005094,0.00000809,-0.00001947,-0.00004564,0.00001
 757,0.00005666,0.00003731,0.00004901,0.00010696,-0.00005263,0.00004583
 ,0.00000679,0.00016000,-0.00023440,0.00021609,-0.00014021,-0.00154418,
 -0.00034024,0.00221453,0.00004730,0.00084733,-0.00712586,-0.00154164,0
 .00125204,0.12301034,0.00000190,0.00000070,-0.00000102,0.00000062,-0.0
 0000156,-0.00000238,-0.00000044,0.00000154,0.00000161,-0.00000279,0.00
 000140,-0.00000071,-0.00000235,0.00000158,0.00000048,-0.00000427,-0.00
 000256,-0.00000190,-0.00001692,0.00001220,0.00000097,-0.00001938,-0.00
 006444,-0.00002578,0.00001483,0.00001686,0.00000360,-0.00015714,0.0001
 1398,0.00000497,-0.00029804,-0.00107434,-0.00049737,-0.00212622,0.0039
 0994,0.00050492,-0.00525006,-0.00262385,0.00021158,0.16285459,-0.38959
 683,0.16170232,-0.00000004,0.00000053,0.00000105,-0.00000050,-0.000000
 41,0.00000048,-0.00000061,-0.00000062,0.00000066,0.00000002,0.00000101
 ,-0.00000066,0.00000083,-0.00000113,0.00000077,-0.00000029,-0.00000198
 ,0.00000051,0.00000013,-0.00000116,-0.00000001,0.00000004,0.00000047,0
 .00000099,0.00000299,-0.00000053,-0.00000230,0.00000180,0.00000095,-0.
 00000195,0.00000244,-0.00000300,0.00000085,-0.00000136,0.00000066,-0.0
 0000427,-0.00000090,-0.00000573,0.00000204,0.00001518,-0.00000238,-0.0
 0000180,-0.00000659,-0.00000999,-0.00000106,0.00000717,-0.00000340,-0.
 00000289,-0.00000105,0.00000464,0.00000288,-0.00000948,-0.00001596,-0.
 00002303,-0.00001369,-0.00007132,0.00000532,-0.00001243,-0.00025998,-0
 .00004774,0.00052836,-0.00070538,0.00062305,-0.00169205,0.00057152,-0.
 00006105,0.00119565,0.00200772,-0.00122537,-0.15500993,0.38780085,0.00
 000716,0.00000589,-0.00000114,0.00000491,-0.00001364,-0.00001038,-0.00
 000069,0.00001129,0.00001314,0.00000459,-0.00001377,-0.00001090,-0.000
 00313,0.00000655,0.00000249,-0.00001378,0.00002421,0.00002463,0.000045
 69,-0.00002001,-0.00004389,-0.00003567,0.00003431,0.00007653,0.0000471
 9,-0.00000492,0.00002217,-0.00020834,-0.00034382,-0.00026545,0.0010886
 9,-0.00017426,0.00008410,-0.00122761,0.00188452,-0.00030700,0.00705393
 ,-0.00610953,0.00051347,-0.06632171,0.16869590,-0.07373127,0.00000049,
 0.00000109,0.00000425,-0.00000171,-0.00000058,0.00000080,-0.00000171,0
 .00000146,0.00000248,-0.00000009,0.00000146,-0.00000247,0.00000163,-0.
 00000079,0.00000100,-0.00000093,0.00000041,0.00000083,-0.00000168,-0.0
 0000117,-0.00000123,0.00000336,0.00000196,0.00000506,0.00000606,-0.000
 00465,-0.00000809,0.00000988,0.00000135,-0.00000918,0.00000394,-0.0000
 0305,0.00000148,-0.00001170,-0.00000220,-0.00002209,-0.00000049,0.0000
 0282,0.00000651,0.00001000,-0.00000210,-0.00001377,-0.00000072,0.00001
 415,0.00000206,0.00002422,0.00000864,-0.00002650,-0.00002556,-0.000016
 04,0.00003626,0.00000360,0.00003635,0.00000795,-0.00002077,0.00002717,
 0.00003867,-0.00012633,0.00007854,-0.00024277,-0.00021243,-0.00060540,
 0.00023891,0.00046517,-0.00149208,0.00111828,0.00187020,-0.00086229,0.
 00074561,0.05756432,-0.16116775,0.07174946\\-0.00000171,-0.00000359,-0
 .00000018,0.00000015,0.00000389,-0.00000514,0.00000593,-0.00000060,-0.
 00000427,-0.00000264,-0.00000116,0.00000860,-0.00000395,0.00000571,-0.
 00000798,-0.00000424,0.00000176,-0.00000116,0.00000556,0.00000116,0.00
 000160,0.00000120,0.00000270,-0.00000402,0.00000146,-0.00000565,-0.000
 00108,0.00000398,0.00000164,0.00000688,-0.00000102,-0.00000065,-0.0000
 0699,-0.00000444,-0.00000058,-0.00000293,0.00000718,-0.00000183,0.0000
 0122,-0.00000512,-0.00000438,-0.00000563,-0.00000029,-0.00000023,0.000
 00304,0.00000251,0.00000075,-0.00000081,0.00000023,-0.00000054,0.00000
 213,0.00000162,-0.00000104,0.00000371,-0.00000065,-0.00000194,0.000002
 22,-0.00000178,-0.00000001,0.00000151,0.00000049,-0.00000123,0.0000024
 4,-0.00000097,-0.00000190,-0.00000015,-0.00000153,-0.00000213,-0.00000
 016,0.00000089,0.00000012,0.00000240,0.00000094,-0.00000029,0.00000104
 ,-0.00000043,-0.00000053,-0.00000017,-0.00000026,0.00000084,0.00000146
 ,-0.00000093,-0.00000085,-0.00000027,-0.00000075,0.00000092,-0.0000005
 4,-0.00000152,0.00000188,0.00000164,-0.00000055,0.00000128,0.00000078,
 0.00000068,-0.00000061,-0.00000145,0.00000011,-0.00000123,-0.00000006,
 0.00000377,0.00000348,-0.00000031,-0.00000239,-0.00000061,-0.00000078,
 0.00000123,0.00000047,0.00000130,-0.00000230,0.00000003,0.00000081,-0.
 00000046,0.00000497,0.00000132\\\@


 KEEP CLOSE TO NATURES HEART, YOURSELF;
 AND BREAK CLEAR AWAY, ONCE IN A WHILE, AND
 CLIMB A MOUNTAIN OR SPEND A WEEK IN THE
 WOODS.  WASH YOUR SPIRIT CLEAN...
                                         -- JOHN MUIR
 Job cpu time:       0 days  8 hours 38 minutes  0.9 seconds.
 Elapsed time:       0 days  2 hours 12 minutes 55.4 seconds.
 File lengths (MBytes):  RWF=    710 Int=      0 D2E=      0 Chk=     23 Scr=      1
 Normal termination of Gaussian 16 at Tue May 23 02:35:43 2023.
### All Done ###
