### Starting Gaussian ###
 Entering Gaussian System, Link 0=g16
 Initial command:
 /cluster/software/gaussian/gaussian-16-A.03/avx2/g16/l1.exe "/local/scratch/cz9n3/Gau-16399.inp" -scrdir="/local/scratch/cz9n3/"
 Entering Link 1 = /cluster/software/gaussian/gaussian-16-A.03/avx2/g16/l1.exe PID=     16400.
  
 Copyright (c) 1988,1990,1992,1993,1995,1998,2003,2009,2016,
            Gaussian, Inc.  All Rights Reserved.
  
 This is part of the Gaussian(R) 16 program.  It is based on
 the Gaussian(R) 09 system (copyright 2009, Gaussian, Inc.),
 the Gaussian(R) 03 system (copyright 2003, Gaussian, Inc.),
 the Gaussian(R) 98 system (copyright 1998, Gaussian, Inc.),
 the Gaussian(R) 94 system (copyright 1995, Gaussian, Inc.),
 the Gaussian 92(TM) system (copyright 1992, Gaussian, Inc.),
 the Gaussian 90(TM) system (copyright 1990, Gaussian, Inc.),
 the Gaussian 88(TM) system (copyright 1988, Gaussian, Inc.),
 the Gaussian 86(TM) system (copyright 1986, Carnegie Mellon
 University), and the Gaussian 82(TM) system (copyright 1983,
 Carnegie Mellon University). Gaussian is a federally registered
 trademark of Gaussian, Inc.
  
 This software contains proprietary and confidential information,
 including trade secrets, belonging to Gaussian, Inc.
  
 This software is provided under written license and may be
 used, copied, transmitted, or stored only in accord with that
 written license.
  
 The following legend is applicable only to US Government
 contracts under FAR:
  
                    RESTRICTED RIGHTS LEGEND
  
 Use, reproduction and disclosure by the US Government is
 subject to restrictions as set forth in subparagraphs (a)
 and (c) of the Commercial Computer Software - Restricted
 Rights clause in FAR 52.227-19.
  
 Gaussian, Inc.
 340 Quinnipiac St., Bldg. 40, Wallingford CT 06492
  
  
 ---------------------------------------------------------------
 Warning -- This program may not be used in any manner that
 competes with the business of Gaussian, Inc. or will provide
 assistance to any competitor of Gaussian, Inc.  The licensee
 of this program is prohibited from giving any competitor of
 Gaussian, Inc. access to this program.  By using this program,
 the user acknowledges that Gaussian, Inc. is engaged in the
 business of creating and licensing software in the field of
 computational chemistry and represents and warrants to the
 licensee that it is not a competitor of Gaussian, Inc. and that
 it will not use this program in any manner prohibited above.
 ---------------------------------------------------------------
  

 Cite this work as:
 Gaussian 16, Revision A.03,
 M. J. Frisch, G. W. Trucks, H. B. Schlegel, G. E. Scuseria, 
 M. A. Robb, J. R. Cheeseman, G. Scalmani, V. Barone, 
 G. A. Petersson, H. Nakatsuji, X. Li, M. Caricato, A. V. Marenich, 
 J. Bloino, B. G. Janesko, R. Gomperts, B. Mennucci, H. P. Hratchian, 
 J. V. Ortiz, A. F. Izmaylov, J. L. Sonnenberg, D. Williams-Young, 
 F. Ding, F. Lipparini, F. Egidi, J. Goings, B. Peng, A. Petrone, 
 T. Henderson, D. Ranasinghe, V. G. Zakrzewski, J. Gao, N. Rega, 
 G. Zheng, W. Liang, M. Hada, M. Ehara, K. Toyota, R. Fukuda, 
 J. Hasegawa, M. Ishida, T. Nakajima, Y. Honda, O. Kitao, H. Nakai, 
 T. Vreven, K. Throssell, J. A. Montgomery, Jr., J. E. Peralta, 
 F. Ogliaro, M. J. Bearpark, J. J. Heyd, E. N. Brothers, K. N. Kudin, 
 V. N. Staroverov, T. A. Keith, R. Kobayashi, J. Normand, 
 K. Raghavachari, A. P. Rendell, J. C. Burant, S. S. Iyengar, 
 J. Tomasi, M. Cossi, J. M. Millam, M. Klene, C. Adamo, R. Cammi, 
 J. W. Ochterski, R. L. Martin, K. Morokuma, O. Farkas, 
 J. B. Foresman, and D. J. Fox, Gaussian, Inc., Wallingford CT, 2016.
 
 ******************************************
 Gaussian 16:  ES64L-G16RevA.03 25-Dec-2016
                24-May-2023 
 ******************************************
 %chk=CdCCqCCrOCC1CCCqCrC1.chk
 %NProcShared=20
 Will use up to   20 processors via shared memory.
 -----------------------------
 # opt freq b3lyp/6-31g(2df,p)
 -----------------------------
 1/18=20,19=15,26=3,38=1/1,3;
 2/9=110,12=2,17=6,18=5,40=1/2;
 3/5=1,6=6,7=104,11=2,25=1,30=1,71=1,74=-5/1,2,3;
 4//1;
 5/5=2,38=5/2;
 6/7=2,8=2,9=2,10=2,28=1/1;
 7//1,2,3,16;
 1/18=20,19=15,26=3/3(2);
 2/9=110/2;
 99//99;
 2/9=110/2;
 3/5=1,6=6,7=104,11=2,25=1,30=1,71=1,74=-5/1,2,3;
 4/5=5,16=3,69=1/1;
 5/5=2,38=5/2;
 7//1,2,3,16;
 1/18=20,19=15,26=3/3(-5);
 2/9=110/2;
 6/7=2,8=2,9=2,10=2,19=2,28=1/1;
 99/9=1/99;
 -------------------
 Title Card Required
 -------------------
 Symbolic Z-matrix:
 Charge =  0 Multiplicity = 1
 C                     0.94539   0.32123  -0.08736 
 C                     2.26932   0.07748  -0.13284 
 C                     2.95474  -0.88518   0.7993 
 C                     2.59074  -2.36068   0.55144 
 C                     1.13189  -2.69653   0.7788 
 O                     4.37427  -0.69928   0.67571 
 C                     5.15478  -1.48952   1.58528 
 C                     4.79263  -1.19328   3.04786 
 C                     5.3787   -2.19084   4.02965 
 C                     6.82191  -1.75479   4.18059 
 C                     6.8355   -0.24318   3.88916 
 C                     7.29302   0.56256   5.08926 
 C                     5.40834   0.13372   3.47274 
 H                     0.45885   0.97856  -0.7939 
 H                     0.30915  -0.16595   0.64517 
 H                     2.88444   0.615    -0.84677 
 H                     2.64436  -0.56738   1.79763 
 H                     3.14568  -3.00935   1.23595 
 H                     2.90784  -2.65234  -0.45671 
 H                     0.81803  -2.36409   1.7743 
 H                     0.97803  -3.77548   0.71105 
 H                     0.49322  -2.24014   0.02211 
 H                     6.20851  -1.26253   1.383 
 H                     5.05951  -2.55344   1.34834 
 H                     3.71616  -1.17646   3.21628 
 H                     5.27408  -3.22793   3.69696 
 H                     4.85834  -2.09906   4.99233 
 H                     7.43758  -2.2797    3.44091 
 H                     7.2065   -2.0111    5.17176 
 H                     7.5201   -0.05204   3.05262 
 H                     6.62999   0.3957    5.94492 
 H                     7.29342   1.63199   4.85861 
 H                     8.30568   0.2686    5.37923 
 H                     5.40173   0.88002   2.66889 
 H                     4.84033   0.55858   4.3087 
 

 GradGradGradGradGradGradGradGradGradGradGradGradGradGradGradGradGradGrad
 Berny optimization.
 Initialization pass.
                           ----------------------------
                           !    Initial Parameters    !
                           ! (Angstroms and Degrees)  !
 --------------------------                            --------------------------
 ! Name  Definition              Value          Derivative Info.                !
 --------------------------------------------------------------------------------
 ! R1    R(1,2)                  1.3469         estimate D2E/DX2                !
 ! R2    R(1,14)                 1.0807         estimate D2E/DX2                !
 ! R3    R(1,15)                 1.0857         estimate D2E/DX2                !
 ! R4    R(2,3)                  1.5051         estimate D2E/DX2                !
 ! R5    R(2,16)                 1.0849         estimate D2E/DX2                !
 ! R6    R(3,4)                  1.5398         estimate D2E/DX2                !
 ! R7    R(3,6)                  1.437          estimate D2E/DX2                !
 ! R8    R(3,17)                 1.0927         estimate D2E/DX2                !
 ! R9    R(4,5)                  1.5142         estimate D2E/DX2                !
 ! R10   R(4,18)                 1.0942         estimate D2E/DX2                !
 ! R11   R(4,19)                 1.0964         estimate D2E/DX2                !
 ! R12   R(5,20)                 1.0955         estimate D2E/DX2                !
 ! R13   R(5,21)                 1.092          estimate D2E/DX2                !
 ! R14   R(5,22)                 1.0903         estimate D2E/DX2                !
 ! R15   R(6,7)                  1.4356         estimate D2E/DX2                !
 ! R16   R(7,8)                  1.5356         estimate D2E/DX2                !
 ! R17   R(7,23)                 1.0967         estimate D2E/DX2                !
 ! R18   R(7,24)                 1.0941         estimate D2E/DX2                !
 ! R19   R(8,9)                  1.5174         estimate D2E/DX2                !
 ! R20   R(8,13)                 1.5233         estimate D2E/DX2                !
 ! R21   R(8,25)                 1.0897         estimate D2E/DX2                !
 ! R22   R(9,10)                 1.5152         estimate D2E/DX2                !
 ! R23   R(9,26)                 1.0942         estimate D2E/DX2                !
 ! R24   R(9,27)                 1.0982         estimate D2E/DX2                !
 ! R25   R(10,11)                1.5395         estimate D2E/DX2                !
 ! R26   R(10,28)                1.0962         estimate D2E/DX2                !
 ! R27   R(10,29)                1.0936         estimate D2E/DX2                !
 ! R28   R(11,12)                1.5162         estimate D2E/DX2                !
 ! R29   R(11,13)                1.5337         estimate D2E/DX2                !
 ! R30   R(11,30)                1.0977         estimate D2E/DX2                !
 ! R31   R(12,31)                1.0953         estimate D2E/DX2                !
 ! R32   R(12,32)                1.094          estimate D2E/DX2                !
 ! R33   R(12,33)                1.0936         estimate D2E/DX2                !
 ! R34   R(13,34)                1.0969         estimate D2E/DX2                !
 ! R35   R(13,35)                1.0963         estimate D2E/DX2                !
 ! A1    A(2,1,14)             122.0385         estimate D2E/DX2                !
 ! A2    A(2,1,15)             121.1701         estimate D2E/DX2                !
 ! A3    A(14,1,15)            116.7563         estimate D2E/DX2                !
 ! A4    A(1,2,3)              122.8499         estimate D2E/DX2                !
 ! A5    A(1,2,16)             119.3311         estimate D2E/DX2                !
 ! A6    A(3,2,16)             117.7902         estimate D2E/DX2                !
 ! A7    A(2,3,4)              113.9246         estimate D2E/DX2                !
 ! A8    A(2,3,6)              108.2917         estimate D2E/DX2                !
 ! A9    A(2,3,17)             104.5044         estimate D2E/DX2                !
 ! A10   A(4,3,6)              110.099          estimate D2E/DX2                !
 ! A11   A(4,3,17)             111.0148         estimate D2E/DX2                !
 ! A12   A(6,3,17)             108.7569         estimate D2E/DX2                !
 ! A13   A(3,4,5)              114.5901         estimate D2E/DX2                !
 ! A14   A(3,4,18)             110.333          estimate D2E/DX2                !
 ! A15   A(3,4,19)             109.5459         estimate D2E/DX2                !
 ! A16   A(5,4,18)             105.2605         estimate D2E/DX2                !
 ! A17   A(5,4,19)             110.961          estimate D2E/DX2                !
 ! A18   A(18,4,19)            105.7151         estimate D2E/DX2                !
 ! A19   A(4,5,20)             110.1928         estimate D2E/DX2                !
 ! A20   A(4,5,21)             110.2182         estimate D2E/DX2                !
 ! A21   A(4,5,22)             111.55           estimate D2E/DX2                !
 ! A22   A(20,5,21)            108.413          estimate D2E/DX2                !
 ! A23   A(20,5,22)            109.6228         estimate D2E/DX2                !
 ! A24   A(21,5,22)            106.7384         estimate D2E/DX2                !
 ! A25   A(3,6,7)              114.2911         estimate D2E/DX2                !
 ! A26   A(6,7,8)              111.6564         estimate D2E/DX2                !
 ! A27   A(6,7,23)             106.9526         estimate D2E/DX2                !
 ! A28   A(6,7,24)             110.5306         estimate D2E/DX2                !
 ! A29   A(8,7,23)             111.2438         estimate D2E/DX2                !
 ! A30   A(8,7,24)             111.9198         estimate D2E/DX2                !
 ! A31   A(23,7,24)            104.1803         estimate D2E/DX2                !
 ! A32   A(7,8,9)              113.4746         estimate D2E/DX2                !
 ! A33   A(7,8,13)             109.7783         estimate D2E/DX2                !
 ! A34   A(7,8,25)             112.5296         estimate D2E/DX2                !
 ! A35   A(9,8,13)             103.657          estimate D2E/DX2                !
 ! A36   A(9,8,25)             106.9592         estimate D2E/DX2                !
 ! A37   A(13,8,25)            110.043          estimate D2E/DX2                !
 ! A38   A(8,9,10)             104.0723         estimate D2E/DX2                !
 ! A39   A(8,9,26)             112.9209         estimate D2E/DX2                !
 ! A40   A(8,9,27)             109.2226         estimate D2E/DX2                !
 ! A41   A(10,9,26)            113.2125         estimate D2E/DX2                !
 ! A42   A(10,9,27)            109.8744         estimate D2E/DX2                !
 ! A43   A(26,9,27)            107.4851         estimate D2E/DX2                !
 ! A44   A(9,10,11)            105.7906         estimate D2E/DX2                !
 ! A45   A(9,10,28)            109.2645         estimate D2E/DX2                !
 ! A46   A(9,10,29)            110.965          estimate D2E/DX2                !
 ! A47   A(11,10,28)           109.7227         estimate D2E/DX2                !
 ! A48   A(11,10,29)           113.4895         estimate D2E/DX2                !
 ! A49   A(28,10,29)           107.5664         estimate D2E/DX2                !
 ! A50   A(10,11,12)           112.0012         estimate D2E/DX2                !
 ! A51   A(10,11,13)           106.5275         estimate D2E/DX2                !
 ! A52   A(10,11,30)           108.7072         estimate D2E/DX2                !
 ! A53   A(12,11,13)           111.4145         estimate D2E/DX2                !
 ! A54   A(12,11,30)           108.8124         estimate D2E/DX2                !
 ! A55   A(13,11,30)           109.3068         estimate D2E/DX2                !
 ! A56   A(11,12,31)           110.7774         estimate D2E/DX2                !
 ! A57   A(11,12,32)           110.6537         estimate D2E/DX2                !
 ! A58   A(11,12,33)           110.2704         estimate D2E/DX2                !
 ! A59   A(31,12,32)           108.2914         estimate D2E/DX2                !
 ! A60   A(31,12,33)           108.2074         estimate D2E/DX2                !
 ! A61   A(32,12,33)           108.5613         estimate D2E/DX2                !
 ! A62   A(8,13,11)            103.7546         estimate D2E/DX2                !
 ! A63   A(8,13,34)            112.6964         estimate D2E/DX2                !
 ! A64   A(8,13,35)            109.9283         estimate D2E/DX2                !
 ! A65   A(11,13,34)           111.8255         estimate D2E/DX2                !
 ! A66   A(11,13,35)           111.7346         estimate D2E/DX2                !
 ! A67   A(34,13,35)           106.9781         estimate D2E/DX2                !
 ! D1    D(14,1,2,3)          -176.9657         estimate D2E/DX2                !
 ! D2    D(14,1,2,16)            5.0326         estimate D2E/DX2                !
 ! D3    D(15,1,2,3)             0.8111         estimate D2E/DX2                !
 ! D4    D(15,1,2,16)         -177.1906         estimate D2E/DX2                !
 ! D5    D(1,2,3,4)             69.1363         estimate D2E/DX2                !
 ! D6    D(1,2,3,6)           -168.0026         estimate D2E/DX2                !
 ! D7    D(1,2,3,17)           -52.1963         estimate D2E/DX2                !
 ! D8    D(16,2,3,4)          -112.833          estimate D2E/DX2                !
 ! D9    D(16,2,3,6)            10.0281         estimate D2E/DX2                !
 ! D10   D(16,2,3,17)          125.8344         estimate D2E/DX2                !
 ! D11   D(2,3,4,5)            -63.363          estimate D2E/DX2                !
 ! D12   D(2,3,4,18)           178.0642         estimate D2E/DX2                !
 ! D13   D(2,3,4,19)            62.0831         estimate D2E/DX2                !
 ! D14   D(6,3,4,5)            174.7688         estimate D2E/DX2                !
 ! D15   D(6,3,4,18)            56.196          estimate D2E/DX2                !
 ! D16   D(6,3,4,19)           -59.7851         estimate D2E/DX2                !
 ! D17   D(17,3,4,5)            54.2795         estimate D2E/DX2                !
 ! D18   D(17,3,4,18)          -64.2933         estimate D2E/DX2                !
 ! D19   D(17,3,4,19)          179.7255         estimate D2E/DX2                !
 ! D20   D(2,3,6,7)            175.6488         estimate D2E/DX2                !
 ! D21   D(4,3,6,7)            -59.1973         estimate D2E/DX2                !
 ! D22   D(17,3,6,7)            62.6426         estimate D2E/DX2                !
 ! D23   D(3,4,5,20)           -53.0519         estimate D2E/DX2                !
 ! D24   D(3,4,5,21)          -172.6623         estimate D2E/DX2                !
 ! D25   D(3,4,5,22)            68.9507         estimate D2E/DX2                !
 ! D26   D(18,4,5,20)           68.3442         estimate D2E/DX2                !
 ! D27   D(18,4,5,21)          -51.2662         estimate D2E/DX2                !
 ! D28   D(18,4,5,22)         -169.6532         estimate D2E/DX2                !
 ! D29   D(19,4,5,20)         -177.7543         estimate D2E/DX2                !
 ! D30   D(19,4,5,21)           62.6353         estimate D2E/DX2                !
 ! D31   D(19,4,5,22)          -55.7517         estimate D2E/DX2                !
 ! D32   D(3,6,7,8)            -58.5696         estimate D2E/DX2                !
 ! D33   D(3,6,7,23)           179.5194         estimate D2E/DX2                !
 ! D34   D(3,6,7,24)            66.7124         estimate D2E/DX2                !
 ! D35   D(6,7,8,9)            168.3037         estimate D2E/DX2                !
 ! D36   D(6,7,8,13)           -76.2467         estimate D2E/DX2                !
 ! D37   D(6,7,8,25)            46.6735         estimate D2E/DX2                !
 ! D38   D(23,7,8,9)           -72.2927         estimate D2E/DX2                !
 ! D39   D(23,7,8,13)           43.1569         estimate D2E/DX2                !
 ! D40   D(23,7,8,25)          166.0771         estimate D2E/DX2                !
 ! D41   D(24,7,8,9)            43.7952         estimate D2E/DX2                !
 ! D42   D(24,7,8,13)          159.2448         estimate D2E/DX2                !
 ! D43   D(24,7,8,25)          -77.835          estimate D2E/DX2                !
 ! D44   D(7,8,9,10)            78.9131         estimate D2E/DX2                !
 ! D45   D(7,8,9,26)           -44.2596         estimate D2E/DX2                !
 ! D46   D(7,8,9,27)          -163.7918         estimate D2E/DX2                !
 ! D47   D(13,8,9,10)          -40.1106         estimate D2E/DX2                !
 ! D48   D(13,8,9,26)         -163.2832         estimate D2E/DX2                !
 ! D49   D(13,8,9,27)           77.1845         estimate D2E/DX2                !
 ! D50   D(25,8,9,10)         -156.3951         estimate D2E/DX2                !
 ! D51   D(25,8,9,26)           80.4322         estimate D2E/DX2                !
 ! D52   D(25,8,9,27)          -39.1            estimate D2E/DX2                !
 ! D53   D(7,8,13,11)          -84.4302         estimate D2E/DX2                !
 ! D54   D(7,8,13,34)           36.7187         estimate D2E/DX2                !
 ! D55   D(7,8,13,35)          155.9482         estimate D2E/DX2                !
 ! D56   D(9,8,13,11)           37.1039         estimate D2E/DX2                !
 ! D57   D(9,8,13,34)          158.2527         estimate D2E/DX2                !
 ! D58   D(9,8,13,35)          -82.5178         estimate D2E/DX2                !
 ! D59   D(25,8,13,11)         151.194          estimate D2E/DX2                !
 ! D60   D(25,8,13,34)         -87.6571         estimate D2E/DX2                !
 ! D61   D(25,8,13,35)          31.5723         estimate D2E/DX2                !
 ! D62   D(8,9,10,11)           27.1235         estimate D2E/DX2                !
 ! D63   D(8,9,10,28)          -90.9331         estimate D2E/DX2                !
 ! D64   D(8,9,10,29)          150.6233         estimate D2E/DX2                !
 ! D65   D(26,9,10,11)         150.1055         estimate D2E/DX2                !
 ! D66   D(26,9,10,28)          32.0489         estimate D2E/DX2                !
 ! D67   D(26,9,10,29)         -86.3947         estimate D2E/DX2                !
 ! D68   D(27,9,10,11)         -89.7187         estimate D2E/DX2                !
 ! D69   D(27,9,10,28)         152.2247         estimate D2E/DX2                !
 ! D70   D(27,9,10,29)          33.7811         estimate D2E/DX2                !
 ! D71   D(9,10,11,12)         117.8848         estimate D2E/DX2                !
 ! D72   D(9,10,11,13)          -4.165          estimate D2E/DX2                !
 ! D73   D(9,10,11,30)        -121.849          estimate D2E/DX2                !
 ! D74   D(28,10,11,12)       -124.365          estimate D2E/DX2                !
 ! D75   D(28,10,11,13)        113.5852         estimate D2E/DX2                !
 ! D76   D(28,10,11,30)         -4.0987         estimate D2E/DX2                !
 ! D77   D(29,10,11,12)         -4.0077         estimate D2E/DX2                !
 ! D78   D(29,10,11,13)       -126.0576         estimate D2E/DX2                !
 ! D79   D(29,10,11,30)        116.2585         estimate D2E/DX2                !
 ! D80   D(10,11,12,31)        -59.8263         estimate D2E/DX2                !
 ! D81   D(10,11,12,32)       -179.9425         estimate D2E/DX2                !
 ! D82   D(10,11,12,33)         59.9346         estimate D2E/DX2                !
 ! D83   D(13,11,12,31)         59.3852         estimate D2E/DX2                !
 ! D84   D(13,11,12,32)        -60.7309         estimate D2E/DX2                !
 ! D85   D(13,11,12,33)        179.1461         estimate D2E/DX2                !
 ! D86   D(30,11,12,31)        179.9688         estimate D2E/DX2                !
 ! D87   D(30,11,12,32)         59.8526         estimate D2E/DX2                !
 ! D88   D(30,11,12,33)        -60.2703         estimate D2E/DX2                !
 ! D89   D(10,11,13,8)         -20.2319         estimate D2E/DX2                !
 ! D90   D(10,11,13,34)       -141.9639         estimate D2E/DX2                !
 ! D91   D(10,11,13,35)         98.1498         estimate D2E/DX2                !
 ! D92   D(12,11,13,8)        -142.6522         estimate D2E/DX2                !
 ! D93   D(12,11,13,34)         95.6158         estimate D2E/DX2                !
 ! D94   D(12,11,13,35)        -24.2704         estimate D2E/DX2                !
 ! D95   D(30,11,13,8)          97.055          estimate D2E/DX2                !
 ! D96   D(30,11,13,34)        -24.677          estimate D2E/DX2                !
 ! D97   D(30,11,13,35)       -144.5633         estimate D2E/DX2                !
 --------------------------------------------------------------------------------
 Trust Radius=3.00D-01 FncErr=1.00D-07 GrdErr=1.00D-06 EigMax=2.50D+02 EigMin=1.00D-04
 Number of steps in this run=    209 maximum allowed number of steps=    210.
 GradGradGradGradGradGradGradGradGradGradGradGradGradGradGradGradGradGrad

                          Input orientation:                          
 ---------------------------------------------------------------------
 Center     Atomic      Atomic             Coordinates (Angstroms)
 Number     Number       Type             X           Y           Z
 ---------------------------------------------------------------------
      1          6           0        0.945390    0.321230   -0.087360
      2          6           0        2.269320    0.077480   -0.132840
      3          6           0        2.954740   -0.885180    0.799300
      4          6           0        2.590740   -2.360680    0.551440
      5          6           0        1.131890   -2.696530    0.778800
      6          8           0        4.374270   -0.699280    0.675710
      7          6           0        5.154780   -1.489520    1.585280
      8          6           0        4.792630   -1.193280    3.047860
      9          6           0        5.378700   -2.190840    4.029650
     10          6           0        6.821910   -1.754790    4.180590
     11          6           0        6.835500   -0.243180    3.889160
     12          6           0        7.293020    0.562560    5.089260
     13          6           0        5.408340    0.133720    3.472740
     14          1           0        0.458850    0.978560   -0.793900
     15          1           0        0.309150   -0.165950    0.645170
     16          1           0        2.884440    0.615000   -0.846770
     17          1           0        2.644360   -0.567380    1.797630
     18          1           0        3.145680   -3.009350    1.235950
     19          1           0        2.907840   -2.652340   -0.456710
     20          1           0        0.818030   -2.364090    1.774300
     21          1           0        0.978030   -3.775480    0.711050
     22          1           0        0.493220   -2.240140    0.022110
     23          1           0        6.208510   -1.262530    1.383000
     24          1           0        5.059510   -2.553440    1.348340
     25          1           0        3.716160   -1.176460    3.216280
     26          1           0        5.274080   -3.227930    3.696960
     27          1           0        4.858340   -2.099060    4.992330
     28          1           0        7.437580   -2.279700    3.440910
     29          1           0        7.206500   -2.011100    5.171760
     30          1           0        7.520100   -0.052040    3.052620
     31          1           0        6.629990    0.395700    5.944920
     32          1           0        7.293420    1.631990    4.858610
     33          1           0        8.305680    0.268600    5.379230
     34          1           0        5.401730    0.880020    2.668890
     35          1           0        4.840330    0.558580    4.308700
 ---------------------------------------------------------------------
                    Distance matrix (angstroms):
                    1          2          3          4          5
     1  C    0.000000
     2  C    1.346950   0.000000
     3  C    2.505809   1.505125   0.000000
     4  C    3.210589   2.552680   1.539815   0.000000
     5  C    3.145138   3.133682   2.569862   1.514177   0.000000
     6  O    3.657996   2.384937   1.436976   2.440629   3.809549
     7  C    4.878064   3.705847   2.413124   2.898628   4.276789
     8  C    5.188892   4.254266   2.920409   3.527500   4.561733
     9  C    6.550916   5.669201   4.244466   4.460887   5.372071
    10  C    7.553724   6.533679   5.210024   5.607195   6.695922
    11  C    7.129142   6.093382   5.001969   5.800187   6.944381
    12  C    8.194391   7.262451   6.270597   7.158811   8.195197
    13  C    5.712039   4.780880   3.769031   4.763916   5.792724
    14  H    1.080742   2.127615   3.498754   4.183948   4.053721
    15  H    1.085701   2.122928   2.745941   3.167219   2.664319
    16  H    2.103074   1.084895   2.228234   3.300897   4.084133
    17  H    2.688738   2.069593   1.092701   2.184443   2.803366
    18  H    4.205376   3.488569   2.176975   1.094205   2.088586
    19  H    3.581864   2.822148   2.168551   1.096350   2.163894
    20  H    3.270006   3.421212   2.775487   2.153578   1.095466
    21  H    4.173914   4.150287   3.502714   2.151271   1.091969
    22  H    2.603278   2.924022   2.915308   2.166636   1.090308
    23  H    5.689524   4.428387   3.327179   3.871135   5.309754
    24  H    5.220244   4.111058   2.741276   2.601352   3.971278
    25  H    4.564458   3.857761   2.550764   3.125751   3.863984
    26  H    6.756861   5.884020   4.389106   4.224539   5.094682
    27  H    6.853629   6.140661   4.762216   4.993191   5.656610
    28  H    7.833394   6.711103   5.386896   5.643355   6.857281
    29  H    8.502917   7.541664   6.201900   6.540245   7.527868
    30  H    7.295589   6.142851   5.158884   5.990351   7.278242
    31  H    8.289067   7.487047   6.451784   7.280302   8.153514
    32  H    8.153416   7.250700   6.452774   7.523850   8.564192
    33  H    9.168437   8.176618   7.137193   7.929767   9.023260
    34  H    5.269547   4.278522   3.549515   4.784077   5.881810
    35  H    5.878115   5.154496   4.237426   5.263054   6.066998
                    6          7          8          9         10
     6  O    0.000000
     7  C    1.435616   0.000000
     8  C    2.458893   1.535595   0.000000
     9  C    3.805594   2.552829   1.517404   0.000000
    10  C    4.403320   3.096018   2.390889   1.515182   0.000000
    11  C    4.073321   3.112241   2.404952   2.436264   1.539507
    12  C    5.439739   4.589224   3.674539   3.516903   2.533325
    13  C    3.096218   2.502340   1.523335   2.390524   2.462865
    14  H    4.506153   5.814093   6.185278   7.583974   8.526739
    15  H    4.100070   5.110360   5.189405   6.423023   7.578895
    16  H    2.502972   3.936790   4.698852   6.154148   6.811308
    17  H    2.066081   2.682842   2.563180   3.885119   4.953823
    18  H    2.675766   2.543304   3.048536   3.668937   4.874371
    19  H    2.692069   3.251248   4.238313   5.142524   6.134337
    20  H    4.077418   4.428092   4.334766   5.090808   6.496773
    21  H    4.582434   4.840985   5.165231   5.734988   7.090263
    22  H    4.226582   4.973638   5.360597   6.319076   7.588204
    23  H    2.044981   1.096717   2.186612   2.924910   2.906044
    24  H    2.088036   1.094140   2.193086   2.724479   3.430093
    25  H    2.667453   2.197224   1.089695   2.110587   3.303035
    26  H    4.041247   2.737790   2.189275   1.094159   2.190848
    27  H    4.563652   3.473817   2.146094   1.098158   2.152452
    28  H    4.419041   3.046132   2.886270   2.143245   1.096224
    29  H    5.473286   4.164666   3.317612   2.162770   1.093628
    30  H    3.995606   3.132758   2.956610   3.180353   2.158505
    31  H    5.835394   4.973606   3.780702   3.453140   2.788243
    32  H    5.608289   5.003228   4.185083   4.355153   3.486017
    33  H    6.206116   5.235763   4.462499   4.054309   2.780723
    34  H    2.742741   2.617234   2.193899   3.358925   3.353263
    35  H    3.872730   3.422077   2.158936   2.815497   3.048730
                   11         12         13         14         15
    11  C    0.000000
    12  C    1.516173   0.000000
    13  C    1.533703   2.519734   0.000000
    14  H    8.005334   9.027209   6.589038   0.000000
    15  H    7.288531   8.309940   5.838381   1.844786   0.000000
    16  H    6.227068   7.394240   5.025920   2.453255   3.076993
    17  H    4.695238   5.807033   3.307132   3.725911   2.634865
    18  H    5.320338   6.693801   4.472331   5.219461   4.059538
    19  H    6.333810   7.766799   5.427265   4.392571   3.761577
    20  H    6.721669   7.840901   5.494970   4.230599   2.523036
    21  H    7.542379   8.824195   6.521995   5.013514   3.671573
    22  H    7.691972   8.931317   6.457590   3.320705   2.173557
    23  H    2.777234   4.271239   2.637575   6.543697   6.045604
    24  H    3.866162   5.356539   3.443194   6.183065   5.362880
    25  H    3.324765   4.396154   2.155416   5.597832   4.386280
    26  H    3.373975   4.514691   3.371793   7.813375   6.583287
    27  H    2.927531   3.608502   2.756258   7.893524   6.582541
    28  H    2.170447   3.288829   3.153320   8.789343   7.943464
    29  H    2.215456   2.576435   3.274187   9.489887   8.453877
    30  H    1.097730   2.139439   2.161143   8.106732   7.603065
    31  H    2.162534   1.095265   2.769970   9.156112   8.267758
    32  H    2.160043   1.094020   2.778304   8.893210   8.352586
    33  H    2.154915   1.093607   3.470947  10.009212   9.302938
    34  H    2.192335   3.088033   1.096897   6.035950   5.578877
    35  H    2.190784   2.573903   1.096344   6.738715   5.871796
                   16         17         18         19         20
    16  H    0.000000
    17  H    2.906632   0.000000
    18  H    4.188303   2.555391   0.000000
    19  H    3.290624   3.081968   1.746173   0.000000
    20  H    4.473817   2.562068   2.474699   3.070472   0.000000
    21  H    5.033639   3.774814   2.358216   2.519776   1.774295
    22  H    3.824227   3.252384   3.016726   2.495910   1.786347
    23  H    4.421135   3.654903   3.529013   4.026230   5.515780
    24  H    4.425884   3.158994   1.970591   2.810279   4.267019
    25  H    4.517683   1.879442   2.758014   4.040106   3.448033
    26  H    6.412798   4.195403   3.261048   4.814911   4.929424
    27  H    6.734797   4.177782   4.227555   5.814001   5.172046
    28  H    6.891631   5.348586   4.880025   5.987391   6.826650
    29  H    7.861254   5.855101   5.742592   7.111212   7.244300
    30  H    6.094221   5.060970   5.584042   6.352157   7.203986
    31  H    7.759142   5.832048   6.775631   8.007860   7.667424
    32  H    7.281808   5.985030   7.202045   8.114273   8.210499
    33  H    8.262742   6.751094   7.384939   8.469165   8.717309
    34  H    4.332072   3.233752   4.719140   5.335394   5.686374
    35  H    5.514305   3.520730   5.004374   6.062479   5.580688
                   21         22         23         24         25
    21  H    0.000000
    22  H    1.751270   0.000000
    23  H    5.841606   5.955861   0.000000
    24  H    4.307900   4.765296   1.728540   0.000000
    25  H    4.530832   4.660631   3.095179   2.681392   0.000000
    26  H    5.260372   6.110391   3.176534   2.452956   2.620438
    27  H    6.016357   6.616439   3.943349   3.677716   2.304370
    28  H    7.170445   7.740407   2.603890   3.179465   3.888003
    29  H    7.861603   8.464011   3.988865   4.418398   4.086930
    30  H    7.883250   7.959197   2.444010   3.900779   3.970021
    31  H    8.759954   8.926773   4.872216   5.682639   4.290404
    32  H    9.291240   9.199339   4.651359   5.901709   4.835435
    33  H    9.583368   9.799339   4.765746   5.894879   5.275438
    34  H    6.713862   6.390173   2.625819   3.694538   2.714755
    35  H    6.829680   6.716030   3.707840   4.300749   2.338269
                   26         27         28         29         30
    26  H    0.000000
    27  H    1.767815   0.000000
    28  H    2.376012   3.015297   0.000000
    29  H    2.718448   2.356648   1.766744   0.000000
    30  H    3.942849   3.877851   2.262752   2.902932   0.000000
    31  H    4.474652   3.204684   3.752337   2.592841   3.059112
    32  H    5.389433   4.457379   4.163169   3.657557   2.479706
    33  H    4.924059   4.199959   3.317305   2.539345   2.476502
    34  H    4.236564   3.816879   3.837256   4.228490   2.345949
    35  H    3.860055   2.744217   3.943932   3.598178   3.021880
                   31         32         33         34         35
    31  H    0.000000
    32  H    1.774436   0.000000
    33  H    1.773160   1.776105   0.000000
    34  H    3.532076   2.989787   4.019043   0.000000
    35  H    2.430356   2.733544   3.638513   1.762802   0.000000
 Stoichiometry    C12H22O
 Framework group  C1[X(C12H22O)]
 Deg. of freedom    99
 Full point group                 C1      NOp   1
 Largest Abelian subgroup         C1      NOp   1
 Largest concise Abelian subgroup C1      NOp   1
                         Standard orientation:                         
 ---------------------------------------------------------------------
 Center     Atomic      Atomic             Coordinates (Angstroms)
 Number     Number       Type             X           Y           Z
 ---------------------------------------------------------------------
      1          6           0       -3.900326   -1.565132   -0.659619
      2          6           0       -2.934642   -1.383287    0.261609
      3          6           0       -1.901532   -0.293698    0.157301
      4          6           0       -2.468325    1.124848    0.350957
      5          6           0       -3.473138    1.550614   -0.698712
      6          8           0       -0.874215   -0.551809    1.128329
      7          6           0        0.232737    0.360699    1.073723
      8          6           0        0.909688    0.348580   -0.304552
      9          6           0        1.895006    1.485185   -0.504038
     10          6           0        3.136877    1.030202    0.235235
     11          6           0        3.095468   -0.508632    0.216357
     12          6           0        4.279698   -1.099670   -0.523275
     13          6           0        1.768979   -0.901305   -0.445820
     14          1           0       -4.664456   -2.321155   -0.547648
     15          1           0       -3.966371   -0.929676   -1.537446
     16          1           0       -2.868558   -2.064046    1.103746
     17          1           0       -1.477759   -0.413202   -0.842765
     18          1           0       -1.664928    1.865809    0.297894
     19          1           0       -2.890872    1.216631    1.358436
     20          1           0       -3.052543    1.416341   -1.701266
     21          1           0       -3.729335    2.604324   -0.570439
     22          1           0       -4.403576    0.988628   -0.613697
     23          1           0        0.932973    0.061585    1.863019
     24          1           0       -0.084611    1.366743    1.364083
     25          1           0        0.191986    0.402810   -1.122720
     26          1           0        1.512044    2.447833   -0.152140
     27          1           0        2.115070    1.589156   -1.574884
     28          1           0        3.093393    1.388778    1.270242
     29          1           0        4.038856    1.447620   -0.221074
     30          1           0        3.106487   -0.873859    1.251489
     31          1           0        4.299515   -0.755637   -1.562916
     32          1           0        4.227792   -2.192458   -0.524155
     33          1           0        5.215092   -0.795977   -0.044960
     34          1           0        1.319218   -1.780338    0.031881
     35          1           0        1.901361   -1.145867   -1.506308
 ---------------------------------------------------------------------
 Rotational constants (GHZ):           1.6310879           0.3595924           0.3276710
 Standard basis: 6-31G(2df,p) (6D, 7F)
 There are   513 symmetry adapted cartesian basis functions of A   symmetry.
 There are   474 symmetry adapted basis functions of A   symmetry.
   474 basis functions,   726 primitive gaussians,   513 cartesian basis functions
    51 alpha electrons       51 beta electrons
       nuclear repulsion energy       848.7612984469 Hartrees.
 NAtoms=   35 NActive=   35 NUniq=   35 SFac= 1.00D+00 NAtFMM=   60 NAOKFM=F Big=F
 Integral buffers will be    131072 words long.
 Raffenetti 2 integral format.
 Two-electron integral symmetry is turned on.
 One-electron integrals computed using PRISM.
 PrsmSu:  requested number of processors reduced to:  12 ShMem   1 Linda.
 NBasis=   474 RedAO= T EigKep=  4.89D-04  NBF=   474
 NBsUse=   474 1.00D-06 EigRej= -1.00D+00 NBFU=   474
 ExpMin= 1.61D-01 ExpMax= 5.48D+03 ExpMxC= 8.25D+02 IAcc=3 IRadAn=         5 AccDes= 0.00D+00
 Harris functional with IExCor=  402 and IRadAn=       5 diagonalized for initial guess.
 HarFok:  IExCor=  402 AccDes= 0.00D+00 IRadAn=         5 IDoV= 1 UseB2=F ITyADJ=14
 ICtDFT=  3500011 ScaDFX=  1.000000  1.000000  1.000000  1.000000
 FoFCou: FMM=F IPFlag=           0 FMFlag=      100000 FMFlg1=           0
         NFxFlg=           0 DoJE=T BraDBF=F KetDBF=T FulRan=T
         wScrn=  0.000000 ICntrl=       500 IOpCl=  0 I1Cent=   200000004 NGrid=           0
         NMat0=    1 NMatS0=      1 NMatT0=    0 NMatD0=    1 NMtDS0=    0 NMtDT0=    0
 Petite list used in FoFCou.
 Requested convergence on RMS density matrix=1.00D-08 within 128 cycles.
 Requested convergence on MAX density matrix=1.00D-06.
 Requested convergence on             energy=1.00D-06.
 No special actions if energy rises.
 Integral accuracy reduced to 1.0D-05 until final iterations.
 Initial convergence to 1.0D-05 achieved.  Increase integral accuracy.
 SCF Done:  E(RB3LYP) =  -545.746525849     A.U. after   12 cycles
            NFock= 12  Conv=0.94D-08     -V/T= 2.0080

 **********************************************************************

            Population analysis using the SCF density.

 **********************************************************************

 Orbital symmetries:
       Occupied  (A) (A) (A) (A) (A) (A) (A) (A) (A) (A) (A) (A)
                 (A) (A) (A) (A) (A) (A) (A) (A) (A) (A) (A) (A)
                 (A) (A) (A) (A) (A) (A) (A) (A) (A) (A) (A) (A)
                 (A) (A) (A) (A) (A) (A) (A) (A) (A) (A) (A) (A)
                 (A) (A) (A)
       Virtual   (A) (A) (A) (A) (A) (A) (A) (A) (A) (A) (A) (A)
                 (A) (A) (A) (A) (A) (A) (A) (A) (A) (A) (A) (A)
                 (A) (A) (A) (A) (A) (A) (A) (A) (A) (A) (A) (A)
                 (A) (A) (A) (A) (A) (A) (A) (A) (A) (A) (A) (A)
                 (A) (A) (A) (A) (A) (A) (A) (A) (A) (A) (A) (A)
                 (A) (A) (A) (A) (A) (A) (A) (A) (A) (A) (A) (A)
                 (A) (A) (A) (A) (A) (A) (A) (A) (A) (A) (A) (A)
                 (A) (A) (A) (A) (A) (A) (A) (A) (A) (A) (A) (A)
                 (A) (A) (A) (A) (A) (A) (A) (A) (A) (A) (A) (A)
                 (A) (A) (A) (A) (A) (A) (A) (A) (A) (A) (A) (A)
                 (A) (A) (A) (A) (A) (A) (A) (A) (A) (A) (A) (A)
                 (A) (A) (A) (A) (A) (A) (A) (A) (A) (A) (A) (A)
                 (A) (A) (A) (A) (A) (A) (A) (A) (A) (A) (A) (A)
                 (A) (A) (A) (A) (A) (A) (A) (A) (A) (A) (A) (A)
                 (A) (A) (A) (A) (A) (A) (A) (A) (A) (A) (A) (A)
                 (A) (A) (A) (A) (A) (A) (A) (A) (A) (A) (A) (A)
                 (A) (A) (A) (A) (A) (A) (A) (A) (A) (A) (A) (A)
                 (A) (A) (A) (A) (A) (A) (A) (A) (A) (A) (A) (A)
                 (A) (A) (A) (A) (A) (A) (A) (A) (A) (A) (A) (A)
                 (A) (A) (A) (A) (A) (A) (A) (A) (A) (A) (A) (A)
                 (A) (A) (A) (A) (A) (A) (A) (A) (A) (A) (A) (A)
                 (A) (A) (A) (A) (A) (A) (A) (A) (A) (A) (A) (A)
                 (A) (A) (A) (A) (A) (A) (A) (A) (A) (A) (A) (A)
                 (A) (A) (A) (A) (A) (A) (A) (A) (A) (A) (A) (A)
                 (A) (A) (A) (A) (A) (A) (A) (A) (A) (A) (A) (A)
                 (A) (A) (A) (A) (A) (A) (A) (A) (A) (A) (A) (A)
                 (A) (A) (A) (A) (A) (A) (A) (A) (A) (A) (A) (A)
                 (A) (A) (A) (A) (A) (A) (A) (A) (A) (A) (A) (A)
                 (A) (A) (A) (A) (A) (A) (A) (A) (A) (A) (A) (A)
                 (A) (A) (A) (A) (A) (A) (A) (A) (A) (A) (A) (A)
                 (A) (A) (A) (A) (A) (A) (A) (A) (A) (A) (A) (A)
                 (A) (A) (A) (A) (A) (A) (A) (A) (A) (A) (A) (A)
                 (A) (A) (A) (A) (A) (A) (A) (A) (A) (A) (A) (A)
                 (A) (A) (A) (A) (A) (A) (A) (A) (A) (A) (A) (A)
                 (A) (A) (A) (A) (A) (A) (A) (A) (A) (A) (A) (A)
                 (A) (A) (A)
 The electronic state is 1-A.
 Alpha  occ. eigenvalues --  -19.13196 -10.22839 -10.21928 -10.18347 -10.17730
 Alpha  occ. eigenvalues --  -10.17542 -10.17397 -10.17389 -10.17137 -10.17059
 Alpha  occ. eigenvalues --  -10.16841 -10.16639 -10.16573  -1.01682  -0.84682
 Alpha  occ. eigenvalues --   -0.79961  -0.75399  -0.74685  -0.71599  -0.68705
 Alpha  occ. eigenvalues --   -0.65539  -0.63374  -0.59478  -0.56054  -0.54424
 Alpha  occ. eigenvalues --   -0.53691  -0.49111  -0.48544  -0.47797  -0.46070
 Alpha  occ. eigenvalues --   -0.43759  -0.43234  -0.42789  -0.41305  -0.41008
 Alpha  occ. eigenvalues --   -0.39898  -0.38373  -0.37844  -0.37363  -0.36191
 Alpha  occ. eigenvalues --   -0.34822  -0.34532  -0.33279  -0.32341  -0.32194
 Alpha  occ. eigenvalues --   -0.31246  -0.30829  -0.30396  -0.28744  -0.25941
 Alpha  occ. eigenvalues --   -0.23794
 Alpha virt. eigenvalues --    0.01260   0.07348   0.08322   0.09962   0.11271
 Alpha virt. eigenvalues --    0.11988   0.12584   0.13506   0.13800   0.14674
 Alpha virt. eigenvalues --    0.15307   0.16329   0.16793   0.17079   0.17449
 Alpha virt. eigenvalues --    0.17572   0.18187   0.18360   0.19412   0.20144
 Alpha virt. eigenvalues --    0.20232   0.20667   0.20811   0.21903   0.23633
 Alpha virt. eigenvalues --    0.24412   0.25133   0.25288   0.26303   0.27632
 Alpha virt. eigenvalues --    0.28115   0.29839   0.31481   0.32036   0.32671
 Alpha virt. eigenvalues --    0.34063   0.42190   0.44607   0.46687   0.46837
 Alpha virt. eigenvalues --    0.47647   0.48170   0.49839   0.50203   0.51673
 Alpha virt. eigenvalues --    0.52101   0.52494   0.53182   0.54228   0.54350
 Alpha virt. eigenvalues --    0.55824   0.56249   0.57395   0.57886   0.58725
 Alpha virt. eigenvalues --    0.59267   0.59660   0.61784   0.62301   0.63084
 Alpha virt. eigenvalues --    0.63932   0.64803   0.66272   0.66906   0.68857
 Alpha virt. eigenvalues --    0.70206   0.70348   0.71129   0.72232   0.73488
 Alpha virt. eigenvalues --    0.74130   0.74569   0.74703   0.75803   0.76585
 Alpha virt. eigenvalues --    0.76769   0.77099   0.77460   0.78307   0.78375
 Alpha virt. eigenvalues --    0.79054   0.79544   0.80832   0.81916   0.82559
 Alpha virt. eigenvalues --    0.83537   0.83746   0.84225   0.85217   0.86171
 Alpha virt. eigenvalues --    0.86798   0.87596   0.88907   0.89129   0.89753
 Alpha virt. eigenvalues --    0.90579   0.92404   0.92821   0.95696   0.97227
 Alpha virt. eigenvalues --    1.00387   1.00806   1.04622   1.06075   1.07702
 Alpha virt. eigenvalues --    1.10419   1.11727   1.12500   1.13520   1.14682
 Alpha virt. eigenvalues --    1.16219   1.19053   1.20090   1.22822   1.23469
 Alpha virt. eigenvalues --    1.25283   1.26988   1.27609   1.30131   1.31274
 Alpha virt. eigenvalues --    1.31751   1.34911   1.36737   1.38847   1.39110
 Alpha virt. eigenvalues --    1.41888   1.42910   1.44070   1.45535   1.45730
 Alpha virt. eigenvalues --    1.46888   1.48752   1.50597   1.50814   1.52638
 Alpha virt. eigenvalues --    1.53467   1.54414   1.55626   1.57077   1.57861
 Alpha virt. eigenvalues --    1.58505   1.59120   1.60288   1.62210   1.62823
 Alpha virt. eigenvalues --    1.63790   1.64260   1.66123   1.67623   1.68527
 Alpha virt. eigenvalues --    1.69634   1.71445   1.73060   1.74692   1.75804
 Alpha virt. eigenvalues --    1.78239   1.79571   1.79657   1.82303   1.83413
 Alpha virt. eigenvalues --    1.85327   1.86224   1.87422   1.88910   1.91373
 Alpha virt. eigenvalues --    1.94055   1.95257   1.96377   1.97811   1.98528
 Alpha virt. eigenvalues --    1.99514   2.00079   2.04326   2.05202   2.08584
 Alpha virt. eigenvalues --    2.14589   2.16089   2.19164   2.19814   2.19904
 Alpha virt. eigenvalues --    2.21411   2.23278   2.25451   2.26587   2.28201
 Alpha virt. eigenvalues --    2.28723   2.31512   2.33377   2.34278   2.35097
 Alpha virt. eigenvalues --    2.36408   2.37751   2.38809   2.40023   2.42015
 Alpha virt. eigenvalues --    2.43975   2.45918   2.46235   2.47978   2.51698
 Alpha virt. eigenvalues --    2.52113   2.54671   2.58006   2.59268   2.62708
 Alpha virt. eigenvalues --    2.64610   2.65900   2.67863   2.69271   2.69476
 Alpha virt. eigenvalues --    2.72331   2.73483   2.74212   2.75102   2.76806
 Alpha virt. eigenvalues --    2.78715   2.78795   2.80494   2.81337   2.82744
 Alpha virt. eigenvalues --    2.82879   2.85431   2.86576   2.87501   2.88146
 Alpha virt. eigenvalues --    2.88757   2.89663   2.90606   2.91153   2.92295
 Alpha virt. eigenvalues --    2.92735   2.93331   2.93452   2.93928   2.95278
 Alpha virt. eigenvalues --    2.96961   2.97497   2.98431   3.01578   3.03926
 Alpha virt. eigenvalues --    3.04796   3.06623   3.08834   3.09540   3.11670
 Alpha virt. eigenvalues --    3.13171   3.14388   3.15371   3.17760   3.18909
 Alpha virt. eigenvalues --    3.20418   3.22328   3.22706   3.24383   3.25492
 Alpha virt. eigenvalues --    3.25951   3.28715   3.29986   3.30880   3.32706
 Alpha virt. eigenvalues --    3.33893   3.35711   3.36877   3.37541   3.38869
 Alpha virt. eigenvalues --    3.40818   3.42935   3.45450   3.47352   3.48158
 Alpha virt. eigenvalues --    3.48612   3.49171   3.49702   3.51481   3.52043
 Alpha virt. eigenvalues --    3.53099   3.53867   3.56197   3.57176   3.58457
 Alpha virt. eigenvalues --    3.59345   3.61794   3.64003   3.65046   3.66209
 Alpha virt. eigenvalues --    3.67050   3.68315   3.68907   3.70836   3.72252
 Alpha virt. eigenvalues --    3.74513   3.74854   3.78794   3.81809   3.84086
 Alpha virt. eigenvalues --    3.85523   3.86953   3.88076   3.89136   3.93242
 Alpha virt. eigenvalues --    3.94602   3.95690   3.96472   3.97211   3.99088
 Alpha virt. eigenvalues --    4.04802   4.06436   4.07749   4.10030   4.12049
 Alpha virt. eigenvalues --    4.15947   4.17685   4.24558   4.26130   4.28065
 Alpha virt. eigenvalues --    4.28482   4.30021   4.35144   4.36900   4.39795
 Alpha virt. eigenvalues --    4.40594   4.41501   4.43287   4.43577   4.44137
 Alpha virt. eigenvalues --    4.46525   4.48285   4.49035   4.51143   4.52655
 Alpha virt. eigenvalues --    4.53202   4.54089   4.55164   4.56120   4.56874
 Alpha virt. eigenvalues --    4.57537   4.59229   4.60966   4.61503   4.63376
 Alpha virt. eigenvalues --    4.63981   4.65862   4.66184   4.67723   4.68462
 Alpha virt. eigenvalues --    4.69879   4.71074   4.71612   4.73137   4.74634
 Alpha virt. eigenvalues --    4.76120   4.76812   4.77600   4.78410   4.79737
 Alpha virt. eigenvalues --    4.81035   4.81421   4.82153   4.82673   4.83140
 Alpha virt. eigenvalues --    4.84102   4.85208   4.86388   4.87056   4.88969
 Alpha virt. eigenvalues --    4.90341   4.91636   4.92389   4.93511   4.94684
 Alpha virt. eigenvalues --    4.96342   4.99308   4.99977   5.02599   5.03115
 Alpha virt. eigenvalues --    5.05780   5.07339   5.10245   5.13661   5.15287
 Alpha virt. eigenvalues --    5.18318   5.22748   5.29468   5.29796   5.32224
 Alpha virt. eigenvalues --    5.35359   5.36893   5.38381   5.39947   5.43127
 Alpha virt. eigenvalues --    5.43450   5.49105   5.49668   5.51632   5.53171
 Alpha virt. eigenvalues --    5.55361   5.59984   5.66179   5.70720   5.76441
 Alpha virt. eigenvalues --    5.85203   5.91131   6.00345   6.08323   6.13794
 Alpha virt. eigenvalues --    6.23855   6.38441   6.66277   6.95990   7.23567
 Alpha virt. eigenvalues --   10.44333  11.13084  11.26313  11.62346  11.68939
 Alpha virt. eigenvalues --   11.88095  12.12147  12.15368  12.38408  12.52924
 Alpha virt. eigenvalues --   12.79455  13.02763  13.66548
          Condensed to atoms (all electrons):
               1          2          3          4          5          6
     1  C    5.032070   0.630240  -0.011885  -0.006442  -0.005448   0.002124
     2  C    0.630240   4.718704   0.417032  -0.029066  -0.007350  -0.016907
     3  C   -0.011885   0.417032   4.648354   0.371619  -0.022555   0.354169
     4  C   -0.006442  -0.029066   0.371619   4.935999   0.372395  -0.038377
     5  C   -0.005448  -0.007350  -0.022555   0.372395   5.002173   0.002459
     6  O    0.002124  -0.016907   0.354169  -0.038377   0.002459   7.727364
     7  C   -0.000136   0.004104  -0.093757   0.000199  -0.000195   0.377997
     8  C    0.000038   0.000489   0.000645  -0.004757   0.000195  -0.043397
     9  C   -0.000000  -0.000028  -0.000579   0.000209  -0.000024   0.002146
    10  C    0.000000   0.000001   0.000019   0.000003  -0.000000   0.000004
    11  C   -0.000000   0.000002   0.000054  -0.000006  -0.000000   0.000126
    12  C    0.000000  -0.000000  -0.000000   0.000000   0.000000  -0.000002
    13  C   -0.000001  -0.000073   0.000113   0.000250  -0.000001  -0.001350
    14  H    0.365577  -0.010482   0.003461   0.000002   0.000059  -0.000034
    15  H    0.361802  -0.014712  -0.016751  -0.001181   0.000663  -0.000006
    16  H   -0.049376   0.366516  -0.048594   0.000985  -0.000049   0.003334
    17  H   -0.004947  -0.038176   0.348310  -0.069838   0.000602  -0.034438
    18  H    0.000165   0.004201  -0.026255   0.366661  -0.037621  -0.004520
    19  H    0.000966  -0.005061  -0.021334   0.357645  -0.034934   0.001740
    20  H   -0.000216  -0.001333  -0.004703  -0.031142   0.376542   0.000048
    21  H    0.000167   0.000336   0.002625  -0.020400   0.368323  -0.000054
    22  H    0.006129   0.003295  -0.002793  -0.028277   0.375214   0.000009
    23  H    0.000001  -0.000175   0.004555   0.000251  -0.000010  -0.014566
    24  H    0.000008  -0.000047  -0.006320   0.003883  -0.000762  -0.030599
    25  H   -0.000007   0.000337   0.002520  -0.001846   0.000070  -0.005987
    26  H   -0.000000  -0.000000   0.000057  -0.000096  -0.000003   0.000077
    27  H    0.000000   0.000000   0.000018  -0.000004   0.000001  -0.000058
    28  H    0.000000  -0.000000  -0.000001   0.000001   0.000000   0.000002
    29  H   -0.000000  -0.000000  -0.000000   0.000000  -0.000000  -0.000000
    30  H   -0.000000  -0.000000  -0.000001  -0.000000   0.000000   0.000013
    31  H   -0.000000  -0.000000  -0.000000   0.000000   0.000000  -0.000000
    32  H    0.000000  -0.000000   0.000000  -0.000000  -0.000000  -0.000000
    33  H    0.000000   0.000000   0.000000  -0.000000  -0.000000   0.000000
    34  H    0.000003  -0.000015   0.000434   0.000080  -0.000002   0.007672
    35  H    0.000000   0.000002  -0.000011  -0.000005  -0.000000  -0.000003
               7          8          9         10         11         12
     1  C   -0.000136   0.000038  -0.000000   0.000000  -0.000000   0.000000
     2  C    0.004104   0.000489  -0.000028   0.000001   0.000002  -0.000000
     3  C   -0.093757   0.000645  -0.000579   0.000019   0.000054  -0.000000
     4  C    0.000199  -0.004757   0.000209   0.000003  -0.000006   0.000000
     5  C   -0.000195   0.000195  -0.000024  -0.000000  -0.000000   0.000000
     6  O    0.377997  -0.043397   0.002146   0.000004   0.000126  -0.000002
     7  C    4.818152   0.393905  -0.031586  -0.004338  -0.003259   0.000254
     8  C    0.393905   4.760337   0.370589  -0.039329  -0.040110   0.002233
     9  C   -0.031586   0.370589   4.968123   0.393246  -0.060061   0.004188
    10  C   -0.004338  -0.039329   0.393246   4.906579   0.422172  -0.033411
    11  C   -0.003259  -0.040110  -0.060061   0.422172   4.582622   0.407495
    12  C    0.000254   0.002233   0.004188  -0.033411   0.407495   5.010426
    13  C   -0.016133   0.388132  -0.049419  -0.063641   0.424322  -0.035787
    14  H    0.000002  -0.000000  -0.000000   0.000000  -0.000000  -0.000000
    15  H   -0.000002  -0.000007  -0.000000   0.000000   0.000000   0.000000
    16  H   -0.000112   0.000016  -0.000000  -0.000000  -0.000000   0.000000
    17  H   -0.007493   0.003867  -0.000819   0.000005  -0.000007   0.000001
    18  H    0.000454  -0.000294   0.000094   0.000020   0.000002  -0.000000
    19  H    0.000553   0.000218   0.000005  -0.000000   0.000000  -0.000000
    20  H    0.000004  -0.000053   0.000003  -0.000000   0.000000  -0.000000
    21  H    0.000004  -0.000003  -0.000000  -0.000000  -0.000000  -0.000000
    22  H    0.000008  -0.000004   0.000000   0.000000  -0.000000   0.000000
    23  H    0.354637  -0.025658  -0.000872   0.001851   0.002280  -0.000162
    24  H    0.353097  -0.053295   0.000417  -0.001049   0.000059  -0.000010
    25  H   -0.049262   0.367751  -0.040230   0.006813   0.004963  -0.000300
    26  H   -0.008401  -0.027660   0.364354  -0.030725   0.005131  -0.000122
    27  H    0.003936  -0.022174   0.360799  -0.032385  -0.000990   0.000487
    28  H    0.001519  -0.002119  -0.031933   0.360909  -0.023560   0.004839
    29  H   -0.000049   0.004289  -0.028780   0.368445  -0.033520  -0.012123
    30  H   -0.000147   0.003412   0.004728  -0.043106   0.369938  -0.049444
    31  H    0.000007   0.000409   0.000662  -0.006448  -0.025745   0.371575
    32  H   -0.000010   0.000117  -0.000221   0.004846  -0.023602   0.370620
    33  H    0.000008  -0.000187  -0.000089  -0.004563  -0.021988   0.367510
    34  H   -0.008187  -0.029199   0.006136   0.005897  -0.024542   0.003164
    35  H    0.003703  -0.026247  -0.000634  -0.000001  -0.032778  -0.012543
              13         14         15         16         17         18
     1  C   -0.000001   0.365577   0.361802  -0.049376  -0.004947   0.000165
     2  C   -0.000073  -0.010482  -0.014712   0.366516  -0.038176   0.004201
     3  C    0.000113   0.003461  -0.016751  -0.048594   0.348310  -0.026255
     4  C    0.000250   0.000002  -0.001181   0.000985  -0.069838   0.366661
     5  C   -0.000001   0.000059   0.000663  -0.000049   0.000602  -0.037621
     6  O   -0.001350  -0.000034  -0.000006   0.003334  -0.034438  -0.004520
     7  C   -0.016133   0.000002  -0.000002  -0.000112  -0.007493   0.000454
     8  C    0.388132  -0.000000  -0.000007   0.000016   0.003867  -0.000294
     9  C   -0.049419  -0.000000  -0.000000  -0.000000  -0.000819   0.000094
    10  C   -0.063641   0.000000   0.000000  -0.000000   0.000005   0.000020
    11  C    0.424322  -0.000000   0.000000  -0.000000  -0.000007   0.000002
    12  C   -0.035787  -0.000000   0.000000   0.000000   0.000001  -0.000000
    13  C    4.946077   0.000000   0.000000   0.000001   0.000053   0.000000
    14  H    0.000000   0.581923  -0.044838  -0.008361  -0.000174   0.000007
    15  H    0.000000  -0.044838   0.593497   0.006516   0.004289  -0.000090
    16  H    0.000001  -0.008361   0.006516   0.618000   0.006420  -0.000201
    17  H    0.000053  -0.000174   0.004289   0.006420   0.694233  -0.005712
    18  H    0.000000   0.000007  -0.000090  -0.000201  -0.005712   0.643608
    19  H   -0.000008  -0.000012   0.000214   0.000795   0.006808  -0.042887
    20  H   -0.000003   0.000014   0.002442  -0.000005   0.005234  -0.003848
    21  H    0.000000  -0.000012   0.000083   0.000010  -0.000049  -0.005377
    22  H   -0.000000   0.000431   0.000069  -0.000018   0.000063   0.006028
    23  H   -0.010518  -0.000000  -0.000000  -0.000036  -0.000300   0.000101
    24  H    0.005383  -0.000000   0.000000   0.000031  -0.000932   0.002368
    25  H   -0.044731  -0.000000  -0.000012   0.000000   0.005469   0.000842
    26  H    0.005400  -0.000000  -0.000000  -0.000000  -0.000016   0.000530
    27  H    0.001648  -0.000000   0.000000   0.000000   0.000072  -0.000018
    28  H    0.004790  -0.000000   0.000000   0.000000  -0.000001  -0.000004
    29  H    0.004549  -0.000000   0.000000  -0.000000  -0.000000   0.000000
    30  H   -0.044913   0.000000  -0.000000  -0.000000   0.000000  -0.000000
    31  H   -0.008149   0.000000  -0.000000   0.000000   0.000000  -0.000000
    32  H   -0.003017  -0.000000   0.000000  -0.000000  -0.000000   0.000000
    33  H    0.004761  -0.000000   0.000000   0.000000  -0.000000   0.000000
    34  H    0.357570  -0.000000   0.000000   0.000015  -0.000664   0.000000
    35  H    0.358726   0.000000   0.000000   0.000000   0.000201   0.000002
              19         20         21         22         23         24
     1  C    0.000966  -0.000216   0.000167   0.006129   0.000001   0.000008
     2  C   -0.005061  -0.001333   0.000336   0.003295  -0.000175  -0.000047
     3  C   -0.021334  -0.004703   0.002625  -0.002793   0.004555  -0.006320
     4  C    0.357645  -0.031142  -0.020400  -0.028277   0.000251   0.003883
     5  C   -0.034934   0.376542   0.368323   0.375214  -0.000010  -0.000762
     6  O    0.001740   0.000048  -0.000054   0.000009  -0.014566  -0.030599
     7  C    0.000553   0.000004   0.000004   0.000008   0.354637   0.353097
     8  C    0.000218  -0.000053  -0.000003  -0.000004  -0.025658  -0.053295
     9  C    0.000005   0.000003  -0.000000   0.000000  -0.000872   0.000417
    10  C   -0.000000  -0.000000  -0.000000   0.000000   0.001851  -0.001049
    11  C    0.000000   0.000000  -0.000000  -0.000000   0.002280   0.000059
    12  C   -0.000000  -0.000000  -0.000000   0.000000  -0.000162  -0.000010
    13  C   -0.000008  -0.000003   0.000000  -0.000000  -0.010518   0.005383
    14  H   -0.000012   0.000014  -0.000012   0.000431  -0.000000  -0.000000
    15  H    0.000214   0.002442   0.000083   0.000069  -0.000000   0.000000
    16  H    0.000795  -0.000005   0.000010  -0.000018  -0.000036   0.000031
    17  H    0.006808   0.005234  -0.000049   0.000063  -0.000300  -0.000932
    18  H   -0.042887  -0.003848  -0.005377   0.006028   0.000101   0.002368
    19  H    0.631219   0.005736  -0.001017  -0.004567  -0.000093   0.000657
    20  H    0.005736   0.606002  -0.031104  -0.033509  -0.000000   0.000011
    21  H   -0.001017  -0.031104   0.609487  -0.031480  -0.000000   0.000055
    22  H   -0.004567  -0.033509  -0.031480   0.582252   0.000000  -0.000005
    23  H   -0.000093  -0.000000  -0.000000   0.000000   0.620071  -0.047029
    24  H    0.000657   0.000011   0.000055  -0.000005  -0.047029   0.679272
    25  H    0.000018   0.000314  -0.000006   0.000006   0.005933  -0.002014
    26  H   -0.000006  -0.000002   0.000000  -0.000000   0.000036   0.005882
    27  H    0.000000   0.000000   0.000000  -0.000000  -0.000209  -0.000111
    28  H    0.000000   0.000000   0.000000  -0.000000  -0.000355   0.000345
    29  H    0.000000   0.000000  -0.000000   0.000000   0.000018  -0.000008
    30  H   -0.000000  -0.000000  -0.000000   0.000000   0.002550  -0.000025
    31  H    0.000000  -0.000000   0.000000  -0.000000   0.000004   0.000000
    32  H    0.000000   0.000000  -0.000000  -0.000000   0.000006  -0.000000
    33  H    0.000000   0.000000  -0.000000   0.000000   0.000008  -0.000000
    34  H   -0.000001  -0.000000   0.000000  -0.000000   0.000611   0.000631
    35  H    0.000000  -0.000000  -0.000000   0.000000   0.000211  -0.000239
              25         26         27         28         29         30
     1  C   -0.000007  -0.000000   0.000000   0.000000  -0.000000  -0.000000
     2  C    0.000337  -0.000000   0.000000  -0.000000  -0.000000  -0.000000
     3  C    0.002520   0.000057   0.000018  -0.000001  -0.000000  -0.000001
     4  C   -0.001846  -0.000096  -0.000004   0.000001   0.000000  -0.000000
     5  C    0.000070  -0.000003   0.000001   0.000000  -0.000000   0.000000
     6  O   -0.005987   0.000077  -0.000058   0.000002  -0.000000   0.000013
     7  C   -0.049262  -0.008401   0.003936   0.001519  -0.000049  -0.000147
     8  C    0.367751  -0.027660  -0.022174  -0.002119   0.004289   0.003412
     9  C   -0.040230   0.364354   0.360799  -0.031933  -0.028780   0.004728
    10  C    0.006813  -0.030725  -0.032385   0.360909   0.368445  -0.043106
    11  C    0.004963   0.005131  -0.000990  -0.023560  -0.033520   0.369938
    12  C   -0.000300  -0.000122   0.000487   0.004839  -0.012123  -0.049444
    13  C   -0.044731   0.005400   0.001648   0.004790   0.004549  -0.044913
    14  H   -0.000000  -0.000000  -0.000000  -0.000000  -0.000000   0.000000
    15  H   -0.000012  -0.000000   0.000000   0.000000   0.000000  -0.000000
    16  H    0.000000  -0.000000   0.000000   0.000000  -0.000000  -0.000000
    17  H    0.005469  -0.000016   0.000072  -0.000001  -0.000000   0.000000
    18  H    0.000842   0.000530  -0.000018  -0.000004   0.000000  -0.000000
    19  H    0.000018  -0.000006   0.000000   0.000000   0.000000  -0.000000
    20  H    0.000314  -0.000002   0.000000   0.000000   0.000000  -0.000000
    21  H   -0.000006   0.000000   0.000000   0.000000  -0.000000  -0.000000
    22  H    0.000006  -0.000000  -0.000000  -0.000000   0.000000   0.000000
    23  H    0.005933   0.000036  -0.000209  -0.000355   0.000018   0.002550
    24  H   -0.002014   0.005882  -0.000111   0.000345  -0.000008  -0.000025
    25  H    0.696525   0.001538  -0.007994  -0.000081  -0.000242  -0.000202
    26  H    0.001538   0.645570  -0.041319  -0.009171   0.003022  -0.000235
    27  H   -0.007994  -0.041319   0.649428   0.006138  -0.009996  -0.000156
    28  H   -0.000081  -0.009171   0.006138   0.651851  -0.040867  -0.014361
    29  H   -0.000242   0.003022  -0.009996  -0.040867   0.643883   0.005503
    30  H   -0.000202  -0.000235  -0.000156  -0.014361   0.005503   0.702007
    31  H   -0.000057  -0.000033   0.000486  -0.000076   0.003501   0.006493
    32  H    0.000004   0.000004  -0.000029  -0.000259   0.000170  -0.003266
    33  H    0.000006  -0.000003   0.000024   0.000311   0.002804  -0.002925
    34  H    0.002155  -0.000202  -0.000153  -0.000133  -0.000137  -0.010563
    35  H   -0.006914  -0.000144   0.001346  -0.000231   0.000096   0.006479
              31         32         33         34         35
     1  C   -0.000000   0.000000   0.000000   0.000003   0.000000
     2  C   -0.000000  -0.000000   0.000000  -0.000015   0.000002
     3  C   -0.000000   0.000000   0.000000   0.000434  -0.000011
     4  C    0.000000  -0.000000  -0.000000   0.000080  -0.000005
     5  C    0.000000  -0.000000  -0.000000  -0.000002  -0.000000
     6  O   -0.000000  -0.000000   0.000000   0.007672  -0.000003
     7  C    0.000007  -0.000010   0.000008  -0.008187   0.003703
     8  C    0.000409   0.000117  -0.000187  -0.029199  -0.026247
     9  C    0.000662  -0.000221  -0.000089   0.006136  -0.000634
    10  C   -0.006448   0.004846  -0.004563   0.005897  -0.000001
    11  C   -0.025745  -0.023602  -0.021988  -0.024542  -0.032778
    12  C    0.371575   0.370620   0.367510   0.003164  -0.012543
    13  C   -0.008149  -0.003017   0.004761   0.357570   0.358726
    14  H    0.000000  -0.000000  -0.000000  -0.000000   0.000000
    15  H   -0.000000   0.000000   0.000000   0.000000   0.000000
    16  H    0.000000  -0.000000   0.000000   0.000015   0.000000
    17  H    0.000000  -0.000000  -0.000000  -0.000664   0.000201
    18  H   -0.000000   0.000000   0.000000   0.000000   0.000002
    19  H    0.000000   0.000000   0.000000  -0.000001   0.000000
    20  H   -0.000000   0.000000   0.000000  -0.000000  -0.000000
    21  H    0.000000  -0.000000  -0.000000   0.000000  -0.000000
    22  H   -0.000000  -0.000000   0.000000  -0.000000   0.000000
    23  H    0.000004   0.000006   0.000008   0.000611   0.000211
    24  H    0.000000  -0.000000  -0.000000   0.000631  -0.000239
    25  H   -0.000057   0.000004   0.000006   0.002155  -0.006914
    26  H   -0.000033   0.000004  -0.000003  -0.000202  -0.000144
    27  H    0.000486  -0.000029   0.000024  -0.000153   0.001346
    28  H   -0.000076  -0.000259   0.000311  -0.000133  -0.000231
    29  H    0.003501   0.000170   0.002804  -0.000137   0.000096
    30  H    0.006493  -0.003266  -0.002925  -0.010563   0.006479
    31  H    0.608951  -0.033393  -0.033369  -0.000206   0.006843
    32  H   -0.033393   0.609799  -0.031944   0.000924   0.000971
    33  H   -0.033369  -0.031944   0.613271  -0.000216   0.000208
    34  H   -0.000206   0.000924  -0.000216   0.624670  -0.041969
    35  H    0.006843   0.000971   0.000208  -0.041969   0.660402
 Mulliken charges:
               1
     1  C   -0.320831
     2  C   -0.021832
     3  C    0.101556
     4  C   -0.178746
     5  C   -0.389745
     6  O   -0.288984
     7  C   -0.089477
     8  C    0.017852
     9  C   -0.230423
    10  C   -0.211813
    11  C    0.071001
    12  C   -0.398888
    13  C   -0.224034
    14  H    0.112439
    15  H    0.108023
    16  H    0.104112
    17  H    0.087938
    18  H    0.101744
    19  H    0.103346
    20  H    0.109567
    21  H    0.108411
    22  H    0.127149
    23  H    0.106860
    24  H    0.090347
    25  H    0.064618
    26  H    0.086537
    27  H    0.091213
    28  H    0.092446
    29  H    0.089443
    30  H    0.068220
    31  H    0.108545
    32  H    0.108280
    33  H    0.106373
    34  H    0.106225
    35  H    0.082528
 Sum of Mulliken charges =  -0.00000
 Mulliken charges with hydrogens summed into heavy atoms:
               1
     1  C   -0.100369
     2  C    0.082280
     3  C    0.189493
     4  C    0.026345
     5  C   -0.044619
     6  O   -0.288984
     7  C    0.107730
     8  C    0.082470
     9  C   -0.052673
    10  C   -0.029924
    11  C    0.139221
    12  C   -0.075690
    13  C   -0.035281
 Electronic spatial extent (au):  <R**2>=           3611.4431
 Charge=             -0.0000 electrons
 Dipole moment (field-independent basis, Debye):
    X=              0.2274    Y=              0.9773    Z=             -0.6124  Tot=              1.1755
 Quadrupole moment (field-independent basis, Debye-Ang):
   XX=            -82.4691   YY=            -83.1166   ZZ=            -82.8310
   XY=              0.1834   XZ=              1.4362   YZ=              0.4452
 Traceless Quadrupole moment (field-independent basis, Debye-Ang):
   XX=              0.3364   YY=             -0.3110   ZZ=             -0.0254
   XY=              0.1834   XZ=              1.4362   YZ=              0.4452
 Octapole moment (field-independent basis, Debye-Ang**2):
  XXX=            -13.4532  YYY=             -1.9138  ZZZ=              3.1260  XYY=             -5.6900
  XXY=             -4.2559  XXZ=              2.2383  XZZ=              1.9535  YZZ=              1.2440
  YYZ=              5.6489  XYZ=             -1.1915
 Hexadecapole moment (field-independent basis, Debye-Ang**3):
 XXXX=          -3902.8375 YYYY=           -748.9704 ZZZZ=           -343.4377 XXXY=             53.4453
 XXXZ=             11.9816 YYYX=              1.8892 YYYZ=             -7.9665 ZZZX=             -1.8257
 ZZZY=             -2.7092 XXYY=           -758.2768 XXZZ=           -699.9204 YYZZ=           -187.7372
 XXYZ=             -5.7523 YYXZ=             -9.6052 ZZXY=              1.8593
 N-N= 8.487612984469D+02 E-N=-2.963232083906D+03  KE= 5.414004560874D+02
 PrsmSu:  requested number of processors reduced to:  13 ShMem   1 Linda.
 Calling FoFJK, ICntrl=      2127 FMM=F ISym2X=0 I1Cent= 0 IOpClX= 0 NMat=1 NMatS=1 NMatT=0.
 ***** Axes restored to original set *****
 -------------------------------------------------------------------
 Center     Atomic                   Forces (Hartrees/Bohr)
 Number     Number              X              Y              Z
 -------------------------------------------------------------------
      1        6           0.018132002   -0.004354786   -0.000119764
      2        6          -0.019988382    0.005271128   -0.002456433
      3        6           0.009426035    0.000371007   -0.004468650
      4        6           0.000032770   -0.004012098    0.001785924
      5        6          -0.006426174   -0.002833283   -0.003722605
      6        8           0.002006055   -0.001441068    0.002618615
      7        6          -0.009496736    0.001954074   -0.003560313
      8        6          -0.007449415    0.000325231   -0.002495284
      9        6          -0.003837098   -0.007930661    0.004006422
     10        6           0.010169049   -0.009445790   -0.001599357
     11        6           0.007856326    0.007359436    0.005467996
     12        6           0.006764993    0.004202848    0.001021088
     13        6          -0.002611100    0.004870846   -0.004583298
     14        1           0.000033911    0.003269381   -0.000569109
     15        1          -0.000475959    0.002791989   -0.000974201
     16        1           0.003195085   -0.003372434   -0.001815944
     17        1          -0.002405761   -0.006136038    0.004539733
     18        1           0.003736180    0.003906507    0.000533166
     19        1          -0.000199855    0.002606987   -0.000918001
     20        1          -0.003110329   -0.000840598   -0.000602215
     21        1          -0.000370313   -0.002009314    0.001780058
     22        1          -0.002605571    0.001038973    0.001552895
     23        1          -0.002961617    0.005921140   -0.000470125
     24        1          -0.002670480   -0.002850506    0.001423101
     25        1          -0.002556002   -0.001188160   -0.008123185
     26        1          -0.000865300   -0.001194543    0.001069032
     27        1          -0.000759613   -0.001035412   -0.001371338
     28        1           0.002136503   -0.000731597    0.002705001
     29        1           0.003525459    0.001627603   -0.000604173
     30        1          -0.000403808    0.001313331    0.001838144
     31        1           0.000056789    0.000237339    0.000700483
     32        1           0.000619447    0.001584151    0.002205240
     33        1           0.001390380    0.002159705    0.002382570
     34        1          -0.002194888   -0.001613104    0.001104202
     35        1           0.002307419    0.000177715    0.001720325
 -------------------------------------------------------------------
 Cartesian Forces:  Max     0.019988382 RMS     0.004463496

 GradGradGradGradGradGradGradGradGradGradGradGradGradGradGradGradGradGrad
 Berny optimization.
 FormGI is forming the generalized inverse of G from B-inverse, IUseBI=4.
 Internal  Forces:  Max     0.038265116 RMS     0.005485440
 Search for a local minimum.
 Step number   1 out of a maximum of  209
 All quantities printed in internal units (Hartrees-Bohrs-Radians)
 Mixed Optimization -- RFO/linear search
 Second derivative matrix not updated -- first step.
 ITU=  0
     Eigenvalues ---    0.00239   0.00295   0.00372   0.00552   0.00578
     Eigenvalues ---    0.00667   0.00698   0.01203   0.01221   0.01552
     Eigenvalues ---    0.02141   0.02377   0.02791   0.02795   0.03338
     Eigenvalues ---    0.03909   0.04174   0.04360   0.04418   0.04632
     Eigenvalues ---    0.04685   0.04805   0.04815   0.04862   0.05110
     Eigenvalues ---    0.05157   0.05572   0.05628   0.05633   0.05704
     Eigenvalues ---    0.05726   0.05749   0.05819   0.06056   0.06376
     Eigenvalues ---    0.06955   0.07090   0.07280   0.08328   0.08681
     Eigenvalues ---    0.08712   0.10096   0.11705   0.12476   0.13301
     Eigenvalues ---    0.13964   0.14050   0.15994   0.16000   0.16000
     Eigenvalues ---    0.16000   0.16000   0.16000   0.16000   0.16000
     Eigenvalues ---    0.16000   0.17086   0.18159   0.19045   0.19938
     Eigenvalues ---    0.21872   0.21909   0.22001   0.25000   0.26087
     Eigenvalues ---    0.27458   0.28535   0.28913   0.29082   0.29594
     Eigenvalues ---    0.30204   0.30738   0.30934   0.31846   0.33887
     Eigenvalues ---    0.33934   0.34028   0.34048   0.34089   0.34090
     Eigenvalues ---    0.34103   0.34189   0.34211   0.34331   0.34336
     Eigenvalues ---    0.34339   0.34352   0.34397   0.34399   0.34502
     Eigenvalues ---    0.34586   0.34777   0.34848   0.35314   0.35409
     Eigenvalues ---    0.35905   0.40003   0.40193   0.55676
 RFO step:  Lambda=-2.70779498D-02 EMin= 2.39268849D-03
 Linear search not attempted -- first point.
 Maximum step size (   0.300) exceeded in Quadratic search.
    -- Step size scaled by   0.995
 Iteration  1 RMS(Cart)=  0.23349690 RMS(Int)=  0.01059459
 Iteration  2 RMS(Cart)=  0.04349430 RMS(Int)=  0.00055553
 Iteration  3 RMS(Cart)=  0.00108639 RMS(Int)=  0.00040876
 Iteration  4 RMS(Cart)=  0.00000065 RMS(Int)=  0.00040876
 Variable       Old X    -DE/DX   Delta X   Delta X   Delta X     New X
                                 (Linear)    (Quad)   (Total)
    R1        2.54537  -0.01713   0.00000  -0.02920  -0.02920   2.51616
    R2        2.04231   0.00235   0.00000   0.00604   0.00604   2.04835
    R3        2.05168  -0.00163   0.00000  -0.00427  -0.00427   2.04741
    R4        2.84427   0.00557   0.00000   0.01605   0.01605   2.86032
    R5        2.05015   0.00134   0.00000   0.00349   0.00349   2.05364
    R6        2.90983   0.00410   0.00000   0.01307   0.01307   2.92290
    R7        2.71549   0.00110   0.00000   0.00256   0.00256   2.71805
    R8        2.06491   0.00305   0.00000   0.00815   0.00815   2.07305
    R9        2.86138   0.01294   0.00000   0.03826   0.03826   2.89964
   R10        2.06775  -0.00009   0.00000  -0.00023  -0.00023   2.06751
   R11        2.07180   0.00009   0.00000   0.00025   0.00025   2.07205
   R12        2.07013   0.00009   0.00000   0.00024   0.00024   2.07037
   R13        2.06352   0.00193   0.00000   0.00514   0.00514   2.06866
   R14        2.06038   0.00088   0.00000   0.00234   0.00234   2.06273
   R15        2.71292  -0.00190   0.00000  -0.00441  -0.00441   2.70851
   R16        2.90185   0.00199   0.00000   0.00626   0.00626   2.90811
   R17        2.07250  -0.00153   0.00000  -0.00415  -0.00415   2.06834
   R18        2.06763   0.00270   0.00000   0.00724   0.00724   2.07487
   R19        2.86748   0.01386   0.00000   0.04273   0.04265   2.91013
   R20        2.87869   0.01223   0.00000   0.04038   0.04035   2.91904
   R21        2.05923   0.00125   0.00000   0.00331   0.00331   2.06254
   R22        2.86328   0.01924   0.00000   0.05841   0.05837   2.92165
   R23        2.06766   0.00089   0.00000   0.00239   0.00239   2.07005
   R24        2.07522  -0.00093   0.00000  -0.00253  -0.00253   2.07269
   R25        2.90925   0.01274   0.00000   0.03726   0.03733   2.94658
   R26        2.07156  -0.00028   0.00000  -0.00074  -0.00074   2.07082
   R27        2.06666   0.00031   0.00000   0.00083   0.00083   2.06749
   R28        2.86515   0.01201   0.00000   0.03573   0.03573   2.90088
   R29        2.89828   0.01476   0.00000   0.04336   0.04344   2.94172
   R30        2.07441  -0.00142   0.00000  -0.00387  -0.00387   2.07054
   R31        2.06975   0.00048   0.00000   0.00129   0.00129   2.07104
   R32        2.06740   0.00108   0.00000   0.00291   0.00291   2.07031
   R33        2.06662   0.00134   0.00000   0.00359   0.00359   2.07021
   R34        2.07283  -0.00189   0.00000  -0.00513  -0.00513   2.06771
   R35        2.07179   0.00019   0.00000   0.00050   0.00050   2.07229
    A1        2.12997  -0.00252   0.00000  -0.01301  -0.01345   2.11653
    A2        2.11482   0.00345   0.00000   0.01878   0.01834   2.13316
    A3        2.03778  -0.00083   0.00000  -0.00398  -0.00442   2.03336
    A4        2.14413   0.01326   0.00000   0.05330   0.05326   2.19739
    A5        2.08272  -0.00304   0.00000  -0.00780  -0.00785   2.07487
    A6        2.05583  -0.01024   0.00000  -0.04605  -0.04608   2.00974
    A7        1.98836   0.00421   0.00000   0.01143   0.01159   1.99995
    A8        1.89005  -0.01630   0.00000  -0.09030  -0.08983   1.80022
    A9        1.82395   0.00568   0.00000   0.04205   0.04227   1.86621
   A10        1.92159   0.01086   0.00000   0.04100   0.04065   1.96224
   A11        1.93757  -0.00655   0.00000  -0.02109  -0.02171   1.91587
   A12        1.89817   0.00136   0.00000   0.01495   0.01556   1.91373
   A13        1.99997   0.01004   0.00000   0.04193   0.04207   2.04204
   A14        1.92567  -0.00633   0.00000  -0.03662  -0.03744   1.88824
   A15        1.91194  -0.00416   0.00000  -0.02602  -0.02624   1.88569
   A16        1.83714   0.00088   0.00000   0.02309   0.02353   1.86067
   A17        1.93663  -0.00316   0.00000  -0.00998  -0.00958   1.92706
   A18        1.84508   0.00227   0.00000   0.00619   0.00553   1.85061
   A19        1.92323   0.00360   0.00000   0.01693   0.01688   1.94011
   A20        1.92367  -0.00043   0.00000  -0.00173  -0.00174   1.92193
   A21        1.94691   0.00275   0.00000   0.01627   0.01618   1.96309
   A22        1.89216  -0.00228   0.00000  -0.01540  -0.01537   1.87679
   A23        1.91328  -0.00364   0.00000  -0.02037  -0.02049   1.89279
   A24        1.86294  -0.00031   0.00000   0.00271   0.00266   1.86560
   A25        1.99476   0.03827   0.00000   0.13742   0.13742   2.13217
   A26        1.94877   0.02283   0.00000   0.09293   0.09221   2.04099
   A27        1.86667  -0.01194   0.00000  -0.07877  -0.07693   1.78975
[...]
 .00000068,-0.00000247,-0.00010236,0.00003154,0.00009072,0.00030535,-0.
 00021122,-0.00029994,0.00052129,0.00017814,0.00012478,-0.00041669,-0.0
 0089581,0.00035754,0.01548546,-0.00910211,-0.02030879,0.09772726,-0.07
 154135,-0.15729633,0.00705119,-0.00637505,-0.00901438,-0.01026365,0.00
 742348,0.00916657,-0.00000029,0.00000167,0.00000094,0.00000067,-0.0000
 0092,0.00000066,0.00000052,-0.00000126,0.00000054,-0.00000319,-0.00000
 176,0.00000784,0.00000101,0.00000257,-0.00000189,-0.00000014,-0.000000
 35,0.00000235,-0.00000147,-0.00000104,0.00000220,0.00000098,0.00000052
 ,0.00000098,-0.00000115,0.00000151,0.00000038,-0.00026253,-0.00004148,
 0.00003724,-0.00002277,-0.00001582,-0.00000542,0.00016877,0.00007528,-
 0.00002598,0.00018958,0.00054408,0.00061026,-0.00027319,0.00023907,0.0
 0017263,-0.00077630,-0.00055149,0.00086420,0.00148932,0.00398168,-0.00
 276796,-0.10598822,0.07707637,0.17612730,0.00000318,0.00000183,0.00000
 333,0.00000174,0.00000159,0.00000113,-0.00003673,0.00000284,-0.0000138
 3,0.00000199,-0.00000019,0.00000214,-0.00000161,0.00000077,0.00000257,
 0.00003236,0.00000950,0.00002345,-0.00000170,-0.00003061,-0.00005662,0
 .00019416,0.00006448,0.00004349,0.00019688,0.00004898,-0.00014102,0.00
 057884,0.00040783,-0.00051555,0.00790204,-0.00689910,-0.01089846,-0.13
 138403,0.06607847,0.10119100,0.00177637,-0.00067146,-0.00064283,-0.000
 00024,-0.00000189,0.00000051,-0.00000219,0.00000013,-0.00000081,-0.000
 00178,-0.00000066,-0.00000197,0.,-0.00000123,-0.00000144,0.00000094,-0
 .00000273,-0.00000050,0.00000093,0.00000109,0.00000054,-0.00000019,-0.
 00000022,-0.00000137,0.00000167,0.00000222,0.00000169,0.00000040,-0.00
 000143,-0.00000048,-0.00000655,0.00002327,0.00005508,-0.00002167,0.000
 02186,0.00002104,0.00001191,0.00004135,0.00001982,-0.00008388,0.000030
 84,-0.00001202,0.00000834,0.00007370,0.00004852,-0.00001794,-0.0000315
 1,0.00008456,0.00013802,0.00042509,0.00008894,-0.00038573,-0.00289249,
 -0.00160423,0.14051323,-0.00000229,0.00000611,-0.00000516,-0.00000828,
 -0.00000829,0.00000181,0.00004976,0.00001373,-0.00000107,-0.00000594,-
 0.00000011,0.00000160,0.00000227,-0.00000037,-0.00000424,-0.00010539,-
 0.00000375,-0.00002087,0.00021047,0.00005325,-0.00003876,0.00006994,0.
 00022526,0.00023327,-0.00015217,0.00021158,0.00019071,0.00159902,0.001
 15360,-0.00138695,0.01589545,-0.01465991,-0.02003891,0.06547556,-0.097
 66064,-0.07814903,0.00132872,0.00057125,0.00087815,0.00000005,0.000001
 63,0.00000215,-0.00000025,-0.00000167,-0.00000082,0.00000123,0.0000012
 9,0.00000112,-0.00000385,-0.00000195,0.00000231,0.00000082,0.00000419,
 0.00000084,0.00000025,-0.00000087,-0.00000007,-0.00000064,-0.00000066,
 0.00000145,-0.00000241,-0.00000185,-0.00000094,-0.00000196,0.00000084,
 0.00000003,-0.00003768,0.00005400,0.00008928,-0.00003338,0.00000828,0.
 00004167,-0.00005544,-0.00004117,0.00000619,0.00007358,0.00019221,0.00
 018722,-0.00010556,-0.00000568,0.00002943,-0.00009163,0.00004280,0.000
 07249,-0.00067468,-0.00007488,0.00105439,-0.00315453,-0.00430703,-0.00
 198614,-0.07100477,0.10762720,0.00000189,0.00001681,0.00000897,0.00000
 579,-0.00000968,-0.00000168,0.00006705,-0.00000640,-0.00000128,-0.0000
 1114,0.00000084,-0.00000295,0.00000227,-0.00000186,-0.00000155,-0.0001
 2314,0.00002100,-0.00004685,0.00016597,0.00011568,-0.00003082,-0.00017
 705,0.00014956,0.00026071,-0.00004212,0.00018065,0.00019282,-0.0002978
 1,0.00100059,0.00064190,0.00684452,-0.00615007,-0.00997317,0.10064047,
 -0.07850327,-0.16769792,0.00142573,-0.00009446,-0.00001314,-0.00000668
 ,0.00000355,-0.00000397,-0.00000516,-0.00000610,-0.00000153,0.00000077
 ,-0.00000010,-0.00000077,-0.00000544,-0.00000326,0.00000393,0.00000025
 ,0.00000872,0.00000218,0.00000126,-0.00000154,0.00000164,-0.00000040,-
 0.00000101,0.00000074,-0.00000187,-0.00000010,-0.00000020,-0.00000411,
 0.00000069,-0.00000202,-0.00003832,0.00004104,0.00005421,-0.00001165,0
 .00001977,0.00005290,-0.00006986,-0.00005283,0.00000622,0.00008991,0.0
 0012169,0.00002283,-0.00006904,-0.00003889,-0.00002991,-0.00000272,0.0
 0008324,0.00005651,-0.00022759,-0.00040623,0.00062722,-0.00175610,-0.0
 0215356,0.00010105,-0.11098127,0.08979329,0.18151045,0.00000325,0.0000
 1236,0.00001050,0.00000630,-0.00000713,0.00000779,0.00000445,-0.000011
 77,-0.00000225,-0.00000157,-0.00000100,-0.00000146,-0.00000056,-0.0000
 0023,0.00000356,-0.00003326,0.00007634,-0.00007169,0.00003758,-0.00000
 593,0.00003507,0.00013471,-0.00009164,0.00008577,0.00013625,-0.0007357
 2,0.00061456,-0.00090208,-0.00195807,-0.00201792,-0.00388945,-0.009414
 29,0.01242547,-0.05509151,-0.02967873,0.03418674,0.00083771,0.00033883
 ,0.00090253,-0.00000677,0.00000164,-0.00000365,-0.00000140,-0.00000107
 ,-0.00000368,-0.00000280,-0.00000004,-0.00000974,0.00000477,0.00000205
 ,-0.00000285,-0.00000040,0.00000564,0.00000176,0.00000094,-0.00000071,
 -0.00000189,0.00000122,-0.00000012,-0.00000176,0.00000106,0.00000213,0
 .00000124,-0.00000315,-0.00000048,-0.00000226,-0.00001469,-0.00000983,
 0.00000659,0.00001081,0.00003729,0.00002477,0.00002251,0.00005918,-0.0
 0001241,-0.00009942,-0.00008179,-0.00009186,-0.00020071,-0.00018968,-0
 .00015203,0.00003870,-0.00049306,0.00018296,0.00016568,0.00022619,-0.0
 0041827,0.00048357,0.00052905,-0.00035466,-0.00375384,-0.01280823,0.01
 375060,0.05647707,-0.00000480,0.00000905,-0.00000226,-0.00000735,-0.00
 001730,0.00001261,0.00007823,-0.00000647,0.00002158,-0.00000730,-0.000
 00276,0.00000378,0.00000115,-0.00000312,-0.00000186,-0.00012288,0.0000
 8873,-0.00022357,-0.00000899,0.00001996,0.00018401,0.00030205,-0.00041
 554,0.00004163,-0.00041516,-0.00077016,0.00161542,-0.00241302,-0.00273
 708,-0.00453991,-0.00458686,-0.01809258,0.02135449,-0.02988831,-0.1563
 4785,0.12468297,0.00097020,0.00112320,0.00040089,-0.00000323,0.0000049
 4,-0.00000009,0.00000458,0.00000040,-0.00000425,-0.00000078,0.00000535
 ,-0.00000848,0.00001001,0.00000431,-0.00000659,-0.00000237,0.00000870,
 0.00000548,-0.00000152,0.00000070,-0.00000983,0.00000395,0.00000140,-0
 .00000207,-0.00000373,-0.00000325,-0.00000220,-0.00000351,0.00000219,-
 0.00000078,-0.00000476,-0.00002350,-0.00000603,0.00002132,0.00003387,0
 .00000865,0.00000009,0.00011218,-0.00004375,0.00001386,-0.00005569,-0.
 00006751,-0.00048633,-0.00038426,-0.00036781,0.00014877,0.00008955,-0.
 00001587,-0.00008209,0.00025498,0.00003748,0.00080109,0.00074438,-0.00
 002537,0.00234186,0.01012777,-0.01128152,0.03541579,0.17158540,0.00000
 276,-0.00000387,-0.00000042,0.00000219,0.00000866,-0.00000285,-0.00006
 067,0.00000707,-0.00001833,0.00000714,0.00000037,0.00000005,-0.0000017
 0,0.00000296,0.00000368,0.00008076,-0.00001642,0.00006254,-0.00003230,
 0.00001869,-0.00007226,0.00027151,0.00005637,0.00012116,-0.00047904,-0
 .00050211,0.00057005,-0.00112672,-0.00173249,-0.00065585,-0.00236335,-
 0.00920172,0.01020054,0.03476214,0.12548888,-0.18928198,0.00027766,0.0
 0006034,0.00074123,0.00000372,-0.00000453,0.00000149,-0.00000170,-0.00
 000024,0.00000080,-0.00000176,-0.00000111,0.00000264,0.00000017,-0.000
 00247,0.00000365,0.00000086,-0.00000631,-0.00000287,0.00000030,0.00000
 018,0.00000381,-0.00000126,-0.00000107,-0.00000011,0.00000307,0.000002
 59,0.00000182,0.00000233,-0.00000175,-0.00000036,0.00000249,-0.0000113
 0,-0.00000732,0.00000717,0.00000526,0.00001744,0.00003388,0.00003682,-
 0.00000512,0.00005996,0.00002828,0.00004816,-0.00014772,-0.00020757,-0
 .00011052,0.00000860,-0.00006172,0.00001407,-0.00030920,-0.00006451,0.
 00029158,0.00032471,0.00074017,0.00078973,0.00268763,0.01427451,-0.016
 14981,-0.03724745,-0.13682022,0.20374063,-0.00001487,-0.00000608,-0.00
 002035,-0.00001863,-0.00002067,0.00000101,0.00015314,0.00000509,0.0000
 5908,-0.00001230,0.00000088,0.00000062,0.00000622,-0.00000654,-0.00001
 521,-0.00016359,-0.00002010,-0.00009331,-0.00006385,-0.00023209,0.0002
 8109,-0.00041356,0.00059662,-0.00064836,-0.00006506,-0.00007406,-0.000
 16413,0.00044883,0.00098081,0.00006828,-0.01330260,0.00442380,-0.00536
 250,-0.24416386,0.05603839,-0.09539058,0.00029891,-0.00333128,-0.00044
 148,0.00000270,0.00001005,0.00000383,0.00000988,0.00000216,0.00000198,
 0.00000685,0.00000662,0.00000421,0.00000455,0.00000591,-0.00000977,-0.
 00000049,0.00001057,0.00000655,-0.00000333,0.00000055,-0.00001114,0.00
 000069,0.00000251,0.00000395,-0.00001081,-0.00000959,-0.00000730,-0.00
 000289,0.00000496,0.00000344,0.00002150,0.00002380,-0.00000823,-0.0000
 2967,-0.00008574,-0.00015132,-0.00014101,-0.00024981,0.00002479,0.0000
 2960,-0.00002865,0.00001770,0.00004330,-0.00002319,0.00006708,0.000097
 11,-0.00068478,0.00029788,-0.00014727,-0.00005673,0.00006563,0.0008806
 1,-0.00027114,-0.00009891,-0.01562864,0.00440807,-0.00812468,0.0058534
 7,-0.00134004,0.00293734,0.26590511,-0.00000292,0.00000658,-0.00000119
 ,0.00000076,-0.00001228,0.00000636,0.00006723,-0.00001712,0.00003163,-
 0.00000884,0.00000298,-0.00000571,0.00000317,-0.00000191,-0.00000528,-
 0.00006704,-0.00000992,-0.00003590,-0.00013085,-0.00010774,0.00021717,
 -0.00142436,0.00048327,-0.00065026,0.00012970,0.00029642,-0.00037000,0
 .00018829,0.00166651,-0.00012185,-0.02576729,0.00761156,-0.01206235,0.
 05691966,-0.06266456,0.02738515,-0.00111030,-0.00486560,-0.00117056,-0
 .00000434,0.00000394,-0.00000178,0.00000267,-0.00000099,-0.00000296,0.
 00000088,0.00000366,-0.00000386,0.00001234,0.00000654,-0.00000521,-0.0
 0000036,0.00000841,0.00000420,-0.00000172,-0.00000189,-0.00000700,0.00
 000057,0.00000073,0.00000081,-0.00000442,-0.00000243,-0.00000208,-0.00
 000331,0.00000058,-0.00000026,0.00003576,0.00001092,-0.00002332,0.0000
 0513,-0.00006702,-0.00010553,-0.00026598,-0.00038199,-0.00001902,0.000
 02122,-0.00003397,0.00001850,0.00010669,0.00002825,0.00007810,0.000257
 07,-0.00024601,0.00020138,0.00001368,-0.00008242,0.00014037,0.00075193
 ,0.00116074,0.00039890,0.01161409,-0.00427525,0.00678888,0.01880385,-0
 .00556112,0.00766997,-0.05985666,0.06699782,-0.00000903,-0.00000157,-0
 .00001057,-0.00000868,-0.00001459,-0.00000213,0.00010448,-0.00000042,0
 .00004399,-0.00001005,0.00000303,-0.00000038,0.00000420,-0.00000548,-0
 .00000897,-0.00011633,-0.00001609,-0.00009731,-0.00000274,0.00000983,0
 .00019788,-0.00071689,0.00058228,-0.00001351,-0.00000643,0.00002042,-0
 .00018988,0.00060479,0.00015275,0.00036907,-0.01020070,0.00337715,-0.0
 0614971,-0.09535271,0.02705982,-0.09344382,-0.00000800,-0.00300404,0.0
 0027620,0.00000092,0.00000695,0.00000120,0.00000507,-0.00000061,0.0000
 0100,0.00000450,0.00000538,0.00000378,0.00000510,0.00000429,-0.0000075
 2,-0.00000062,0.00000619,0.00000490,-0.00000217,0.00000013,-0.00000798
 ,0.00000097,0.00000177,0.00000185,-0.00000752,-0.00000637,-0.00000493,
 -0.00000172,0.00000329,0.00000174,0.00002542,0.00001423,-0.00002501,-0
 .00000287,-0.00003544,-0.00006164,-0.00016147,-0.00030248,0.00001842,0
 .00001066,-0.00004683,-0.00001383,0.00004725,-0.00002157,0.00005057,-0
 .00008168,-0.00026514,0.00035689,0.00006954,-0.00009958,0.00006845,0.0
 0022632,0.00036216,-0.00000920,0.02014806,-0.00541523,0.01021453,-0.02
 157067,0.00566923,-0.01023145,0.10687815,-0.02839837,0.09832338,-0.000
 01922,0.00003927,0.00008409,0.00005940,-0.00001742,-0.00005330,-0.0008
 2929,0.00003695,0.00005859,0.00017837,0.00001629,-0.00005297,-0.000008
 07,0.00003866,0.00006923,0.00009770,0.00068832,-0.00028910,0.00197993,
 -0.00009954,0.00077595,-0.00175024,-0.00512301,0.01372901,-0.00184549,
 -0.00127748,-0.00064694,-0.00519184,0.00109741,-0.00221658,0.00400733,
 0.01133708,-0.02739166,0.00056561,0.00091913,0.00007900,-0.04813314,-0
 .00818417,0.02036824,0.00000275,-0.00000608,-0.00001071,0.00000164,-0.
 00000085,-0.00001430,-0.00002382,0.00000476,-0.00006062,0.00012124,0.0
 0003456,-0.00007359,-0.00000941,0.00000671,-0.00000912,-0.00000280,-0.
 00001453,-0.00000878,0.00000534,0.00000100,-0.00000837,0.00003159,0.00
 001756,0.00000726,-0.00000427,-0.00000689,-0.00001067,-0.00003858,0.00
 005525,-0.00038823,-0.00002635,0.00029887,0.00009914,-0.00082738,-0.00
 121123,-0.00004908,0.00015518,-0.00015242,0.00021290,0.00040108,-0.000
 17428,0.00032671,0.00053539,0.00132349,-0.00114469,0.00001931,-0.00011
 634,-0.00020136,0.00186438,-0.00031376,0.00085937,-0.00009989,-0.00003
 351,-0.00001771,-0.00005659,-0.00052873,0.00022607,-0.00017310,-0.0001
 7642,0.00028446,0.05030420,0.00000966,-0.00005392,0.00002322,0.0000011
 9,0.00004556,-0.00005598,-0.00093957,0.00027441,0.00007873,0.00025006,
 0.00001911,-0.00004582,-0.00001623,0.00004209,0.00008429,0.00063207,0.
 00066831,-0.00071897,0.00024951,0.00020905,0.00232659,-0.00175876,-0.0
 1038389,0.02303029,-0.00150055,-0.00298182,0.00104443,0.00020994,-0.00
 136536,0.00016040,-0.00030358,-0.00272013,0.00314166,0.00033564,0.0001
 2794,-0.00026592,-0.00736799,-0.08399442,0.09012869,0.00001851,-0.0000
 2143,-0.00001141,0.00001163,0.00000445,-0.00000055,-0.00001193,0.00001
 555,-0.00000549,0.00018709,0.00004615,-0.00007376,-0.00000833,-0.00003
 620,-0.00001596,-0.00000897,-0.00001111,-0.00001056,0.00000690,0.00000
 163,-0.00001126,0.00004266,0.00001797,0.00001000,0.00001514,-0.0000041
 4,-0.00000293,0.00045052,-0.00019465,-0.00045185,0.00032212,0.00034808
 ,0.00016394,-0.00084618,-0.00142715,0.00023759,0.00027462,-0.00050567,
 0.00032711,0.00056797,-0.00073380,0.00060364,0.00004397,-0.00000166,0.
 00051347,-0.00016037,-0.00000384,0.00030505,-0.00023032,0.00019783,0.0
 0010537,-0.00000671,0.00013613,0.00004341,-0.00005273,0.00012481,0.000
 13449,-0.00001236,0.00001486,0.00014722,0.00787832,0.09375898,-0.00000
 546,-0.00007029,-0.00006394,-0.00005872,0.00007180,-0.00001044,-0.0002
 2309,0.00009763,0.00009451,0.00002790,-0.00001580,-0.00000029,-0.00000
 969,0.00002434,0.00000100,-0.00000553,-0.00191775,-0.00020679,-0.00073
 489,-0.00028732,-0.00093666,0.00027053,-0.00089531,0.00322074,-0.00033
 567,-0.00112763,-0.00004405,-0.00237103,0.00041187,0.00005327,0.003086
 43,0.00336601,-0.00884707,0.00008591,0.00036307,-0.00028763,0.01997754
 ,0.09347034,-0.27130996,0.00001796,-0.00001235,0.00000534,0.00000522,0
 .00000471,0.00000851,-0.00000227,-0.00000181,0.00002637,-0.00001600,0.
 00000547,-0.00002167,-0.00000612,-0.00001362,-0.00001704,0.00000101,-0
 .00000386,0.00000685,-0.00000216,-0.00000156,0.00000227,0.00000833,-0.
 00000088,-0.00000025,0.00000921,-0.00000262,0.00000520,0.00002718,0.00
 036591,0.00040195,-0.00018883,0.00021788,0.00011826,-0.00018434,0.0003
 3188,-0.00006476,0.00006656,-0.00000681,0.00002673,0.00007330,0.000020
 99,0.00012251,0.00019198,0.00056384,-0.00034413,-0.00000339,-0.0002315
 5,0.00034251,-0.00015778,-0.00008066,0.00131354,0.00000489,0.00010463,
 0.00011860,-0.00040600,-0.00049216,0.00004071,-0.00025967,-0.00022303,
 0.00021409,-0.02044716,-0.10085760,0.29317656,0.00001049,0.00004996,0.
 00002152,0.00001217,-0.00002239,0.00000479,0.00019055,-0.00001900,-0.0
 0003552,-0.00000678,-0.00005605,0.00000394,0.00000502,0.00001354,-0.00
 000689,-0.00016049,0.00045814,-0.00002049,-0.00075534,-0.00336829,0.00
 107267,0.00623457,-0.01353047,-0.01056341,-0.00048847,-0.00032738,-0.0
 0061204,0.00043123,-0.00056325,0.00115457,-0.01993755,0.01952947,0.017
 98962,0.00161992,0.00111498,0.00180567,-0.10749331,0.08470614,0.072594
 53,-0.00000252,0.00000203,0.00000836,-0.00002106,-0.00001273,-0.000004
 80,-0.00000695,0.00000212,-0.00000056,-0.00002163,-0.00002244,0.000015
 22,-0.00000320,0.00004344,0.00001499,-0.00000710,0.00001258,-0.0000017
 8,0.00000098,-0.00000288,0.00000047,-0.00000424,-0.00000179,-0.0000011
 2,-0.00001244,0.00000014,-0.00000272,0.00006328,-0.00006868,0.00001169
 ,-0.00022829,-0.00057168,-0.00091165,0.00152365,-0.00004900,-0.0007816
 7,0.00004805,-0.00012134,0.00004937,0.00012863,-0.00001962,0.00007946,
 0.00015508,-0.00026052,-0.00031068,0.00056253,0.00020416,-0.00063403,-
 0.00506354,0.00170250,-0.00362787,0.00006359,-0.00083260,-0.00102262,-
 0.00016186,-0.00020119,0.00007042,0.00059306,-0.00010986,-0.00015961,-
 0.00129094,0.00171709,0.00156388,0.12402292,0.00000491,0.00010284,0.00
 000875,0.00000708,-0.00007269,0.00001116,0.00048624,-0.00004545,-0.000
 03520,-0.00003433,-0.00006195,-0.00000129,0.00001394,0.00000792,-0.000
 02272,-0.00049807,0.00071900,-0.00037518,-0.00159067,-0.00430136,0.002
 85268,0.01185881,-0.01782975,-0.01654220,-0.00099762,-0.00080400,-0.00
 014895,0.00011192,0.00003468,-0.00068435,0.00337761,-0.00395257,-0.003
 89626,-0.00123898,0.00066615,0.00022885,0.08389648,-0.15387691,-0.0923
 4242,-0.00001853,0.00001680,0.00000788,-0.00003167,-0.00003226,-0.0000
 0313,-0.00000465,0.00001210,-0.00000195,-0.00001886,-0.00003631,-0.000
 00920,-0.00000336,0.00008478,0.00003296,-0.00001099,0.00001602,-0.0000
 1031,0.00000223,-0.00000437,0.00000410,-0.00001615,-0.00000695,-0.0000
 0410,-0.00002808,0.00000319,-0.00000596,0.00006300,0.00009170,0.000222
 73,-0.00021040,-0.00064062,-0.00141646,-0.00009349,0.00163603,-0.00005
 057,0.00006749,0.00001250,0.00011650,0.00014985,-0.00037665,0.00021071
 ,-0.00013390,0.00014970,0.00031500,0.00010416,0.00000722,0.00064704,0.
 00036429,0.00043443,0.00065589,0.00035321,0.00061298,0.00032145,0.0000
 3191,0.00007883,0.00010381,-0.00021127,0.00002844,0.00020771,-0.006356
 97,0.00838626,0.00682224,-0.08939514,0.16894026,0.00001121,0.00012848,
 0.00008888,0.00009182,-0.00005696,-0.00003528,0.00044112,-0.00021109,0
 .00002143,-0.00010925,-0.00002279,0.00000335,0.00001005,-0.00000986,-0
 .00002610,-0.00038846,-0.00004927,0.00011124,-0.00032422,-0.00061622,0
 .00030144,0.00045003,0.00096094,-0.00014644,0.00011440,0.00003261,-0.0
 0043390,-0.00019050,-0.00019232,0.00065732,-0.00698726,0.00855524,0.00
 702487,-0.00015847,0.00061916,0.00122187,0.07181054,-0.09296387,-0.130
 87098,-0.00003329,0.00001800,-0.00000882,-0.00004166,-0.00003272,-0.00
 000511,0.00000053,0.00000068,-0.00000479,-0.00007871,-0.00003945,0.000
 00912,-0.00000330,0.00006509,0.00002174,0.00000316,0.00000570,0.000001
 00,0.00000066,-0.00000233,0.00000259,-0.00001759,-0.00000225,-0.000004
 00,-0.00002533,0.00000059,-0.00000935,-0.00015628,0.00031025,0.0003496
 3,-0.00029994,-0.00009120,-0.00027129,-0.00051045,0.00009971,0.0010704
 6,0.00000857,-0.00002285,0.00003946,0.00002618,0.00000997,0.00002583,0
 .00013286,-0.00021454,0.00007105,-0.00011138,-0.00009114,-0.00005834,-
 0.00247720,0.00087353,-0.00003158,0.00044402,0.00008166,0.00008015,0.0
 0013258,-0.00011610,-0.00011654,0.00008431,0.00027407,0.00012992,0.015
 91494,-0.02008154,-0.01714483,-0.07776372,0.10278076,0.13793597\\0.000
 00075,0.00000051,0.00000070,-0.00000006,0.00000028,-0.00000020,0.00000
 507,-0.00000073,0.00000274,-0.00000088,-0.00000087,-0.00000047,0.00000
 050,0.00000007,0.00000007,-0.00000085,0.00000009,0.00000111,-0.0000035
 3,-0.00000180,-0.00000265,0.00000280,0.00000023,0.00000327,-0.00000747
 ,-0.00000191,0.00000045,0.00000349,0.00000063,0.00000091,0.00000035,0.
 00000818,0.00000068,0.00000031,-0.00000101,-0.00000079,0.00000083,-0.0
 0000164,0.00000039,-0.00000085,-0.00000090,-0.00000013,-0.00000046,-0.
 00000074,-0.00000037,-0.00000035,-0.00000009,-0.00000013,-0.00000038,-
 0.00000040,0.00000014,0.00000046,0.00000022,0.00000004,0.00000009,-0.0
 0000077,-0.00000042,0.00000005,-0.00000079,0.00000046,-0.00000032,0.00
 000012,0.00000016,-0.00000068,-0.00000016,0.00000030,-0.00000130,0.000
 00069,-0.00000101,0.00000012,-0.00000123,-0.00000089,0.00000098,-0.000
 00018,-0.00000051,0.00000003,0.00000105,-0.00000097,0.00000057,-0.0000
 0147,-0.00000095,-0.00000011,0.00000093,-0.00000022,0.00000006,-0.0000
 0060,-0.00000142,0.00000033,-0.00000192,-0.00000015,0.00000088,0.00000
 044,0.00000094,-0.00000185,0.00000080,-0.00000052,0.00000004,0.0000013
 0,-0.00000130,0.00000111,0.00000051,0.00000026,0.00000028,0.00000116,0
 .00000050\\\@


 HE WHO LOVES TO READ, AND KNOWS HOW TO REFLECT,
 HAS LAID BY A PERPETUAL FEAST FOR HIS OLD AGE.
 -- UNCLE ESEK, "SCRIBNER'S MONTHLY", SEPT. 1880
 Job cpu time:       0 days  8 hours 13 minutes 48.1 seconds.
 Elapsed time:       0 days  2 hours  3 minutes 36.1 seconds.
 File lengths (MBytes):  RWF=    566 Int=      0 D2E=      0 Chk=     20 Scr=      1
 Normal termination of Gaussian 16 at Wed May 24 21:34:22 2023.
### All Done ###
