### Starting Gaussian ###
 Entering Gaussian System, Link 0=g16
 Initial command:
 /cluster/software/gaussian/gaussian-16-A.03/avx2/g16/l1.exe "/local/scratch/cz9n3/Gau-27395.inp" -scrdir="/local/scratch/cz9n3/"
 Entering Link 1 = /cluster/software/gaussian/gaussian-16-A.03/avx2/g16/l1.exe PID=     27396.
  
 Copyright (c) 1988,1990,1992,1993,1995,1998,2003,2009,2016,
            Gaussian, Inc.  All Rights Reserved.
  
 This is part of the Gaussian(R) 16 program.  It is based on
 the Gaussian(R) 09 system (copyright 2009, Gaussian, Inc.),
 the Gaussian(R) 03 system (copyright 2003, Gaussian, Inc.),
 the Gaussian(R) 98 system (copyright 1998, Gaussian, Inc.),
 the Gaussian(R) 94 system (copyright 1995, Gaussian, Inc.),
 the Gaussian 92(TM) system (copyright 1992, Gaussian, Inc.),
 the Gaussian 90(TM) system (copyright 1990, Gaussian, Inc.),
 the Gaussian 88(TM) system (copyright 1988, Gaussian, Inc.),
 the Gaussian 86(TM) system (copyright 1986, Carnegie Mellon
 University), and the Gaussian 82(TM) system (copyright 1983,
 Carnegie Mellon University). Gaussian is a federally registered
 trademark of Gaussian, Inc.
  
 This software contains proprietary and confidential information,
 including trade secrets, belonging to Gaussian, Inc.
  
 This software is provided under written license and may be
 used, copied, transmitted, or stored only in accord with that
 written license.
  
 The following legend is applicable only to US Government
 contracts under FAR:
  
                    RESTRICTED RIGHTS LEGEND
  
 Use, reproduction and disclosure by the US Government is
 subject to restrictions as set forth in subparagraphs (a)
 and (c) of the Commercial Computer Software - Restricted
 Rights clause in FAR 52.227-19.
  
 Gaussian, Inc.
 340 Quinnipiac St., Bldg. 40, Wallingford CT 06492
  
  
 ---------------------------------------------------------------
 Warning -- This program may not be used in any manner that
 competes with the business of Gaussian, Inc. or will provide
 assistance to any competitor of Gaussian, Inc.  The licensee
 of this program is prohibited from giving any competitor of
 Gaussian, Inc. access to this program.  By using this program,
 the user acknowledges that Gaussian, Inc. is engaged in the
 business of creating and licensing software in the field of
 computational chemistry and represents and warrants to the
 licensee that it is not a competitor of Gaussian, Inc. and that
 it will not use this program in any manner prohibited above.
 ---------------------------------------------------------------
  

 Cite this work as:
 Gaussian 16, Revision A.03,
 M. J. Frisch, G. W. Trucks, H. B. Schlegel, G. E. Scuseria, 
 M. A. Robb, J. R. Cheeseman, G. Scalmani, V. Barone, 
 G. A. Petersson, H. Nakatsuji, X. Li, M. Caricato, A. V. Marenich, 
 J. Bloino, B. G. Janesko, R. Gomperts, B. Mennucci, H. P. Hratchian, 
 J. V. Ortiz, A. F. Izmaylov, J. L. Sonnenberg, D. Williams-Young, 
 F. Ding, F. Lipparini, F. Egidi, J. Goings, B. Peng, A. Petrone, 
 T. Henderson, D. Ranasinghe, V. G. Zakrzewski, J. Gao, N. Rega, 
 G. Zheng, W. Liang, M. Hada, M. Ehara, K. Toyota, R. Fukuda, 
 J. Hasegawa, M. Ishida, T. Nakajima, Y. Honda, O. Kitao, H. Nakai, 
 T. Vreven, K. Throssell, J. A. Montgomery, Jr., J. E. Peralta, 
 F. Ogliaro, M. J. Bearpark, J. J. Heyd, E. N. Brothers, K. N. Kudin, 
 V. N. Staroverov, T. A. Keith, R. Kobayashi, J. Normand, 
 K. Raghavachari, A. P. Rendell, J. C. Burant, S. S. Iyengar, 
 J. Tomasi, M. Cossi, J. M. Millam, M. Klene, C. Adamo, R. Cammi, 
 J. W. Ochterski, R. L. Martin, K. Morokuma, O. Farkas, 
 J. B. Foresman, and D. J. Fox, Gaussian, Inc., Wallingford CT, 2016.
 
 ******************************************
 Gaussian 16:  ES64L-G16RevA.03 25-Dec-2016
                24-May-2023 
 ******************************************
 %chk=CdCqCCrCCCNCqCrCqCrCqCrCO.chk
 %NProcShared=20
 Will use up to   20 processors via shared memory.
 -----------------------------
 # opt freq b3lyp/6-31g(2df,p)
 -----------------------------
 1/18=20,19=15,26=3,38=1/1,3;
 2/9=110,12=2,17=6,18=5,40=1/2;
 3/5=1,6=6,7=104,11=2,25=1,30=1,71=1,74=-5/1,2,3;
 4//1;
 5/5=2,38=5/2;
 6/7=2,8=2,9=2,10=2,28=1/1;
 7//1,2,3,16;
 1/18=20,19=15,26=3/3(2);
 2/9=110/2;
 99//99;
 2/9=110/2;
 3/5=1,6=6,7=104,11=2,25=1,30=1,71=1,74=-5/1,2,3;
 4/5=5,16=3,69=1/1;
 5/5=2,38=5/2;
 7//1,2,3,16;
 1/18=20,19=15,26=3/3(-5);
 2/9=110/2;
 6/7=2,8=2,9=2,10=2,19=2,28=1/1;
 99/9=1/99;
 -------------------
 Title Card Required
 -------------------
 Symbolic Z-matrix:
 Charge =  0 Multiplicity = 1
 C                     0.93747   0.09448  -0.148 
 C                     2.27072   0.0337   -0.05943 
 C                     3.01919  -0.65094   1.07153 
 C                     2.13357  -1.29287   2.12092 
 C                     3.0929    0.68512  -1.14332 
 C                     4.59846   0.53163  -0.95223 
 C                     5.30081   1.22292  -2.08606 
 N                     6.74145   1.15238  -1.87334 
 C                     7.47578   1.86068  -2.9344 
 C                     6.99584   3.31928  -2.91541 
 C                     9.02663   1.69657  -2.73349 
 C                     9.40046   0.18821  -2.66629 
 C                     9.88663   2.4018   -3.84626 
 C                     9.69613   3.92256  -3.96446 
 C                     11.39474   2.18477  -3.62258 
 O                     12.15421   2.79062  -4.66401 
 H                     0.28535  -0.35359   0.59556 
 H                     0.44024   0.60036  -0.97228 
 H                     3.66687   0.07838   1.57446 
 H                     3.66798  -1.4322    0.65642 
 H                     1.49924  -0.53878   2.59705 
 H                     2.73962  -1.76805   2.89572 
 H                     1.49912  -2.05949   1.66519 
 H                     2.84104   1.75544  -1.18426 
 H                     2.81504   0.25858  -2.11676 
 H                     4.89391  -0.52151  -0.92551 
 H                     4.90622   1.00572  -0.01049 
 H                     4.92543   2.24427  -2.04545 
 H                     5.03047   0.78719  -3.05385 
 H                     7.00576   0.16888  -1.84626 
 H                     7.21899   1.40484  -3.89972 
 H                     7.38598   3.85759  -2.04669 
 H                     5.91597   3.45222  -2.92759 
 H                     7.21595   3.82926  -3.83924 
 H                     9.29758   2.13406  -1.76171 
 H                     9.15963  -0.31516  -3.60907 
 H                     8.88959  -0.34076  -1.85669 
 H                     10.46128   0.02964  -2.45628 
 H                     9.60969   1.9631   -4.81481 
 H                     9.72645   4.40086  -2.98023 
 H                     8.78856   4.19106  -4.49138 
 H                     10.45211   4.39249  -4.597 
 H                     11.67623   1.13275  -3.62073 
 H                     11.69934   2.63135  -2.66961 
 H                     11.80585   2.45196  -5.5064 
 

 GradGradGradGradGradGradGradGradGradGradGradGradGradGradGradGradGradGrad
 Berny optimization.
 Initialization pass.
                           ----------------------------
                           !    Initial Parameters    !
                           ! (Angstroms and Degrees)  !
 --------------------------                            --------------------------
 ! Name  Definition              Value          Derivative Info.                !
 --------------------------------------------------------------------------------
 ! R1    R(1,2)                  1.3376         estimate D2E/DX2                !
 ! R2    R(1,17)                 1.0858         estimate D2E/DX2                !
 ! R3    R(1,18)                 1.0875         estimate D2E/DX2                !
 ! R4    R(2,3)                  1.5192         estimate D2E/DX2                !
 ! R5    R(2,5)                  1.5084         estimate D2E/DX2                !
 ! R6    R(3,4)                  1.5158         estimate D2E/DX2                !
 ! R7    R(3,19)                 1.0974         estimate D2E/DX2                !
 ! R8    R(3,20)                 1.0971         estimate D2E/DX2                !
 ! R9    R(4,21)                 1.0944         estimate D2E/DX2                !
 ! R10   R(4,22)                 1.0924         estimate D2E/DX2                !
 ! R11   R(4,23)                 1.0945         estimate D2E/DX2                !
 ! R12   R(5,6)                  1.5254         estimate D2E/DX2                !
 ! R13   R(5,24)                 1.1003         estimate D2E/DX2                !
 ! R14   R(5,25)                 1.0985         estimate D2E/DX2                !
 ! R15   R(6,7)                  1.5022         estimate D2E/DX2                !
 ! R16   R(6,26)                 1.0941         estimate D2E/DX2                !
 ! R17   R(6,27)                 1.0983         estimate D2E/DX2                !
 ! R18   R(7,8)                  1.458          estimate D2E/DX2                !
 ! R19   R(7,28)                 1.0889         estimate D2E/DX2                !
 ! R20   R(7,29)                 1.0952         estimate D2E/DX2                !
 ! R21   R(8,9)                  1.472          estimate D2E/DX2                !
 ! R22   R(8,30)                 1.0188         estimate D2E/DX2                !
 ! R23   R(9,10)                 1.5356         estimate D2E/DX2                !
 ! R24   R(9,11)                 1.5724         estimate D2E/DX2                !
 ! R25   R(9,31)                 1.098          estimate D2E/DX2                !
 ! R26   R(10,32)                1.0939         estimate D2E/DX2                !
 ! R27   R(10,33)                1.0881         estimate D2E/DX2                !
 ! R28   R(10,34)                1.078          estimate D2E/DX2                !
 ! R29   R(11,12)                1.5554         estimate D2E/DX2                !
 ! R30   R(11,13)                1.5733         estimate D2E/DX2                !
 ! R31   R(11,35)                1.0996         estimate D2E/DX2                !
 ! R32   R(12,36)                1.0955         estimate D2E/DX2                !
 ! R33   R(12,37)                1.0937         estimate D2E/DX2                !
 ! R34   R(12,38)                1.093          estimate D2E/DX2                !
 ! R35   R(13,14)                1.5372         estimate D2E/DX2                !
 ! R36   R(13,15)                1.54           estimate D2E/DX2                !
 ! R37   R(13,39)                1.0987         estimate D2E/DX2                !
 ! R38   R(14,40)                1.0947         estimate D2E/DX2                !
 ! R39   R(14,41)                1.0832         estimate D2E/DX2                !
 ! R40   R(14,42)                1.092          estimate D2E/DX2                !
 ! R41   R(15,16)                1.4242         estimate D2E/DX2                !
 ! R42   R(15,43)                1.089          estimate D2E/DX2                !
 ! R43   R(15,44)                1.0956         estimate D2E/DX2                !
 ! R44   R(16,45)                0.9725         estimate D2E/DX2                !
 ! A1    A(2,1,17)             122.3144         estimate D2E/DX2                !
 ! A2    A(2,1,18)             121.809          estimate D2E/DX2                !
 ! A3    A(17,1,18)            115.8765         estimate D2E/DX2                !
 ! A4    A(1,2,3)              124.1146         estimate D2E/DX2                !
 ! A5    A(1,2,5)              118.4319         estimate D2E/DX2                !
 ! A6    A(3,2,5)              117.4533         estimate D2E/DX2                !
 ! A7    A(2,3,4)              114.7324         estimate D2E/DX2                !
 ! A8    A(2,3,19)             109.4166         estimate D2E/DX2                !
 ! A9    A(2,3,20)             109.3049         estimate D2E/DX2                !
 ! A10   A(4,3,19)             107.9987         estimate D2E/DX2                !
 ! A11   A(4,3,20)             107.8116         estimate D2E/DX2                !
 ! A12   A(19,3,20)            107.3159         estimate D2E/DX2                !
 ! A13   A(3,4,21)             110.3671         estimate D2E/DX2                !
 ! A14   A(3,4,22)             110.554          estimate D2E/DX2                !
 ! A15   A(3,4,23)             110.3068         estimate D2E/DX2                !
 ! A16   A(21,4,22)            108.2223         estimate D2E/DX2                !
 ! A17   A(21,4,23)            109.1348         estimate D2E/DX2                !
 ! A18   A(22,4,23)            108.1939         estimate D2E/DX2                !
 ! A19   A(2,5,6)              113.8612         estimate D2E/DX2                !
 ! A20   A(2,5,24)             108.7881         estimate D2E/DX2                !
 ! A21   A(2,5,25)             109.3421         estimate D2E/DX2                !
 ! A22   A(6,5,24)             109.1757         estimate D2E/DX2                !
 ! A23   A(6,5,25)             108.7594         estimate D2E/DX2                !
 ! A24   A(24,5,25)            106.6685         estimate D2E/DX2                !
 ! A25   A(5,6,7)              108.6994         estimate D2E/DX2                !
 ! A26   A(5,6,26)             111.4961         estimate D2E/DX2                !
 ! A27   A(5,6,27)             109.9099         estimate D2E/DX2                !
 ! A28   A(7,6,26)             109.5796         estimate D2E/DX2                !
 ! A29   A(7,6,27)             108.5124         estimate D2E/DX2                !
 ! A30   A(26,6,27)            108.5946         estimate D2E/DX2                !
 ! A31   A(6,7,8)              109.244          estimate D2E/DX2                !
 ! A32   A(6,7,28)             104.0223         estimate D2E/DX2                !
 ! A33   A(6,7,29)             111.62           estimate D2E/DX2                !
 ! A34   A(8,7,28)             112.3692         estimate D2E/DX2                !
 ! A35   A(8,7,29)             110.7059         estimate D2E/DX2                !
 ! A36   A(28,7,29)            108.7246         estimate D2E/DX2                !
 ! A37   A(7,8,9)              111.376          estimate D2E/DX2                !
 ! A38   A(7,8,30)             107.8753         estimate D2E/DX2                !
 ! A39   A(9,8,30)             110.7483         estimate D2E/DX2                !
 ! A40   A(8,9,10)             106.9906         estimate D2E/DX2                !
 ! A41   A(8,9,11)             110.4694         estimate D2E/DX2                !
 ! A42   A(8,9,31)             108.4994         estimate D2E/DX2                !
 ! A43   A(10,9,11)            113.9414         estimate D2E/DX2                !
 ! A44   A(10,9,31)            109.3968         estimate D2E/DX2                !
 ! A45   A(11,9,31)            107.438          estimate D2E/DX2                !
 ! A46   A(9,10,32)            111.4544         estimate D2E/DX2                !
 ! A47   A(9,10,33)            115.2191         estimate D2E/DX2                !
 ! A48   A(9,10,34)            112.0211         estimate D2E/DX2                !
 ! A49   A(32,10,33)           107.6208         estimate D2E/DX2                !
 ! A50   A(32,10,34)           112.0217         estimate D2E/DX2                !
 ! A51   A(33,10,34)            97.7733         estimate D2E/DX2                !
 ! A52   A(9,11,12)            110.1069         estimate D2E/DX2                !
 ! A53   A(9,11,13)            113.7021         estimate D2E/DX2                !
 ! A54   A(9,11,35)            108.3258         estimate D2E/DX2                !
 ! A55   A(12,11,13)           109.5037         estimate D2E/DX2                !
 ! A56   A(12,11,35)           106.7629         estimate D2E/DX2                !
 ! A57   A(13,11,35)           108.1818         estimate D2E/DX2                !
 ! A58   A(11,12,36)           110.8272         estimate D2E/DX2                !
 ! A59   A(11,12,37)           112.8748         estimate D2E/DX2                !
 ! A60   A(11,12,38)           112.4736         estimate D2E/DX2                !
 ! A61   A(36,12,37)           108.1862         estimate D2E/DX2                !
 ! A62   A(36,12,38)           108.183          estimate D2E/DX2                !
 ! A63   A(37,12,38)           103.9427         estimate D2E/DX2                !
 ! A64   A(11,13,14)           115.4743         estimate D2E/DX2                !
 ! A65   A(11,13,15)           111.6793         estimate D2E/DX2                !
 ! A66   A(11,13,39)           107.8622         estimate D2E/DX2                !
 ! A67   A(14,13,15)           105.7806         estimate D2E/DX2                !
 ! A68   A(14,13,39)           107.2167         estimate D2E/DX2                !
 ! A69   A(15,13,39)           108.5785         estimate D2E/DX2                !
 ! A70   A(13,14,40)           111.0806         estimate D2E/DX2                !
 ! A71   A(13,14,41)           112.7337         estimate D2E/DX2                !
 ! A72   A(13,14,42)           112.6119         estimate D2E/DX2                !
 ! A73   A(40,14,41)           110.6245         estimate D2E/DX2                !
 ! A74   A(40,14,42)           108.2759         estimate D2E/DX2                !
 ! A75   A(41,14,42)           101.0456         estimate D2E/DX2                !
 ! A76   A(13,15,16)           110.8582         estimate D2E/DX2                !
 ! A77   A(13,15,43)           112.9244         estimate D2E/DX2                !
 ! A78   A(13,15,44)           109.9475         estimate D2E/DX2                !
 ! A79   A(16,15,43)           105.9227         estimate D2E/DX2                !
 ! A80   A(16,15,44)           108.3233         estimate D2E/DX2                !
 ! A81   A(43,15,44)           108.6881         estimate D2E/DX2                !
 ! A82   A(15,16,45)           107.113          estimate D2E/DX2                !
 ! D1    D(17,1,2,3)            -0.2342         estimate D2E/DX2                !
 ! D2    D(17,1,2,5)           179.9111         estimate D2E/DX2                !
 ! D3    D(18,1,2,3)           179.6194         estimate D2E/DX2                !
 ! D4    D(18,1,2,5)            -0.2353         estimate D2E/DX2                !
 ! D5    D(1,2,3,4)              0.5545         estimate D2E/DX2                !
 ! D6    D(1,2,3,19)          -120.9847         estimate D2E/DX2                !
 ! D7    D(1,2,3,20)           121.7661         estimate D2E/DX2                !
 ! D8    D(5,2,3,4)           -179.5895         estimate D2E/DX2                !
 ! D9    D(5,2,3,19)            58.8713         estimate D2E/DX2                !
 ! D10   D(5,2,3,20)           -58.3779         estimate D2E/DX2                !
 ! D11   D(1,2,5,6)           -178.9546         estimate D2E/DX2                !
 ! D12   D(1,2,5,24)            59.0495         estimate D2E/DX2                !
 ! D13   D(1,2,5,25)           -57.0874         estimate D2E/DX2                !
 ! D14   D(3,2,5,6)              1.1809         estimate D2E/DX2                !
 ! D15   D(3,2,5,24)          -120.8149         estimate D2E/DX2                !
 ! D16   D(3,2,5,25)           123.0482         estimate D2E/DX2                !
 ! D17   D(2,3,4,21)           -60.6144         estimate D2E/DX2                !
 ! D18   D(2,3,4,22)           179.687          estimate D2E/DX2                !
 ! D19   D(2,3,4,23)            60.0627         estimate D2E/DX2                !
 ! D20   D(19,3,4,21)           61.6954         estimate D2E/DX2                !
 ! D21   D(19,3,4,22)          -58.0031         estimate D2E/DX2                !
 ! D22   D(19,3,4,23)         -177.6275         estimate D2E/DX2                !
 ! D23   D(20,3,4,21)          177.3596         estimate D2E/DX2                !
 ! D24   D(20,3,4,22)           57.6611         estimate D2E/DX2                !
 ! D25   D(20,3,4,23)          -61.9633         estimate D2E/DX2                !
 ! D26   D(2,5,6,7)           -179.789          estimate D2E/DX2                !
 ! D27   D(2,5,6,26)            59.3111         estimate D2E/DX2                !
 ! D28   D(2,5,6,27)           -61.1622         estimate D2E/DX2                !
 ! D29   D(24,5,6,7)           -58.0075         estimate D2E/DX2                !
 ! D30   D(24,5,6,26)         -178.9074         estimate D2E/DX2                !
 ! D31   D(24,5,6,27)           60.6194         estimate D2E/DX2                !
 ! D32   D(25,5,6,7)            58.0221         estimate D2E/DX2                !
 ! D33   D(25,5,6,26)          -62.8778         estimate D2E/DX2                !
 ! D34   D(25,5,6,27)          176.6489         estimate D2E/DX2                !
 ! D35   D(5,6,7,8)            176.6449         estimate D2E/DX2                !
 ! D36   D(5,6,7,28)            56.4686         estimate D2E/DX2                !
 ! D37   D(5,6,7,29)           -60.5899         estimate D2E/DX2                !
 ! D38   D(26,6,7,8)           -61.2828         estimate D2E/DX2                !
 ! D39   D(26,6,7,28)          178.5409         estimate D2E/DX2                !
 ! D40   D(26,6,7,29)           61.4824         estimate D2E/DX2                !
 ! D41   D(27,6,7,8)            57.1419         estimate D2E/DX2                !
 ! D42   D(27,6,7,28)          -63.0345         estimate D2E/DX2                !
 ! D43   D(27,6,7,29)          179.907          estimate D2E/DX2                !
 ! D44   D(6,7,8,9)           -177.8921         estimate D2E/DX2                !
 ! D45   D(6,7,8,30)            60.3746         estimate D2E/DX2                !
 ! D46   D(28,7,8,9)           -62.9822         estimate D2E/DX2                !
 ! D47   D(28,7,8,30)          175.2845         estimate D2E/DX2                !
 ! D48   D(29,7,8,9)            58.7987         estimate D2E/DX2                !
 ! D49   D(29,7,8,30)          -62.9347         estimate D2E/DX2                !
 ! D50   D(7,8,9,10)            58.9398         estimate D2E/DX2                !
 ! D51   D(7,8,9,11)          -176.5207         estimate D2E/DX2                !
 ! D52   D(7,8,9,31)           -58.9921         estimate D2E/DX2                !
 ! D53   D(30,8,9,10)          178.9901         estimate D2E/DX2                !
 ! D54   D(30,8,9,11)          -56.4703         estimate D2E/DX2                !
 ! D55   D(30,8,9,31)           61.0583         estimate D2E/DX2                !
 ! D56   D(8,9,10,32)           72.7052         estimate D2E/DX2                !
 ! D57   D(8,9,10,33)          -50.2927         estimate D2E/DX2                !
 ! D58   D(8,9,10,34)         -160.8874         estimate D2E/DX2                !
 ! D59   D(11,9,10,32)         -49.69           estimate D2E/DX2                !
 ! D60   D(11,9,10,33)        -172.6879         estimate D2E/DX2                !
 ! D61   D(11,9,10,34)          76.7174         estimate D2E/DX2                !
 ! D62   D(31,9,10,32)        -169.9514         estimate D2E/DX2                !
 ! D63   D(31,9,10,33)          67.0507         estimate D2E/DX2                !
 ! D64   D(31,9,10,34)         -43.544          estimate D2E/DX2                !
 ! D65   D(8,9,11,12)           55.5173         estimate D2E/DX2                !
 ! D66   D(8,9,11,13)          178.8162         estimate D2E/DX2                !
 ! D67   D(8,9,11,35)          -60.8927         estimate D2E/DX2                !
 ! D68   D(10,9,11,12)         175.982          estimate D2E/DX2                !
 ! D69   D(10,9,11,13)         -60.7192         estimate D2E/DX2                !
 ! D70   D(10,9,11,35)          59.5719         estimate D2E/DX2                !
 ! D71   D(31,9,11,12)         -62.6627         estimate D2E/DX2                !
 ! D72   D(31,9,11,13)          60.6361         estimate D2E/DX2                !
 ! D73   D(31,9,11,35)        -179.0728         estimate D2E/DX2                !
 ! D74   D(9,11,12,36)          62.8108         estimate D2E/DX2                !
 ! D75   D(9,11,12,37)         -58.7176         estimate D2E/DX2                !
 ! D76   D(9,11,12,38)        -175.946          estimate D2E/DX2                !
 ! D77   D(13,11,12,36)        -62.907          estimate D2E/DX2                !
 ! D78   D(13,11,12,37)        175.5646         estimate D2E/DX2                !
 ! D79   D(13,11,12,38)         58.3362         estimate D2E/DX2                !
 ! D80   D(35,11,12,36)       -179.805          estimate D2E/DX2                !
 ! D81   D(35,11,12,37)         58.6666         estimate D2E/DX2                !
 ! D82   D(35,11,12,38)        -58.5618         estimate D2E/DX2                !
 ! D83   D(9,11,13,14)          60.4083         estimate D2E/DX2                !
 ! D84   D(9,11,13,15)        -178.6901         estimate D2E/DX2                !
 ! D85   D(9,11,13,39)         -59.4594         estimate D2E/DX2                !
 ! D86   D(12,11,13,14)       -175.9642         estimate D2E/DX2                !
 ! D87   D(12,11,13,15)        -55.0626         estimate D2E/DX2                !
 ! D88   D(12,11,13,39)         64.168          estimate D2E/DX2                !
 ! D89   D(35,11,13,14)        -59.964          estimate D2E/DX2                !
 ! D90   D(35,11,13,15)         60.9376         estimate D2E/DX2                !
 ! D91   D(35,11,13,39)       -179.8318         estimate D2E/DX2                !
 ! D92   D(11,13,14,40)         46.5208         estimate D2E/DX2                !
 ! D93   D(11,13,14,41)        -78.2867         estimate D2E/DX2                !
 ! D94   D(11,13,14,42)        168.1639         estimate D2E/DX2                !
 ! D95   D(15,13,14,40)        -77.5253         estimate D2E/DX2                !
 ! D96   D(15,13,14,41)        157.6672         estimate D2E/DX2                !
 ! D97   D(15,13,14,42)         44.1177         estimate D2E/DX2                !
 ! D98   D(39,13,14,40)        166.7413         estimate D2E/DX2                !
 ! D99   D(39,13,14,41)         41.9338         estimate D2E/DX2                !
 ! D100  D(39,13,14,42)        -71.6157         estimate D2E/DX2                !
 ! D101  D(11,13,15,16)        177.9894         estimate D2E/DX2                !
 ! D102  D(11,13,15,43)         59.3106         estimate D2E/DX2                !
 ! D103  D(11,13,15,44)        -62.2626         estimate D2E/DX2                !
 ! D104  D(14,13,15,16)        -55.6178         estimate D2E/DX2                !
 ! D105  D(14,13,15,43)       -174.2966         estimate D2E/DX2                !
 ! D106  D(14,13,15,44)         64.1301         estimate D2E/DX2                !
 ! D107  D(39,13,15,16)         59.1838         estimate D2E/DX2                !
 ! D108  D(39,13,15,43)        -59.495          estimate D2E/DX2                !
 ! D109  D(39,13,15,44)        178.9318         estimate D2E/DX2                !
 ! D110  D(13,15,16,45)        -53.4124         estimate D2E/DX2                !
 ! D111  D(43,15,16,45)         69.4189         estimate D2E/DX2                !
 ! D112  D(44,15,16,45)       -174.1274         estimate D2E/DX2                !
 --------------------------------------------------------------------------------
 Trust Radius=3.00D-01 FncErr=1.00D-07 GrdErr=1.00D-06 EigMax=2.50D+02 EigMin=1.00D-04
 Number of steps in this run=    248 maximum allowed number of steps=    270.
 GradGradGradGradGradGradGradGradGradGradGradGradGradGradGradGradGradGrad

                          Input orientation:                          
 ---------------------------------------------------------------------
 Center     Atomic      Atomic             Coordinates (Angstroms)
 Number     Number       Type             X           Y           Z
 ---------------------------------------------------------------------
      1          6           0        0.937470    0.094480   -0.148000
      2          6           0        2.270720    0.033700   -0.059430
      3          6           0        3.019190   -0.650940    1.071530
      4          6           0        2.133570   -1.292870    2.120920
      5          6           0        3.092900    0.685120   -1.143320
      6          6           0        4.598460    0.531630   -0.952230
      7          6           0        5.300810    1.222920   -2.086060
      8          7           0        6.741450    1.152380   -1.873340
      9          6           0        7.475780    1.860680   -2.934400
     10          6           0        6.995840    3.319280   -2.915410
     11          6           0        9.026630    1.696570   -2.733490
     12          6           0        9.400460    0.188210   -2.666290
     13          6           0        9.886630    2.401800   -3.846260
     14          6           0        9.696130    3.922560   -3.964460
     15          6           0       11.394740    2.184770   -3.622580
     16          8           0       12.154210    2.790620   -4.664010
     17          1           0        0.285350   -0.353590    0.595560
     18          1           0        0.440240    0.600360   -0.972280
     19          1           0        3.666870    0.078380    1.574460
     20          1           0        3.667980   -1.432200    0.656420
     21          1           0        1.499240   -0.538780    2.597050
     22          1           0        2.739620   -1.768050    2.895720
     23          1           0        1.499120   -2.059490    1.665190
     24          1           0        2.841040    1.755440   -1.184260
     25          1           0        2.815040    0.258580   -2.116760
     26          1           0        4.893910   -0.521510   -0.925510
     27          1           0        4.906220    1.005720   -0.010490
     28          1           0        4.925430    2.244270   -2.045450
     29          1           0        5.030470    0.787190   -3.053850
     30          1           0        7.005760    0.168880   -1.846260
     31          1           0        7.218990    1.404840   -3.899720
     32          1           0        7.385980    3.857590   -2.046690
     33          1           0        5.915970    3.452220   -2.927590
     34          1           0        7.215950    3.829260   -3.839240
     35          1           0        9.297580    2.134060   -1.761710
     36          1           0        9.159630   -0.315160   -3.609070
     37          1           0        8.889590   -0.340760   -1.856690
     38          1           0       10.461280    0.029640   -2.456280
     39          1           0        9.609690    1.963100   -4.814810
     40          1           0        9.726450    4.400860   -2.980230
     41          1           0        8.788560    4.191060   -4.491380
     42          1           0       10.452110    4.392490   -4.597000
     43          1           0       11.676230    1.132750   -3.620730
     44          1           0       11.699340    2.631350   -2.669610
     45          1           0       11.805850    2.451960   -5.506400
 ---------------------------------------------------------------------
                    Distance matrix (angstroms):
                    1          2          3          4          5
     1  C    0.000000
     2  C    1.337570   0.000000
     3  C    2.525166   1.519214   0.000000
     4  C    2.916058   2.555880   1.515789   0.000000
     5  C    2.446507   1.508359   2.587673   3.935482   0.000000
     6  C    3.773690   2.542322   2.826335   4.341513   1.525380
     7  C    4.905934   3.834439   4.322906   5.836034   2.460255
     8  N    6.146717   4.952690   5.077346   6.570078   3.750090
     9  C    7.323454   6.220608   6.497454   8.002521   4.878478
    10  C    7.400118   6.424828   6.889999   8.383210   5.031107
    11  C    8.642104   7.453727   7.488546   8.945184   6.225819
    12  C    8.830219   7.592943   7.442854   8.827155   6.507816
    13  C    9.954311   8.828933   8.981404  10.457904   7.510502
    14  C   10.292409   9.247119   9.532032  11.019296   7.876706
    15  C   11.215905  10.028503  10.011282  11.439014   8.792965
    16  O   12.388655  11.246606  11.322073  12.771977   9.946644
    17  H    1.085776   2.126194   2.790850   2.573886   3.461930
    18  H    1.087469   2.122512   3.520496   4.002446   2.659520
    19  H    3.227499   2.149611   1.097422   2.128369   2.843221
    20  H    3.230097   2.147938   1.097093   2.125697   2.837750
    21  H    2.872613   2.824854   2.156395   1.094407   4.245945
    22  H    3.997624   3.492718   2.157258   1.092432   4.738849
    23  H    2.871009   2.819774   2.155704   1.094497   4.238012
    24  H    2.730605   2.134220   3.303179   4.551585   1.100316
    25  H    2.725475   2.139968   3.321761   4.563916   1.098512
    26  H    4.078895   2.817708   2.742170   4.182727   2.178769
    27  H    4.074340   2.809462   2.734259   4.184975   2.161994
    28  H    4.911796   3.984769   4.661712   6.137139   2.569621
    29  H    5.067195   4.141318   4.809597   6.284658   2.722998
    30  H    6.301886   5.062770   5.007828   6.450850   4.008878
    31  H    7.433030   6.411960   6.824799   8.329900   5.014016
    32  H    7.703850   6.688589   7.008494   8.454822   5.413980
    33  H    6.617099   5.761985   6.420297   7.893661   4.337071
    34  H    8.184934   7.290304   7.861339   9.358969   5.844069
    35  H    8.755306   7.529013   7.429782   8.839780   6.401554
    36  H    8.930326   7.757495   7.728245   9.118894   6.624628
    37  H    8.145260   6.868756   6.567517   7.897576   5.929835
    38  H    9.799761   8.534060   8.263978   9.594298   7.513091
    39  H   10.023884   8.955261   9.215036  10.705048   7.588256
    40  H   10.188847   9.120914   9.323346  10.774605   7.822081
    41  H    9.863394   8.911120   9.363576  10.866687   7.479416
    42  H   11.348783  10.321034  10.621521  12.109991   8.934790
    43  H   11.333968  10.117034  10.007157  11.397918   8.944914
    44  H   11.340726  10.122238  10.005726  11.395290   8.954785
    45  H   12.344709  11.244384  11.406250  12.874500   9.903216
                    6          7          8          9         10
     6  C    0.000000
     7  C    1.502248   0.000000
     8  N    2.413748   1.457968   0.000000
     9  C    3.738227   2.420106   1.471998   0.000000
    10  C    4.168033   2.820580   2.417867   1.535649   0.000000
    11  C    4.913111   3.811200   2.501609   1.572397   2.605838
    12  C    5.110298   4.267836   2.937470   2.563871   3.955737
    13  C    6.311710   5.051515   3.917349   2.633723   3.172526
    14  C    6.823355   5.489561   4.558159   3.200364   2.959057
    15  C    7.486859   6.357832   5.077281   3.992101   4.597556
    16  O    8.716060   7.488164   6.306317   5.073859   5.472281
    17  H    4.667139   5.901806   7.074224   8.310589   8.417099
    18  H    4.158836   5.025259   6.389200   7.411960   7.358272
    19  H    2.730835   4.168829   4.742767   6.165566   6.460991
    20  H    2.703734   4.151746   4.746152   6.183558   6.812429
    21  H    4.832011   6.283871   7.094024   8.489604   8.688179
    22  H    4.852889   6.350097   6.876590   8.342014   8.818479
    23  H    4.813595   6.268887   7.093612   8.499672   8.951368
    24  H    2.154083   2.673441   4.006459   4.955288   4.764959
    25  H    2.147388   2.666448   4.034207   4.995774   5.242596
    26  H    1.094125   2.134357   2.667151   4.046791   4.809312
    27  H    1.098340   2.123880   2.619120   3.985329   4.261177
    28  H    2.057954   1.088905   2.125976   2.727940   2.489794
    29  H    2.160729   1.095245   2.110550   2.673236   3.208321
    30  H    2.593448   2.018752   1.018757   2.065709   3.326890
    31  H    4.039477   2.646105   2.097140   1.097986   2.164196
    32  H    4.475502   3.360204   2.786329   2.187177   1.093920
    33  H    3.764004   2.460970   2.661226   2.228464   1.088090
    34  H    5.104943   3.678914   3.354937   2.182099   1.077956
    35  H    5.030385   4.112122   2.740430   2.183780   2.834392
    36  H    5.346038   4.424448   3.318739   2.832810   4.286293
    37  H    4.471343   3.921358   2.616152   2.829603   4.254770
    38  H    6.073452   5.309560   3.929058   3.534758   4.800188
    39  H    6.486991   5.153677   4.187638   2.846051   3.504163
    40  H    6.736468   5.521334   4.548412   3.394132   2.937728
    41  H    6.593478   5.172989   4.503151   3.094875   2.541166
    42  H    7.902899   6.548808   5.628999   4.246509   3.990655
    43  H    7.587955   6.558149   5.235056   4.317952   5.213870
    44  H    7.601363   6.577643   5.234699   4.301454   4.759893
    45  H    8.739256   7.451497   6.366803   5.070927   5.531878
                   11         12         13         14         15
    11  C    0.000000
    12  C    1.555447   0.000000
    13  C    1.573279   2.555126   0.000000
    14  C    2.630313   3.964598   1.537196   0.000000
    15  C    2.576192   2.979580   1.539977   2.453991   0.000000
    16  O    3.834789   4.283289   2.441683   2.795141   1.424228
    17  H    9.575787   9.696311  10.931904  11.297877  12.151318
    18  H    8.833438   9.128257  10.036894  10.279185  11.381367
    19  H    7.064276   7.132326   8.571342   9.044851   9.548093
    20  H    7.070772   6.821104   8.581683   9.293254   9.544377
    21  H    9.490682   9.521583  10.977776  11.408154  12.000935
    22  H    9.122395   8.895488  10.673411  11.306553  11.533608
    23  H    9.493144   9.286821  10.983147  11.604691  11.995730
    24  H    6.376920   6.904970   7.559389   7.708319   8.904803
    25  H    6.405624   6.608683   7.588936   8.011750   8.921264
    26  H    5.026733   4.882931   6.481032   7.214312   7.540486
    27  H    4.986961   5.283918   6.439461   6.861856   7.519192
    28  H    4.194427   4.963740   5.280269   5.409144   6.659043
    29  H    4.110827   4.427843   5.178530   5.694571   6.540689
    30  H    2.684200   2.531286   4.157565   5.080844   5.146093
    31  H    2.170889   2.785740   2.848349   3.532609   4.256993
    32  H    2.798827   4.231593   3.407496   3.003141   4.620813
    33  H    3.577176   4.781601   4.208738   3.947902   5.666248
    34  H    3.008257   4.405127   3.028238   2.485091   4.495951
    35  H    1.099622   2.148297   2.182662   2.865254   2.804191
    36  H    2.198042   1.095543   2.822527   4.286304   3.353438
    37  H    2.222222   1.093732   3.531871   4.823805   3.971454
    38  H    2.216692   1.092972   2.808809   4.244395   2.622249
    39  H    2.177818   2.794665   1.098746   2.137768   2.157998
    40  H    2.804249   4.236891   2.184469   1.094714   2.847255
    41  H    3.060937   4.441642   2.196222   1.083245   3.401792
    42  H    3.573884   4.744426   2.201414   1.091992   2.590767
    43  H    2.850521   2.642393   2.205452   3.438312   1.089030
    44  H    2.832185   3.354667   2.173273   2.712326   1.095612
    45  H    3.997963   4.356224   2.538107   2.998527   1.946582
                   16         17         18         19         20
    16  O    0.000000
    17  H   13.357356   0.000000
    18  H   12.475704   1.841775   0.000000
    19  H   10.877026   3.546762   4.143608   0.000000
    20  H   10.869926   3.550956   4.147562   1.767668   0.000000
    21  H   13.316767   2.348145   3.893487   2.474913   3.044286
    22  H   12.906026   3.648955   5.085070   2.452514   2.447266
    23  H   13.308391   2.351051   3.892593   3.045958   2.472865
    24  H    9.995769   3.761292   2.672637   3.332426   3.772662
    25  H   10.005988   3.759091   2.658256   3.792518   3.358090
    26  H    8.812408   4.855994   4.593033   2.848744   2.198809
    27  H    8.796276   4.854633   4.586320   2.215404   2.814509
    28  H    7.707828   5.937521   4.896025   4.402136   4.732622
    29  H    7.573244   6.093910   5.043615   4.876789   4.533009
    30  H    6.428046   7.169335   6.637475   4.780973   4.468516
    31  H    5.182752   8.448372   7.427553   6.659106   6.435595
    32  H    5.542996   8.668014   7.746432   6.420820   7.008010
    33  H    6.509110   7.655107   6.476107   6.058853   6.461900
    34  H    5.113260   9.230217   8.034644   7.481525   7.777018
    35  H    4.124894   9.641857   9.023741   6.860084   7.089285
    36  H    4.441427   9.820043   9.155250   7.562689   7.042755
    37  H    5.323939   8.946879   8.547479   6.263008   5.896794
    38  H    3.919578  10.630623  10.146390   7.900206   7.614119
    39  H    2.679946  11.026444  10.034984   8.927040   8.761640
    40  H    3.364819  11.159097  10.232759   8.726256   9.162689
    41  H    3.649470  10.901164   9.745339   8.940932   9.183749
    42  H    2.338295  12.363291  11.302937  10.135973  10.370625
    43  H    2.016291  12.236767  11.556176   9.604767   9.434249
    44  H    2.051805  12.241339  11.566036   9.436650   9.595710
    45  H    0.972454  13.335177  12.375935  11.046061  10.922087
                   21         22         23         24         25
    21  H    0.000000
    22  H    1.771680   0.000000
    23  H    1.783514   1.771435   0.000000
    24  H    4.621924   5.391800   4.947101   0.000000
    25  H    4.958540   5.407206   4.626904   1.763752   0.000000
    26  H    4.892087   4.560332   4.538910   3.076642   2.519785
    27  H    4.559853   4.564429   4.879728   2.490940   3.060658
    28  H    6.406009   6.729906   6.635571   2.307658   2.898585
    29  H    6.794148   6.868379   6.545484   3.037512   2.462863
    30  H    7.110946   6.666185   6.900652   4.505586   4.200399
    31  H    8.871371   8.735559   8.699811   5.163631   4.887498
    32  H    8.691726   8.812713   9.134824   5.081269   5.818185
    33  H    8.121406   8.441052   8.425031   3.920900   4.524660
    34  H    9.653309   9.834993   9.882220   5.521729   5.923234
    35  H    9.325072   8.940076   9.494498   6.493359   6.757722
    36  H    9.861415   9.254173   9.462765   7.077547   6.542934
    37  H    8.630891   7.902195   8.365209   6.436705   6.109583
    38  H   10.304242   9.565544  10.083218   7.916090   7.657197
    39  H   11.268295  10.980511  11.133417   7.683661   7.506806
    40  H   11.099238  11.018078  11.445742   7.591616   8.103805
    41  H   11.213894  11.254773  11.406519   7.227882   7.535659
    42  H   12.499026  12.392563  12.688542   8.748098   9.031370
    43  H   12.042671  11.434236  11.903987   9.186115   9.030326
    44  H   11.909218  11.428219  12.034906   9.024575   9.212300
    45  H   13.447551  13.061418  13.342173   9.976665   9.855721
                   26         27         28         29         30
    26  H    0.000000
    27  H    1.780406   0.000000
    28  H    2.984091   2.382318   0.000000
    29  H    2.502234   3.053725   1.775102   0.000000
    30  H    2.405063   2.911773   2.945283   2.396320   0.000000
    31  H    4.238248   4.542501   3.066493   2.426233   2.406192
    32  H    5.161780   4.292841   2.942297   3.998769   3.713667
    33  H    4.565464   3.938836   1.794013   2.811127   3.624533
    34  H    5.728079   5.288342   3.313059   3.827186   4.173072
    35  H    5.209951   4.860449   4.382733   4.657458   3.020185
    36  H    5.043852   5.725906   5.188838   4.309688   2.825057
    37  H    4.106729   4.592243   4.736304   4.195029   1.951578
    38  H    5.800227   6.147627   5.976538   5.515856   3.511713
    39  H    6.598373   6.791222   5.448918   5.045097   4.337276
    40  H    7.197572   6.601587   5.345511   5.925897   5.157295
    41  H    7.077573   6.730329   4.969541   5.270300   5.133514
    42  H    8.277730   7.953815   6.455188   6.691314   6.105963
    43  H    7.483358   7.673526   7.020704   6.678839   5.088328
    44  H    7.700408   7.473960   6.813609   6.929819   5.363894
    45  H    8.809143   8.938766   7.704641   7.395420   6.453677
                   31         32         33         34         35
    31  H    0.000000
    32  H    3.078569   0.000000
    33  H    2.614319   1.761034   0.000000
    34  H    2.425176   1.800819   1.631935   0.000000
    35  H    3.069753   2.589591   3.812100   3.394557   0.000000
    36  H    2.609399   4.795697   5.017858   4.583349   3.070903
    37  H    3.164174   4.463528   4.937200   4.911277   2.510022
    38  H    3.806197   4.927315   5.709293   5.184772   2.503040
    39  H    2.620017   4.024483   4.407113   3.188147   3.073770
    40  H    4.013596   2.577681   3.927142   2.714265   2.609042
    41  H    3.252174   2.838123   3.353073   1.740485   3.455640
    42  H    4.457052   4.023848   4.924186   3.371077   3.804250
    43  H    4.474244   5.320583   6.248278   5.216609   3.180653
    44  H    4.805313   4.527336   5.847029   4.785792   2.615345
    45  H    4.971636   5.786246   6.507032   5.073811   4.518316
                   36         37         38         39         40
    36  H    0.000000
    37  H    1.773249   0.000000
    38  H    1.772598   1.722473   0.000000
    39  H    2.616645   3.817956   3.166408   0.000000
    40  H    4.791406   4.944253   4.463414   3.053193   0.000000
    41  H    4.606754   5.243014   4.925144   2.396386   1.790874
    42  H    4.980811   5.688095   4.859756   2.580513   1.772173
    43  H    2.903421   3.612261   2.012188   2.527033   3.859071
    44  H    4.001829   4.170009   2.889152   3.068400   2.668323
    45  H    4.273090   5.442815   4.120526   2.353805   3.808366
                   41         42         43         44         45
    41  H    0.000000
    42  H    1.679026   0.000000
    43  H    4.295338   3.616280   0.000000
    44  H    3.771496   2.893446   1.775096   0.000000
    45  H    3.627502   2.534813   2.304966   2.844451   0.000000
 Stoichiometry    C14H29NO
 Framework group  C1[X(C14H29NO)]
 Deg. of freedom   129
 Full point group                 C1      NOp   1
 Largest Abelian subgroup         C1      NOp   1
 Largest concise Abelian subgroup C1      NOp   1
                         Standard orientation:                         
 ---------------------------------------------------------------------
 Center     Atomic      Atomic             Coordinates (Angstroms)
 Number     Number       Type             X           Y           Z
 ---------------------------------------------------------------------
      1          6           0        5.904402   -1.112187   -0.470547
      2          6           0        4.835106   -0.368313   -0.166653
      3          6           0        4.908956    1.016421    0.453885
      4          6           0        6.314758    1.525176    0.703897
      5          6           0        3.464704   -0.930875   -0.450672
      6          6           0        2.322794    0.013042   -0.087565
      7          6           0        1.019646   -0.660759   -0.410899
      8          7           0       -0.082005    0.198772    0.005323
      9          6           0       -1.384602   -0.439514   -0.244895
     10          6           0       -1.397462   -1.757229    0.543572
     11          6           0       -2.557284    0.539093    0.128706
     12          6           0       -2.401626    1.879884   -0.644252
     13          6           0       -3.988318   -0.057807   -0.137860
     14          6           0       -4.325352   -1.339942    0.640286
     15          6           0       -5.099204    0.949320    0.213079
     16          8           0       -6.384277    0.408686   -0.078006
     17          1           0        6.919309   -0.768924   -0.294358
     18          1           0        5.807761   -2.102706   -0.908865
     19          1           0        4.373132    1.016067    1.411606
     20          1           0        4.403643    1.735535   -0.202731
     21          1           0        6.843103    0.860666    1.394552
     22          1           0        6.288314    2.524534    1.144342
     23          1           0        6.871435    1.580935   -0.236807
     24          1           0        3.345938   -1.872659    0.105774
     25          1           0        3.388874   -1.183274   -1.517102
     26          1           0        2.393332    0.957215   -0.635898
     27          1           0        2.345256    0.230606    0.988777
     28          1           0        1.056083   -1.590728    0.154384
     29          1           0        0.942678   -0.900063   -1.476906
     30          1           0       -0.005374    1.075723   -0.507464
     31          1           0       -1.466029   -0.656007   -1.318242
     32          1           0       -1.496084   -1.579402    1.618427
     33          1           0       -0.529241   -2.395705    0.393640
     34          1           0       -2.146054   -2.440540    0.176578
     35          1           0       -2.479562    0.779161    1.198984
     36          1           0       -2.472544    1.716801   -1.725265
     37          1           0       -1.452862    2.382775   -0.436413
     38          1           0       -3.157741    2.616173   -0.360076
     39          1           0       -4.059179   -0.298495   -1.207575
     40          1           0       -4.050652   -1.243745    1.695599
     41          1           0       -3.872703   -2.223668    0.207206
     42          1           0       -5.384760   -1.598747    0.584416
     43          1           0       -5.028323    1.874681   -0.356717
     44          1           0       -5.060995    1.190860    1.281052
     45          1           0       -6.367622    0.114188   -1.004645
 ---------------------------------------------------------------------
 Rotational constants (GHZ):           1.5396395           0.1323899           0.1255789
 Standard basis: 6-31G(2df,p) (6D, 7F)
 There are   641 symmetry adapted cartesian basis functions of A   symmetry.
 There are   593 symmetry adapted basis functions of A   symmetry.
   593 basis functions,   907 primitive gaussians,   641 cartesian basis functions
    64 alpha electrons       64 beta electrons
       nuclear repulsion energy      1127.6165373530 Hartrees.
 NAtoms=   45 NActive=   45 NUniq=   45 SFac= 1.00D+00 NAtFMM=   60 NAOKFM=F Big=F
 Integral buffers will be    131072 words long.
 Raffenetti 2 integral format.
 Two-electron integral symmetry is turned on.
 One-electron integrals computed using PRISM.
 PrsmSu:  requested number of processors reduced to:  12 ShMem   1 Linda.
 NBasis=   593 RedAO= T EigKep=  2.95D-04  NBF=   593
 NBsUse=   593 1.00D-06 EigRej= -1.00D+00 NBFU=   593
 ExpMin= 1.61D-01 ExpMax= 5.48D+03 ExpMxC= 8.25D+02 IAcc=3 IRadAn=         5 AccDes= 0.00D+00
 Harris functional with IExCor=  402 and IRadAn=       5 diagonalized for initial guess.
 HarFok:  IExCor=  402 AccDes= 0.00D+00 IRadAn=         5 IDoV= 1 UseB2=F ITyADJ=14
 ICtDFT=  3500011 ScaDFX=  1.000000  1.000000  1.000000  1.000000
 FoFCou: FMM=F IPFlag=           0 FMFlag=      100000 FMFlg1=           0
         NFxFlg=           0 DoJE=T BraDBF=F KetDBF=T FulRan=T
         wScrn=  0.000000 ICntrl=       500 IOpCl=  0 I1Cent=   200000004 NGrid=           0
         NMat0=    1 NMatS0=      1 NMatT0=    0 NMatD0=    1 NMtDS0=    0 NMtDT0=    0
 Petite list used in FoFCou.
 Requested convergence on RMS density matrix=1.00D-08 within 128 cycles.
 Requested convergence on MAX density matrix=1.00D-06.
 Requested convergence on             energy=1.00D-06.
 No special actions if energy rises.
 Integral accuracy reduced to 1.0D-05 until final iterations.
 Initial convergence to 1.0D-05 achieved.  Increase integral accuracy.
 SCF Done:  E(RB3LYP) =  -680.924029653     A.U. after   12 cycles
            NFock= 12  Conv=0.63D-08     -V/T= 2.0081

 **********************************************************************

            Population analysis using the SCF density.

 **********************************************************************

 Orbital symmetries:
       Occupied  (A) (A) (A) (A) (A) (A) (A) (A) (A) (A) (A) (A)
                 (A) (A) (A) (A) (A) (A) (A) (A) (A) (A) (A) (A)
                 (A) (A) (A) (A) (A) (A) (A) (A) (A) (A) (A) (A)
                 (A) (A) (A) (A) (A) (A) (A) (A) (A) (A) (A) (A)
                 (A) (A) (A) (A) (A) (A) (A) (A) (A) (A) (A) (A)
                 (A) (A) (A) (A)
       Virtual   (A) (A) (A) (A) (A) (A) (A) (A) (A) (A) (A) (A)
                 (A) (A) (A) (A) (A) (A) (A) (A) (A) (A) (A) (A)
                 (A) (A) (A) (A) (A) (A) (A) (A) (A) (A) (A) (A)
                 (A) (A) (A) (A) (A) (A) (A) (A) (A) (A) (A) (A)
                 (A) (A) (A) (A) (A) (A) (A) (A) (A) (A) (A) (A)
                 (A) (A) (A) (A) (A) (A) (A) (A) (A) (A) (A) (A)
                 (A) (A) (A) (A) (A) (A) (A) (A) (A) (A) (A) (A)
                 (A) (A) (A) (A) (A) (A) (A) (A) (A) (A) (A) (A)
                 (A) (A) (A) (A) (A) (A) (A) (A) (A) (A) (A) (A)
                 (A) (A) (A) (A) (A) (A) (A) (A) (A) (A) (A) (A)
                 (A) (A) (A) (A) (A) (A) (A) (A) (A) (A) (A) (A)
                 (A) (A) (A) (A) (A) (A) (A) (A) (A) (A) (A) (A)
                 (A) (A) (A) (A) (A) (A) (A) (A) (A) (A) (A) (A)
                 (A) (A) (A) (A) (A) (A) (A) (A) (A) (A) (A) (A)
                 (A) (A) (A) (A) (A) (A) (A) (A) (A) (A) (A) (A)
                 (A) (A) (A) (A) (A) (A) (A) (A) (A) (A) (A) (A)
                 (A) (A) (A) (A) (A) (A) (A) (A) (A) (A) (A) (A)
                 (A) (A) (A) (A) (A) (A) (A) (A) (A) (A) (A) (A)
                 (A) (A) (A) (A) (A) (A) (A) (A) (A) (A) (A) (A)
                 (A) (A) (A) (A) (A) (A) (A) (A) (A) (A) (A) (A)
                 (A) (A) (A) (A) (A) (A) (A) (A) (A) (A) (A) (A)
                 (A) (A) (A) (A) (A) (A) (A) (A) (A) (A) (A) (A)
                 (A) (A) (A) (A) (A) (A) (A) (A) (A) (A) (A) (A)
                 (A) (A) (A) (A) (A) (A) (A) (A) (A) (A) (A) (A)
                 (A) (A) (A) (A) (A) (A) (A) (A) (A) (A) (A) (A)
                 (A) (A) (A) (A) (A) (A) (A) (A) (A) (A) (A) (A)
                 (A) (A) (A) (A) (A) (A) (A) (A) (A) (A) (A) (A)
                 (A) (A) (A) (A) (A) (A) (A) (A) (A) (A) (A) (A)
                 (A) (A) (A) (A) (A) (A) (A) (A) (A) (A) (A) (A)
                 (A) (A) (A) (A) (A) (A) (A) (A) (A) (A) (A) (A)
                 (A) (A) (A) (A) (A) (A) (A) (A) (A) (A) (A) (A)
                 (A) (A) (A) (A) (A) (A) (A) (A) (A) (A) (A) (A)
                 (A) (A) (A) (A) (A) (A) (A) (A) (A) (A) (A) (A)
                 (A) (A) (A) (A) (A) (A) (A) (A) (A) (A) (A) (A)
                 (A) (A) (A) (A) (A) (A) (A) (A) (A) (A) (A) (A)
                 (A) (A) (A) (A) (A) (A) (A) (A) (A) (A) (A) (A)
                 (A) (A) (A) (A) (A) (A) (A) (A) (A) (A) (A) (A)
                 (A) (A) (A) (A) (A) (A) (A) (A) (A) (A) (A) (A)
                 (A) (A) (A) (A) (A) (A) (A) (A) (A) (A) (A) (A)
                 (A) (A) (A) (A) (A) (A) (A) (A) (A) (A) (A) (A)
                 (A) (A) (A) (A) (A) (A) (A) (A) (A) (A) (A) (A)
                 (A) (A) (A) (A) (A) (A) (A) (A) (A) (A) (A) (A)
                 (A) (A) (A) (A) (A) (A) (A) (A) (A) (A) (A) (A)
                 (A) (A) (A) (A) (A) (A) (A) (A) (A) (A) (A) (A)
                 (A)
 The electronic state is 1-A.
 Alpha  occ. eigenvalues --  -19.12879 -14.30323 -10.21927 -10.20799 -10.19184
 Alpha  occ. eigenvalues --  -10.19097 -10.18818 -10.18292 -10.18073 -10.17708
 Alpha  occ. eigenvalues --  -10.17666 -10.17126 -10.16867 -10.16153 -10.16005
 Alpha  occ. eigenvalues --  -10.15807  -1.00891  -0.90227  -0.81966  -0.80644
 Alpha  occ. eigenvalues --   -0.76766  -0.73677  -0.72595  -0.71494  -0.66718
 Alpha  occ. eigenvalues --   -0.65808  -0.63334  -0.62228  -0.58970  -0.57714
 Alpha  occ. eigenvalues --   -0.55582  -0.50914  -0.49915  -0.48409  -0.47386
 Alpha  occ. eigenvalues --   -0.46704  -0.45666  -0.44652  -0.44190  -0.44039
 Alpha  occ. eigenvalues --   -0.42316  -0.42120  -0.41114  -0.40368  -0.39890
 Alpha  occ. eigenvalues --   -0.38399  -0.38088  -0.37583  -0.36546  -0.35557
 Alpha  occ. eigenvalues --   -0.35131  -0.34736  -0.34657  -0.33660  -0.33546
 Alpha  occ. eigenvalues --   -0.32453  -0.32438  -0.32165  -0.31558  -0.31055
 Alpha  occ. eigenvalues --   -0.29273  -0.25755  -0.23362  -0.21734
 Alpha virt. eigenvalues --    0.02618   0.07287   0.07913   0.08782   0.10037
 Alpha virt. eigenvalues --    0.10194   0.10977   0.11861   0.12561   0.13062
 Alpha virt. eigenvalues --    0.13416   0.14392   0.14874   0.15546   0.15774
 Alpha virt. eigenvalues --    0.16422   0.16837   0.17022   0.17363   0.17546
 Alpha virt. eigenvalues --    0.17956   0.18365   0.18570   0.19446   0.19711
 Alpha virt. eigenvalues --    0.20853   0.20968   0.21654   0.22502   0.23078
 Alpha virt. eigenvalues --    0.23391   0.24433   0.24878   0.25299   0.25375
 Alpha virt. eigenvalues --    0.26207   0.27203   0.27816   0.28640   0.29117
 Alpha virt. eigenvalues --    0.30808   0.32208   0.33485   0.33902   0.36146
 Alpha virt. eigenvalues --    0.42278   0.43830   0.45031   0.46554   0.46959
 Alpha virt. eigenvalues --    0.47958   0.48547   0.49444   0.49741   0.50339
 Alpha virt. eigenvalues --    0.51103   0.51378   0.51632   0.53304   0.54768
 Alpha virt. eigenvalues --    0.55548   0.55820   0.56467   0.56909   0.57687
 Alpha virt. eigenvalues --    0.58187   0.58464   0.59948   0.60236   0.61755
 Alpha virt. eigenvalues --    0.62375   0.63722   0.63996   0.64601   0.65207
 Alpha virt. eigenvalues --    0.65963   0.67330   0.68176   0.69484   0.70966
 Alpha virt. eigenvalues --    0.71532   0.71793   0.72485   0.72588   0.72996
 Alpha virt. eigenvalues --    0.73640   0.73995   0.74111   0.74814   0.75010
 Alpha virt. eigenvalues --    0.75160   0.75319   0.76603   0.76823   0.77450
 Alpha virt. eigenvalues --    0.77506   0.78030   0.78624   0.78827   0.79172
 Alpha virt. eigenvalues --    0.79663   0.80533   0.81009   0.81658   0.81988
 Alpha virt. eigenvalues --    0.82347   0.83677   0.84153   0.84494   0.85115
 Alpha virt. eigenvalues --    0.85878   0.86164   0.87412   0.88010   0.88503
 Alpha virt. eigenvalues --    0.89306   0.90218   0.90436   0.90863   0.91635
 Alpha virt. eigenvalues --    0.93155   0.93719   0.94765   0.97129   0.97560
 Alpha virt. eigenvalues --    0.98921   0.99936   1.01812   1.03263   1.04538
 Alpha virt. eigenvalues --    1.06218   1.07525   1.09391   1.11115   1.11918
 Alpha virt. eigenvalues --    1.12993   1.14367   1.14649   1.16819   1.17768
 Alpha virt. eigenvalues --    1.18839   1.20831   1.21718   1.21758   1.22679
 Alpha virt. eigenvalues --    1.24440   1.25946   1.27017   1.28163   1.29196
 Alpha virt. eigenvalues --    1.30764   1.31469   1.32857   1.33513   1.35274
 Alpha virt. eigenvalues --    1.36082   1.37717   1.38338   1.38665   1.40211
 Alpha virt. eigenvalues --    1.41023   1.42061   1.42883   1.44247   1.44977
 Alpha virt. eigenvalues --    1.45811   1.47506   1.49275   1.50354   1.51217
 Alpha virt. eigenvalues --    1.53425   1.53936   1.55085   1.56037   1.57734
 Alpha virt. eigenvalues --    1.58846   1.59479   1.60365   1.61482   1.63039
 Alpha virt. eigenvalues --    1.63199   1.64278   1.65782   1.66469   1.67447
 Alpha virt. eigenvalues --    1.68020   1.69645   1.71406   1.71706   1.73178
 Alpha virt. eigenvalues --    1.74382   1.74787   1.75011   1.76916   1.78092
 Alpha virt. eigenvalues --    1.79742   1.80965   1.82290   1.85035   1.86561
 Alpha virt. eigenvalues --    1.87166   1.90392   1.92565   1.93465   1.93663
 Alpha virt. eigenvalues --    1.94519   1.94987   1.95914   1.96565   1.97030
 Alpha virt. eigenvalues --    1.98023   1.98350   1.99019   1.99862   2.02069
 Alpha virt. eigenvalues --    2.02912   2.04455   2.06745   2.07538   2.09790
 Alpha virt. eigenvalues --    2.11539   2.13606   2.16308   2.17019   2.17355
 Alpha virt. eigenvalues --    2.22201   2.23293   2.23458   2.24262   2.25167
 Alpha virt. eigenvalues --    2.27398   2.27721   2.29516   2.30159   2.31952
 Alpha virt. eigenvalues --    2.32349   2.32617   2.36476   2.37213   2.39380
 Alpha virt. eigenvalues --    2.39610   2.40645   2.43928   2.45081   2.46051
 Alpha virt. eigenvalues --    2.47607   2.49076   2.50569   2.51321   2.51960
 Alpha virt. eigenvalues --    2.53181   2.54514   2.54887   2.57288   2.58104
 Alpha virt. eigenvalues --    2.61506   2.63389   2.65499   2.66556   2.68256
 Alpha virt. eigenvalues --    2.69326   2.71257   2.74023   2.74535   2.75487
 Alpha virt. eigenvalues --    2.76193   2.77112   2.77443   2.78068   2.78469
 Alpha virt. eigenvalues --    2.79207   2.80419   2.80896   2.81897   2.82634
 Alpha virt. eigenvalues --    2.83126   2.83896   2.85048   2.85372   2.85973
 Alpha virt. eigenvalues --    2.86853   2.88192   2.88760   2.89818   2.90099
 Alpha virt. eigenvalues --    2.90996   2.91260   2.91785   2.92816   2.93830
 Alpha virt. eigenvalues --    2.94094   2.95244   2.95447   2.95799   2.96413
 Alpha virt. eigenvalues --    2.97176   2.98130   2.98816   2.99048   2.99905
 Alpha virt. eigenvalues --    3.01415   3.01532   3.01957   3.04259   3.04818
 Alpha virt. eigenvalues --    3.06514   3.07600   3.08438   3.12052   3.12420
 Alpha virt. eigenvalues --    3.13870   3.16266   3.16618   3.17854   3.18749
 Alpha virt. eigenvalues --    3.21330   3.22177   3.22379   3.22754   3.24532
 Alpha virt. eigenvalues --    3.25454   3.27773   3.28020   3.29823   3.30523
 Alpha virt. eigenvalues --    3.31608   3.33481   3.34611   3.34955   3.36099
 Alpha virt. eigenvalues --    3.38875   3.39652   3.40125   3.40568   3.42220
 Alpha virt. eigenvalues --    3.43896   3.44095   3.45481   3.45904   3.46303
 Alpha virt. eigenvalues --    3.48294   3.48617   3.50965   3.52754   3.53350
 Alpha virt. eigenvalues --    3.55930   3.56444   3.56963   3.60605   3.61250
 Alpha virt. eigenvalues --    3.61652   3.62208   3.62729   3.63493   3.63893
 Alpha virt. eigenvalues --    3.64562   3.66490   3.66988   3.68527   3.68589
 Alpha virt. eigenvalues --    3.70821   3.72863   3.73596   3.75316   3.76251
 Alpha virt. eigenvalues --    3.77103   3.77706   3.78896   3.79966   3.81236
 Alpha virt. eigenvalues --    3.82072   3.83408   3.85017   3.85752   3.89527
 Alpha virt. eigenvalues --    3.90376   3.93014   3.95542   3.96097   3.98115
 Alpha virt. eigenvalues --    3.99206   4.00346   4.01569   4.02320   4.03133
 Alpha virt. eigenvalues --    4.03671   4.07365   4.10504   4.13213   4.15728
 Alpha virt. eigenvalues --    4.20032   4.20875   4.22971   4.24406   4.28460
 Alpha virt. eigenvalues --    4.28679   4.30706   4.32032   4.33847   4.33919
 Alpha virt. eigenvalues --    4.36907   4.38973   4.39104   4.41214   4.42510
 Alpha virt. eigenvalues --    4.44927   4.45655   4.46931   4.47284   4.48764
 Alpha virt. eigenvalues --    4.50329   4.51207   4.51794   4.51961   4.52311
 Alpha virt. eigenvalues --    4.53554   4.54221   4.55104   4.56249   4.56939
 Alpha virt. eigenvalues --    4.57247   4.57675   4.57939   4.58670   4.58821
 Alpha virt. eigenvalues --    4.60281   4.61055   4.61299   4.62726   4.62860
 Alpha virt. eigenvalues --    4.63568   4.64159   4.65160   4.65500   4.67479
 Alpha virt. eigenvalues --    4.68098   4.68774   4.70192   4.71382   4.71488
 Alpha virt. eigenvalues --    4.73438   4.74801   4.75219   4.75751   4.76733
 Alpha virt. eigenvalues --    4.77699   4.78611   4.78957   4.79653   4.80276
 Alpha virt. eigenvalues --    4.80797   4.81765   4.82390   4.83606   4.85027
 Alpha virt. eigenvalues --    4.85952   4.86582   4.87120   4.87850   4.89193
 Alpha virt. eigenvalues --    4.90262   4.90764   4.92512   4.93054   4.93789
 Alpha virt. eigenvalues --    4.94844   4.95815   4.96829   4.98387   5.00701
 Alpha virt. eigenvalues --    5.01565   5.03956   5.06072   5.07535   5.08208
 Alpha virt. eigenvalues --    5.12536   5.13322   5.15869   5.17520   5.22037
 Alpha virt. eigenvalues --    5.25953   5.27974   5.29359   5.31536   5.33537
 Alpha virt. eigenvalues --    5.35957   5.37511   5.38672   5.40769   5.43812
 Alpha virt. eigenvalues --    5.44865   5.45723   5.48226   5.49281   5.51882
 Alpha virt. eigenvalues --    5.54253   5.56323   5.60279   5.61216   5.65990
 Alpha virt. eigenvalues --    5.67254   5.67365   5.72543   5.89332   5.92024
 Alpha virt. eigenvalues --    5.97320   6.05122   6.06995   6.10105   6.37825
 Alpha virt. eigenvalues --    6.70180   7.03852  10.28576  11.08636  11.23337
 Alpha virt. eigenvalues --   11.36537  11.55403  11.60823  11.67473  11.81847
 Alpha virt. eigenvalues --   11.93442  12.11206  12.20139  12.27085  12.57517
 Alpha virt. eigenvalues --   12.72425  12.78945  13.21417  16.13458
          Condensed to atoms (all electrons):
               1          2          3          4          5          6
     1  C    5.151691   0.661985  -0.052312  -0.011745  -0.045581   0.002777
     2  C    0.661985   4.296749   0.447838  -0.028806   0.410652  -0.033029
     3  C   -0.052312   0.447838   4.883300   0.389531  -0.081448  -0.004291
     4  C   -0.011745  -0.028806   0.389531   5.005233   0.005536  -0.000258
     5  C   -0.045581   0.410652  -0.081448   0.005536   5.018576   0.384854
     6  C    0.002777  -0.033029  -0.004291  -0.000258   0.384854   4.863725
     7  C    0.000005   0.002385   0.000360  -0.000032  -0.044026   0.421363
     8  N    0.000001  -0.000043   0.000010  -0.000000   0.002924  -0.042034
     9  C   -0.000000   0.000001   0.000000  -0.000000  -0.000243   0.001976
    10  C    0.000000   0.000000   0.000000  -0.000000   0.000032   0.001382
    11  C    0.000000  -0.000000   0.000000   0.000000   0.000002  -0.000173
    12  C   -0.000000   0.000000  -0.000000  -0.000000  -0.000000  -0.000008
    13  C    0.000000   0.000000   0.000000   0.000000   0.000000   0.000001
    14  C   -0.000000   0.000000  -0.000000   0.000000  -0.000000   0.000000
    15  C    0.000000  -0.000000   0.000000  -0.000000   0.000000  -0.000000
    16  O    0.000000  -0.000000   0.000000   0.000000   0.000000   0.000000
    17  H    0.345153   0.001545  -0.017546   0.005547   0.006542  -0.000194
    18  H    0.352440  -0.009127   0.008002  -0.000148  -0.018429   0.000320
    19  H    0.001208  -0.021897   0.360241  -0.039906  -0.002412   0.001729
    20  H    0.001484  -0.021779   0.359303  -0.040489  -0.002935   0.001801
    21  H    0.002907  -0.004322  -0.022869   0.374104  -0.000013   0.000026
    22  H    0.000278   0.002643  -0.021435   0.372350  -0.000167   0.000024
    23  H    0.002933  -0.004293  -0.023365   0.374310   0.000008   0.000019
    24  H   -0.007204  -0.017340   0.003242  -0.000090   0.350610  -0.032044
    25  H   -0.007869  -0.017203   0.003345  -0.000094   0.350436  -0.034179
    26  H    0.000203  -0.003714   0.000619   0.000093  -0.028889   0.365221
    27  H    0.000157  -0.003820   0.000856   0.000066  -0.025729   0.357859
    28  H   -0.000007  -0.000079   0.000040   0.000001  -0.007880  -0.014767
    29  H    0.000007  -0.000022   0.000023   0.000000   0.002852  -0.043028
    30  H   -0.000000   0.000004   0.000003   0.000000  -0.000284   0.002491
    31  H    0.000000   0.000000   0.000000   0.000000   0.000062  -0.000035
    32  H    0.000000   0.000000  -0.000000  -0.000000   0.000005  -0.000160
    33  H    0.000000  -0.000001   0.000000  -0.000000   0.000020  -0.000038
    34  H    0.000000   0.000000  -0.000000  -0.000000  -0.000000  -0.000029
    35  H    0.000000   0.000000   0.000000  -0.000000   0.000000   0.000002
    36  H   -0.000000   0.000000  -0.000000  -0.000000  -0.000000   0.000000
    37  H    0.000000   0.000000   0.000000  -0.000000   0.000001   0.000016
    38  H    0.000000  -0.000000   0.000000   0.000000   0.000000  -0.000000
    39  H    0.000000   0.000000   0.000000   0.000000   0.000000   0.000000
    40  H    0.000000  -0.000000   0.000000   0.000000  -0.000000  -0.000000
    41  H   -0.000000  -0.000000   0.000000  -0.000000  -0.000000   0.000000
    42  H   -0.000000   0.000000  -0.000000   0.000000  -0.000000  -0.000000
    43  H   -0.000000   0.000000   0.000000   0.000000   0.000000   0.000000
    44  H    0.000000   0.000000   0.000000   0.000000   0.000000   0.000000
    45  H    0.000000  -0.000000   0.000000   0.000000   0.000000   0.000000
               7          8          9         10         11         12
     1  C    0.000005   0.000001  -0.000000   0.000000   0.000000  -0.000000
     2  C    0.002385  -0.000043   0.000001   0.000000  -0.000000   0.000000
     3  C    0.000360   0.000010   0.000000   0.000000   0.000000  -0.000000
     4  C   -0.000032  -0.000000  -0.000000  -0.000000   0.000000  -0.000000
     5  C   -0.044026   0.002924  -0.000243   0.000032   0.000002  -0.000000
     6  C    0.421363  -0.042034   0.001976   0.001382  -0.000173  -0.000008
     7  C    4.858563   0.383857  -0.056906  -0.012579   0.002146   0.000795
     8  N    0.383857   6.451229   0.362338  -0.027877  -0.024146  -0.006576
     9  C   -0.056906   0.362338   4.690242   0.378759   0.406330  -0.023977
    10  C   -0.012579  -0.027877   0.378759   5.048068  -0.014827   0.003487
    11  C    0.002146  -0.024146   0.406330  -0.014827   4.821916   0.368653
    12  C    0.000795  -0.006576  -0.023977   0.003487   0.368653   5.059984
    13  C   -0.000130   0.001535  -0.013890  -0.007797   0.343130  -0.027684
    14  C    0.000008   0.000089  -0.003795  -0.009245  -0.020873   0.003865
    15  C    0.000000  -0.000034   0.000566   0.000052  -0.029649  -0.006642
    16  O   -0.000000   0.000000  -0.000042  -0.000001   0.002512   0.000171
    17  H    0.000002  -0.000000   0.000000   0.000000  -0.000000  -0.000000
    18  H   -0.000018   0.000000   0.000000  -0.000000  -0.000000  -0.000000
    19  H    0.000233  -0.000008   0.000000   0.000000   0.000000   0.000000
    20  H    0.000302   0.000010   0.000000  -0.000000   0.000000   0.000000
    21  H    0.000001  -0.000000   0.000000   0.000000  -0.000000   0.000000
    22  H    0.000000   0.000000   0.000000  -0.000000  -0.000000   0.000000
    23  H    0.000001  -0.000000   0.000000   0.000000   0.000000   0.000000
    24  H   -0.006282   0.000129   0.000017  -0.000033   0.000000  -0.000000
    25  H   -0.002764   0.000056   0.000011   0.000000   0.000000  -0.000000
    26  H   -0.038540  -0.001914   0.000000  -0.000027   0.000005  -0.000016
    27  H   -0.027107   0.005668   0.000343  -0.000011   0.000020  -0.000006
    28  H    0.354257  -0.018368  -0.006830  -0.004109  -0.000022   0.000002
    29  H    0.350908  -0.045515  -0.001128  -0.001700   0.000453  -0.000189
    30  H   -0.050994   0.334793  -0.048479   0.007302  -0.005923   0.005841
    31  H   -0.004404  -0.052043   0.343377  -0.060906  -0.047126  -0.008345
    32  H    0.000749   0.000579  -0.017462   0.370952  -0.008386   0.000098
    33  H   -0.004940  -0.006968  -0.020132   0.364602   0.003150  -0.000137
    34  H    0.000136   0.002591  -0.021036   0.365593  -0.002041  -0.000076
    35  H    0.000026   0.001829  -0.031282  -0.007535   0.340286  -0.044787
    36  H   -0.000104  -0.000783  -0.004466   0.000043  -0.025714   0.368784
    37  H   -0.000189   0.000453  -0.005484  -0.000078  -0.019975   0.364092
    38  H   -0.000005   0.000220   0.002374  -0.000108  -0.018269   0.373888
    39  H    0.000000   0.000027  -0.006395  -0.000340  -0.032429  -0.005699
    40  H    0.000000  -0.000021  -0.001163   0.000293  -0.005715   0.000113
    41  H    0.000001  -0.000014  -0.000237  -0.009264  -0.000767  -0.000083
    42  H   -0.000000   0.000001   0.000094   0.000500   0.003777  -0.000112
    43  H    0.000000   0.000004  -0.000044  -0.000002  -0.001878  -0.001730
    44  H    0.000000   0.000003   0.000008  -0.000008  -0.003195  -0.000498
    45  H    0.000000   0.000000  -0.000002   0.000001   0.000109  -0.000037
              13         14         15         16         17         18
     1  C    0.000000  -0.000000   0.000000   0.000000   0.345153   0.352440
     2  C    0.000000   0.000000  -0.000000  -0.000000   0.001545  -0.009127
     3  C    0.000000  -0.000000   0.000000   0.000000  -0.017546   0.008002
     4  C    0.000000   0.000000  -0.000000   0.000000   0.005547  -0.000148
     5  C    0.000000  -0.000000   0.000000   0.000000   0.006542  -0.018429
     6  C    0.000001   0.000000  -0.000000   0.000000  -0.000194   0.000320
     7  C   -0.000130   0.000008   0.000000  -0.000000   0.000002  -0.000018
     8  N    0.001535   0.000089  -0.000034   0.000000  -0.000000   0.000000
     9  C   -0.013890  -0.003795   0.000566  -0.000042   0.000000   0.000000
    10  C   -0.007797  -0.009245   0.000052  -0.000001   0.000000  -0.000000
    11  C    0.343130  -0.020873  -0.029649   0.002512  -0.000000  -0.000000
    12  C   -0.027684   0.003865  -0.006642   0.000171  -0.000000  -0.000000
    13  C    4.779244   0.389541   0.411557  -0.045445   0.000000   0.000000
    14  C    0.389541   5.055070  -0.042438  -0.016439   0.000000  -0.000000
    15  C    0.411557  -0.042438   4.790586   0.352815  -0.000000   0.000000
    16  O   -0.045445  -0.016439   0.352815   7.845080   0.000000   0.000000
    17  H    0.000000   0.000000  -0.000000   0.000000   0.603182  -0.049242
    18  H    0.000000  -0.000000   0.000000   0.000000  -0.049242   0.619835
    19  H   -0.000000   0.000000   0.000000  -0.000000   0.000207  -0.000162
    20  H    0.000000  -0.000000   0.000000  -0.000000   0.000210  -0.000163
    21  H   -0.000000  -0.000000   0.000000   0.000000   0.002552  -0.000015
    22  H   -0.000000   0.000000   0.000000   0.000000  -0.000242  -0.000003
    23  H   -0.000000   0.000000   0.000000   0.000000   0.002490  -0.000016
    24  H    0.000000  -0.000000   0.000000  -0.000000  -0.000166   0.002676
    25  H    0.000000  -0.000000   0.000000   0.000000  -0.000144   0.002785
    26  H   -0.000000  -0.000000   0.000000  -0.000000   0.000001   0.000008
    27  H    0.000000  -0.000000   0.000000   0.000000   0.000001   0.000008
    28  H   -0.000013   0.000002   0.000000  -0.000000  -0.000000   0.000000
    29  H    0.000045  -0.000002   0.000000   0.000000  -0.000000   0.000001
    30  H   -0.000163   0.000006   0.000002   0.000000   0.000000   0.000000
    31  H   -0.001191  -0.000419   0.000044   0.000000  -0.000000   0.000000
    32  H   -0.000456   0.000021  -0.000016   0.000000  -0.000000   0.000000
    33  H    0.000177   0.000424   0.000002   0.000000  -0.000000   0.000000
    34  H    0.000914  -0.008195   0.000044  -0.000000   0.000000  -0.000000
    35  H   -0.035551  -0.005870  -0.005758   0.000035  -0.000000   0.000000
    36  H   -0.004449   0.000051  -0.000521  -0.000010   0.000000  -0.000000
    37  H    0.003259  -0.000122   0.000317  -0.000002   0.000000  -0.000000
    38  H   -0.006003   0.000083  -0.001267  -0.000038   0.000000  -0.000000
    39  H    0.342631  -0.051513  -0.040334  -0.002315   0.000000   0.000000
    40  H   -0.027289   0.373624  -0.001426   0.000303  -0.000000  -0.000000
    41  H   -0.021467   0.373799   0.003952   0.000433  -0.000000   0.000000
    42  H   -0.023299   0.356726  -0.013258   0.023334   0.000000  -0.000000
    43  H   -0.037887   0.006751   0.363395  -0.028581   0.000000   0.000000
    44  H   -0.022845  -0.007726   0.350247  -0.015591   0.000000   0.000000
    45  H   -0.001460   0.000988  -0.070978   0.307784   0.000000   0.000000
              19         20         21         22         23         24
     1  C    0.001208   0.001484   0.002907   0.000278   0.002933  -0.007204
     2  C   -0.021897  -0.021779  -0.004322   0.002643  -0.004293  -0.017340
     3  C    0.360241   0.359303  -0.022869  -0.021435  -0.023365   0.003242
     4  C   -0.039906  -0.040489   0.374104   0.372350   0.374310  -0.000090
     5  C   -0.002412  -0.002935  -0.000013  -0.000167   0.000008   0.350610
     6  C    0.001729   0.001801   0.000026   0.000024   0.000019  -0.032044
     7  C    0.000233   0.000302   0.000001   0.000000   0.000001  -0.006282
     8  N   -0.000008   0.000010  -0.000000   0.000000  -0.000000   0.000129
     9  C    0.000000   0.000000   0.000000   0.000000   0.000000   0.000017
    10  C    0.000000  -0.000000   0.000000  -0.000000   0.000000  -0.000033
    11  C    0.000000   0.000000  -0.000000  -0.000000   0.000000   0.000000
    12  C    0.000000   0.000000   0.000000   0.000000   0.000000  -0.000000
    13  C   -0.000000   0.000000  -0.000000  -0.000000  -0.000000   0.000000
    14  C    0.000000  -0.000000  -0.000000   0.000000   0.000000  -0.000000
    15  C    0.000000   0.000000   0.000000   0.000000   0.000000   0.000000
    16  O   -0.000000  -0.000000   0.000000   0.000000   0.000000  -0.000000
    17  H    0.000207   0.000210   0.002552  -0.000242   0.002490  -0.000166
    18  H   -0.000162  -0.000163  -0.000015  -0.000003  -0.000016   0.002676
    19  H    0.633282  -0.042031  -0.005568  -0.002761   0.005997   0.000197
    20  H   -0.042031   0.637752   0.006017  -0.002905  -0.005599  -0.000114
    21  H   -0.005568   0.006017   0.593812  -0.031615  -0.035046  -0.000014
    22  H   -0.002761  -0.002905  -0.031615   0.609214  -0.031705   0.000003
    23  H    0.005997  -0.005599  -0.035046  -0.031705   0.594807   0.000004
    24  H    0.000197  -0.000114  -0.000014   0.000003   0.000004   0.626760
    25  H   -0.000113   0.000152   0.000003   0.000003  -0.000014  -0.038368
    26  H    0.000182   0.000988  -0.000003   0.000005   0.000004   0.006099
    27  H    0.000988   0.000139   0.000002   0.000006  -0.000003  -0.005637
    28  H    0.000019  -0.000009  -0.000000   0.000000   0.000000   0.007813
    29  H   -0.000007   0.000011   0.000000   0.000000  -0.000000  -0.000526
    30  H    0.000003  -0.000012  -0.000000   0.000000  -0.000000   0.000018
    31  H   -0.000000   0.000000  -0.000000  -0.000000   0.000000   0.000001
    32  H   -0.000000   0.000000  -0.000000   0.000000  -0.000000   0.000000
    33  H   -0.000000   0.000000   0.000000   0.000000  -0.000000  -0.000026
    34  H   -0.000000   0.000000  -0.000000  -0.000000   0.000000   0.000001
    35  H   -0.000000   0.000000  -0.000000   0.000000   0.000000   0.000000
    36  H   -0.000000   0.000000  -0.000000  -0.000000   0.000000   0.000000
    37  H   -0.000000   0.000000   0.000000  -0.000000  -0.000000  -0.000000
    38  H    0.000000  -0.000000   0.000000  -0.000000  -0.000000  -0.000000
    39  H   -0.000000   0.000000  -0.000000  -0.000000   0.000000   0.000000
    40  H    0.000000   0.000000  -0.000000  -0.000000  -0.000000   0.000000
    41  H    0.000000  -0.000000  -0.000000   0.000000   0.000000  -0.000000
    42  H    0.000000   0.000000  -0.000000   0.000000   0.000000   0.000000
    43  H    0.000000   0.000000  -0.000000   0.000000   0.000000   0.000000
    44  H    0.000000   0.000000   0.000000   0.000000  -0.000000   0.000000
    45  H    0.000000   0.000000   0.000000   0.000000   0.000000   0.000000
              25         26         27         28         29         30
     1  C   -0.007869   0.000203   0.000157  -0.000007   0.000007  -0.000000
     2  C   -0.017203  -0.003714  -0.003820  -0.000079  -0.000022   0.000004
     3  C    0.003345   0.000619   0.000856   0.000040   0.000023   0.000003
     4  C   -0.000094   0.000093   0.000066   0.000001   0.000000   0.000000
     5  C    0.350436  -0.028889  -0.025729  -0.007880   0.002852  -0.000284
     6  C   -0.034179   0.365221   0.357859  -0.014767  -0.043028   0.002491
     7  C   -0.002764  -0.038540  -0.027107   0.354257   0.350908  -0.050994
     8  N    0.000056  -0.001914   0.005668  -0.018368  -0.045515   0.334793
     9  C    0.000011   0.000000   0.000343  -0.006830  -0.001128  -0.048479
    10  C    0.000000  -0.000027  -0.000011  -0.004109  -0.001700   0.007302
    11  C    0.000000   0.000005   0.000020  -0.000022   0.000453  -0.005923
    12  C   -0.000000  -0.000016  -0.000006   0.000002  -0.000189   0.005841
    13  C    0.000000  -0.000000   0.000000  -0.000013   0.000045  -0.000163
    14  C   -0.000000  -0.000000  -0.000000   0.000002  -0.000002   0.000006
    15  C    0.000000   0.000000   0.000000   0.000000   0.000000   0.000002
    16  O    0.000000  -0.000000   0.000000  -0.000000   0.000000   0.000000
    17  H   -0.000144   0.000001   0.000001  -0.000000  -0.000000   0.000000
    18  H    0.002785   0.000008   0.000008   0.000000   0.000001   0.000000
    19  H   -0.000113   0.000182   0.000988   0.000019  -0.000007   0.000003
    20  H    0.000152   0.000988   0.000139  -0.000009   0.000011  -0.000012
[...]
 597,-0.00017639,0.00137941,-0.00110912,-0.00359021,-0.09003152,0.00394
 219,0.10006686,0.00003713,-0.00022298,-0.00113574,-0.00177896,0.001432
 35,-0.00008142,-0.00000020,-0.00000369,-0.00000055,0.00000095,0.000001
 23,-0.00000080,0.00000051,-0.00000010,-0.00000086,-0.00000278,0.000001
 49,-0.00000409,-0.00000183,-0.00000101,-0.00000019,0.00000004,-0.00000
 061,0.00000151,0.00000007,-0.00000042,-0.00000018,-0.00000019,0.000000
 13,-0.00000004,-0.00000268,0.00000044,-0.00000149,-0.00000120,-0.00000
 523,0.00000241,0.00000237,-0.00000010,-0.00000337,0.00000079,0.0000098
 9,-0.00000468,-0.00002114,0.00001192,-0.00002285,-0.00003995,0.0000006
 1,-0.00001298,0.00030930,0.00018306,0.00026799,-0.00007098,-0.00003415
 ,0.00010163,0.00000662,0.00002140,-0.00000911,-0.00027152,-0.00017467,
 0.00001999,0.00005248,0.00011633,0.00029519,0.00000723,0.00005491,-0.0
 0001877,-0.00008390,0.00009802,-0.00004405,-0.00003264,-0.00003756,-0.
 00002357,0.00004290,-0.00005923,0.00024638,0.00654053,-0.00065423,-0.0
 1611688,-0.01153309,0.00156817,0.02871339,0.09519069,-0.00000214,-0.00
 000273,0.00000218,-0.00000134,0.00000662,-0.00000224,0.00000209,-0.000
 00198,0.00000006,-0.00000035,0.00000081,0.00000015,0.00000037,-0.00000
 880,0.00000371,-0.00002210,0.00001574,0.00000549,0.00006037,-0.0000469
 4,-0.00001137,-0.00015759,0.00016335,-0.00000436,0.00057437,-0.0004158
 2,-0.00009982,-0.00018631,-0.00047760,-0.00000154,0.00182719,-0.005725
 09,0.00089414,-0.00085373,0.00057361,0.00173525,-0.01212306,0.00172350
 ,0.02859503,0.00453243,-0.04641999,-0.01518380,-0.00058243,0.00125287,
 0.00167940,0.00006653,-0.00054972,-0.00148308,0.00000008,-0.00000145,-
 0.00000005,0.00000007,0.00000074,-0.00000037,-0.00000048,0.00000016,-0
 .00000022,-0.00000120,0.00000017,-0.00000189,-0.00000085,-0.00000036,-
 0.00000006,0.00000015,-0.00000027,0.00000052,0.00000031,0.00000003,-0.
 00000007,-0.00000190,0.00000073,0.00000117,-0.00000190,0.00000038,-0.0
 0000066,0.00000469,0.00000593,-0.00000013,0.00000417,-0.00000081,-0.00
 000498,-0.00002806,0.00001564,0.00001398,-0.00002307,0.00000421,-0.000
 01620,0.00009894,0.00005026,0.00003914,0.00002116,0.00006453,-0.000127
 13,0.00008503,0.00007185,-0.00007222,0.00007956,0.00013450,-0.00006881
 ,0.00011661,0.00035675,-0.00007039,0.00022726,0.00017113,0.00010318,-0
 .00005486,-0.00000687,-0.00009848,0.00022314,-0.00060920,0.00036176,0.
 00011042,-0.00001506,0.00004456,-0.00046508,0.00102731,-0.00074821,0.0
 1008428,-0.00133749,-0.02059517,0.00226578,-0.00143797,-0.00721616,-0.
 00623500,0.05230137,0.00001015,0.00000904,-0.00000834,0.00000035,-0.00
 002221,0.00001181,-0.00000385,0.00000633,0.00000060,-0.00000037,-0.000
 00283,-0.00000086,-0.00000532,0.00001685,-0.00001584,0.00001643,-0.000
 01488,0.00001074,-0.00010620,0.00004133,-0.00003122,0.00022356,-0.0000
 1812,0.00010037,-0.00052949,-0.00009719,0.00002318,-0.00003845,-0.0001
 7698,0.00015886,-0.00074687,0.00333555,0.00021961,0.00078906,-0.000340
 70,-0.00072534,0.00407768,-0.00004567,-0.01433840,0.09723045,-0.013073
 77,-0.27120280,0.00167078,-0.00014988,-0.00241085,0.00156511,-0.002560
 82,0.00193830,0.00000056,0.00000592,-0.00000012,-0.00000201,-0.0000016
 3,0.00000047,-0.00000059,0.00000022,0.00000090,0.00000453,-0.00000192,
 0.00000582,0.00000316,0.00000166,0.00000066,-0.00000028,0.00000083,-0.
 00000319,-0.00000022,0.00000071,0.00000074,0.00000107,-0.00000046,-0.0
 0000058,0.00000271,-0.00000009,0.00000166,-0.00000015,0.00000257,-0.00
 000425,-0.00000447,-0.00000040,0.00000282,0.00000648,-0.00000762,0.000
 00669,0.00003235,-0.00000276,0.00002732,-0.00005165,-0.00000754,-0.000
 02442,0.00013255,0.00003647,0.00010432,0.00001672,0.00001717,0.0000059
 7,0.00007971,0.00000503,-0.00006350,0.00000485,0.00014842,-0.00011728,
 -0.00004500,0.00004015,0.00048184,0.00002604,0.00010976,0.00000879,-0.
 00010125,0.00034337,-0.00019747,-0.00006792,-0.00001862,-0.00001577,0.
 00004142,0.00027903,0.00073611,0.00653369,-0.00070687,-0.01438783,-0.0
 0179723,-0.00008148,0.00426917,-0.10864830,0.01293262,0.29525912,0.000
 00224,-0.00000434,-0.00000030,0.00000138,0.00000175,-0.00000073,-0.000
 00380,0.00000028,-0.00000002,-0.00000003,0.00000091,0.00000099,-0.0000
 0460,-0.00000461,0.00000055,-0.00000589,0.00001487,0.00000279,-0.00002
 172,-0.00003224,0.00001465,0.00003369,-0.00007466,0.00019591,-0.000055
 61,-0.00011389,-0.00020143,0.00016170,0.00001587,-0.00001832,0.0006964
 2,0.00024294,-0.00094721,-0.00019955,0.00022038,0.00105561,-0.00369263
 ,0.03052517,-0.01106014,-0.00659144,0.00018242,0.00137593,-0.05584016,
 0.02941882,-0.01480870,0.00256093,-0.01130503,0.01182809,-0.00000137,0
 .00000011,0.00000027,-0.00000139,0.00000143,0.,0.00000087,-0.00000129,
 -0.00000055,0.00000117,0.00000109,0.00000091,0.00000112,-0.00000003,0.
 00000013,-0.00000050,-0.00000008,0.00000005,-0.00000050,-0.00000133,-0
 .00000027,0.00000332,-0.00000243,-0.00000224,0.00000228,0.00000139,0.0
 0000208,-0.00000348,-0.00001096,-0.00000436,-0.00000192,-0.00000134,0.
 00000567,0.00002040,-0.00000933,-0.00000533,0.00002358,0.00000431,0.00
 001388,-0.00012391,-0.00002664,-0.00004527,0.00014371,0.00001683,0.000
 06208,-0.00002446,-0.00000211,0.00004212,0.00000461,-0.00003262,-0.000
 01426,-0.00001797,-0.00008294,-0.00004309,-0.00001682,-0.00004639,0.00
 010047,-0.00038672,-0.00043818,0.00015174,-0.00000378,-0.00022045,-0.0
 0007070,0.00010578,-0.00017338,0.00101032,0.00147725,-0.00090936,-0.00
 039069,0.00009500,0.00021539,0.00017111,-0.00020170,0.00199907,-0.0010
 2067,0.00009735,-0.00023938,-0.00012228,0.05850242,-0.00000400,0.00000
 478,0.00000040,-0.00000141,-0.00000123,0.00000296,0.00000710,-0.000000
 89,0.00000100,-0.00000015,-0.00000162,-0.00000170,0.00000678,0.0000063
 6,-0.00000273,0.00001222,-0.00001918,0.00000425,0.00006270,0.00006008,
 -0.00003561,-0.00006544,0.00010789,-0.00024731,0.00001815,0.00001346,-
 0.00002023,-0.00008446,-0.00001589,0.00000104,0.00040862,-0.00077329,0
 .00080199,0.00023990,0.00009083,0.00213288,-0.00085917,-0.00862862,0.0
 0244256,0.00278557,0.00082630,-0.00024052,0.02989123,-0.26283789,0.080
 77584,-0.00163025,0.00749629,0.00413789,0.00000231,0.,-0.00000049,0.00
 000174,-0.00000156,-0.00000108,-0.00000114,0.00000199,0.00000019,-0.00
 000278,-0.00000163,-0.00000182,-0.00000249,0.00000017,-0.00000022,0.00
 000127,0.00000002,-0.00000115,0.00000115,0.00000222,0.00000108,-0.0000
 0416,0.00000291,0.00000305,-0.00000477,-0.00000120,-0.00000409,0.00000
 451,0.00001269,0.00000714,0.00000389,0.00000083,-0.00001248,-0.0000282
 6,0.00001278,0.00000542,-0.00004341,0.00000045,-0.00002840,0.00016200,
 0.00003798,0.00011319,-0.00014993,0.00001143,-0.00011100,0.00001434,-0
 .00000976,-0.00003613,0.00000665,0.00001657,0.00000915,0.00000552,0.00
 008462,0.00002046,0.00004943,0.00009740,0.00002674,0.00021572,0.000096
 69,0.00010239,-0.00079799,0.00041593,-0.00001240,-0.00152399,0.0002550
 4,-0.00034965,0.00042337,0.00108664,0.00008348,-0.00010555,0.00045447,
 -0.00018053,0.00008849,-0.00060044,0.00063583,-0.00017247,0.00021142,-
 0.00010339,-0.03185482,0.27840377,0.00000023,-0.00000361,0.00000098,0.
 00000035,0.00000428,-0.00000206,-0.00000098,-0.00000088,-0.00000015,-0
 .00000023,0.00000113,0.00000062,-0.00000130,-0.00000564,0.00000323,-0.
 00000941,0.00001163,-0.00000202,0.00001335,-0.00001977,0.00000945,-0.0
 0007024,0.00001867,0.00003118,0.00008724,0.00005399,0.00015464,-0.0000
 4007,-0.00000460,-0.00000940,-0.00062842,-0.00000659,0.00000253,0.0013
 3389,0.00004430,-0.00213089,-0.00189408,0.00049460,0.00259396,0.000855
 38,-0.00039408,0.00020139,-0.01697845,0.07900191,-0.07914891,0.0048436
 5,0.03047387,-0.03380493,-0.00000091,-0.00000075,0.00000015,-0.0000007
 0,0.00000101,-0.00000005,0.00000033,-0.00000067,-0.00000032,-0.0000000
 4,0.00000084,-0.00000051,0.00000022,-0.00000034,0.00000002,-0.00000023
 ,-0.00000017,0.00000050,-0.00000020,-0.00000082,-0.00000030,0.00000088
 ,-0.00000087,-0.00000064,0.00000020,0.00000058,0.00000058,-0.00000001,
 -0.00000349,-0.00000101,0.00000074,-0.00000053,0.00000075,-0.00000184,
 0.00000103,-0.00000080,-0.00000377,0.00000172,-0.00000231,0.00001868,0
 .00000606,-0.00000634,-0.00000978,0.00000329,-0.00001064,-0.00000284,0
 .00000054,0.00000382,-0.00000676,0.00002279,0.00000515,-0.00000068,0.0
 0000001,-0.00000291,0.00009616,0.00001443,0.00001180,-0.00017104,-0.00
 000645,-0.00008149,0.00027608,-0.00019985,-0.00008092,0.00169447,0.000
 04658,-0.00224135,0.00031927,0.00020019,0.00007683,-0.00004009,0.00030
 481,0.00000627,0.00021379,-0.00015217,0.00029396,0.00041849,-0.0003152
 6,0.00004376,0.00743701,-0.09753418,0.10480152,-0.00000349,-0.00000002
 ,0.00000161,0.00000059,0.00000531,-0.00000460,0.00000019,-0.00000240,-
 0.00000129,0.00000057,0.00000092,0.00000066,0.00000205,-0.00000084,-0.
 00000163,0.00000735,-0.00000608,-0.00000409,0.00003468,0.00000659,-0.0
 0005729,0.00011638,-0.00002940,0.00016694,-0.00008096,0.00052633,-0.00
 011073,-0.00003169,-0.00004291,0.00015813,0.00091470,-0.00066283,-0.00
 168418,-0.00016687,0.00001944,0.00022195,-0.02120263,-0.02135020,-0.01
 488276,0.00157911,-0.00165542,0.00037973,-0.13819044,-0.09913736,-0.07
 555264,0.00877703,0.00893686,0.00895262,-0.00000013,-0.00000201,0.0000
 0060,0.00000195,-0.00000024,0.00000138,-0.00000070,0.00000065,0.000000
 68,-0.00000016,-0.00000010,-0.00000128,-0.00000033,-0.00000054,-0.0000
 0041,-0.00000033,-0.00000050,0.00000236,-0.00000031,0.00000023,-0.0000
 0069,-0.00000241,0.00000198,0.00000178,0.00000229,-0.00000070,0.000002
 01,-0.00000018,0.00000771,-0.00000094,-0.00000022,-0.00000025,0.000004
 89,-0.00000522,0.00000724,0.00001044,0.00000633,-0.00000175,0.00001046
 ,-0.00000647,0.00000843,-0.00007520,0.00027061,-0.00004744,0.00023264,
 -0.00002456,0.00005024,0.00004116,0.00000957,0.00002159,-0.00000111,-0
 .00000966,0.00002727,-0.00002821,0.00004378,0.00070451,0.00099844,0.00
 008919,0.00018368,-0.00011377,0.00005815,-0.00003699,0.00008050,-0.000
 01366,-0.00024875,0.00013677,-0.00586065,0.00229310,0.00042852,0.00012
 338,0.00112671,0.00006440,0.00031775,0.00013694,0.00040093,-0.00004499
 ,0.00013710,-0.00013830,0.00332507,0.00338319,0.00183531,0.14966548,-0
 .00000225,0.00000120,0.00000140,-0.00000101,0.00000195,-0.00000377,0.0
 0000012,-0.00000089,-0.00000093,0.00000052,0.00000011,-0.00000003,0.00
 000052,-0.00000248,0.00000144,-0.00000603,-0.00000298,-0.00000722,-0.0
 0000630,-0.00001860,0.00001218,-0.00002734,0.00003085,-0.00000704,0.00
 014066,-0.00015174,0.00028019,0.00000164,0.00002751,-0.00005563,-0.000
 39650,0.00044096,0.00005504,-0.00042903,-0.00007843,0.00003848,0.00550
 984,0.00556646,0.00437841,0.00036337,0.00142943,0.00049789,-0.09660189
 ,-0.16007089,-0.07811329,0.00169833,0.00223716,-0.00342633,0.00000031,
 -0.00000132,0.00000004,0.00000119,-0.00000057,0.00000118,-0.00000072,0
 .00000068,0.00000060,0.00000021,-0.00000053,-0.00000066,-0.00000010,-0
 .00000024,-0.00000028,-0.00000026,-0.00000023,0.00000190,-0.00000022,0
 .00000044,-0.00000053,-0.00000130,0.00000152,0.00000062,0.00000100,-0.
 00000044,0.00000123,0.00000016,0.00000335,0.00000101,0.00000073,0.0000
 0012,0.00000238,-0.00000093,0.00000264,0.00000071,0.00000165,-0.000003
 15,0.00000346,-0.00000501,-0.00000188,-0.00001000,0.00004877,-0.000024
 98,-0.00011878,-0.00000907,-0.00001501,0.00000580,-0.00000063,-0.00000
 041,0.00000172,-0.00000030,-0.00001364,-0.00001187,-0.00025297,0.00015
 080,0.00020366,0.00026220,0.00017425,0.00006354,0.00006116,0.00011837,
 0.00011552,0.00004544,-0.00033025,0.00005002,0.00210560,0.00072792,0.0
 0031766,-0.00019247,0.00021949,-0.00030336,-0.00014350,0.00012035,-0.0
 0005640,0.00002708,-0.00007207,0.00007240,-0.01775211,-0.01851330,-0.0
 1342490,0.10482998,0.16604953,0.00000003,0.00000147,-0.00000057,-0.000
 00086,-0.00000126,0.00000006,0.00000020,0.00000008,-0.00000039,0.00000
 013,-0.00000018,-0.00000007,-0.00000085,-0.00000068,-0.00000159,-0.000
 00181,-0.00000062,-0.00000054,-0.00001798,-0.00000973,-0.00000063,-0.0
 0001600,0.00003711,0.00000047,0.00000986,-0.00000819,0.00023600,-0.000
 04317,-0.00000358,-0.00001062,0.00005768,0.00051804,0.00065972,0.00009
 274,0.00011243,0.00039197,-0.00015040,0.00050716,0.00172189,-0.0000834
 1,-0.00037854,-0.00013907,-0.06722750,-0.07020695,-0.09991375,-0.01593
 993,-0.02578222,-0.03118458,0.00000027,-0.00000003,0.,0.00000027,-0.00
 000054,0.00000045,-0.00000033,0.00000041,0.00000044,0.00000033,-0.0000
 0033,0.00000042,0.00000018,0.00000001,-0.00000010,-0.00000002,-0.00000
 004,0.00000038,-0.00000014,0.00000032,-0.00000010,-0.00000018,0.000000
 70,0.00000058,0.00000052,-0.00000031,0.00000050,-0.00000045,0.00000110
 ,-0.00000041,0.00000003,0.00000023,0.00000056,0.00000150,0.00000104,0.
 00000175,0.00000106,-0.00000092,0.00000240,-0.00001047,0.00000096,0.00
 000463,0.00004184,-0.00004112,-0.00009222,0.00000048,-0.00000848,-0.00
 000831,0.00000174,0.00001209,-0.00000225,-0.00000286,0.00000911,-0.000
 00159,-0.00018668,-0.00013766,0.00020429,0.00003005,-0.00010109,-0.000
 02732,-0.00009141,-0.00004837,-0.00007052,-0.00019598,-0.00001441,0.00
 005040,0.00075147,-0.00034447,0.00048387,-0.00018440,0.00033283,0.0000
 8439,0.00009745,0.00020365,0.00004304,0.00005084,-0.00020344,0.0000086
 9,0.00644334,0.00707765,0.00756198,0.07503098,0.08822408,0.12679484,0.
 00001031,0.00000967,-0.00000663,-0.00000288,-0.00002465,0.00001502,-0.
 00000090,0.00000717,0.00000273,-0.00000114,-0.00000479,-0.00000252,-0.
 00000343,0.00001382,-0.00000776,0.00000487,-0.00000955,0.00000961,-0.0
 0007310,0.00002468,0.00003430,0.00006908,0.00005457,-0.00014578,-0.000
 11897,-0.00012215,0.00020778,-0.00002166,0.00000395,-0.00003385,-0.000
 65254,-0.00034063,0.00023799,0.00013439,-0.00003305,0.00004647,0.00279
 215,0.00223147,0.00227754,-0.00056792,0.00009273,-0.00009763,0.0045321
 2,0.01088563,0.01275260,-0.14780534,-0.19593201,-0.12758780,0.00000224
 ,0.00000726,-0.00000185,-0.00000344,-0.00000188,-0.00000213,-0.0000005
 4,0.00000092,0.00000007,0.00000330,-0.00000240,0.00000534,0.00000243,0
 .00000221,0.00000125,0.00000047,0.00000111,-0.00000630,0.00000053,0.00
 000174,0.00000222,0.00000182,-0.00000077,-0.00000096,-0.00000262,-0.00
 000013,-0.00000394,0.00000179,-0.00000145,0.00000099,-0.00000271,0.000
 00056,-0.00000798,0.00000329,-0.00000775,-0.00000440,0.00000541,0.0000
 0070,-0.00000619,0.00000731,-0.00001117,0.00005035,-0.00008571,0.00002
 091,-0.00008141,0.00000731,-0.00001369,-0.00002364,0.00002762,-0.00001
 245,0.00000044,-0.00000151,0.00004142,0.00001472,-0.00004099,-0.000072
 50,-0.00033391,0.00003057,-0.00000267,0.00004507,-0.00005971,0.0000694
 9,-0.00004452,-0.00010352,-0.00000160,-0.00007938,-0.00067052,-0.00111
 473,-0.00041315,0.00003923,-0.00029150,-0.00014554,0.00000370,0.000002
 64,-0.00004737,0.00013230,0.00045876,-0.00005921,-0.00006038,-0.000459
 22,0.00041634,0.00029988,0.00072945,0.00154184,0.14216742,-0.00000453,
 -0.00001468,0.00000566,0.00000394,0.00002241,-0.00001111,-0.00000202,-
 0.00000530,-0.00000086,-0.00000004,0.00000483,0.00000244,-0.00000061,-
 0.00001646,0.00001024,-0.00001595,0.00002792,-0.00000463,0.00007024,-0
 .00004113,-0.00000709,-0.00014159,-0.00002781,0.00013214,0.00012948,0.
 00007995,0.00001847,-0.00000311,-0.00000040,0.00000053,-0.00016210,0.0
 0031945,-0.00007230,-0.00004739,0.00017790,0.00006004,-0.00020056,0.00
 006671,0.00083469,0.00054287,-0.00030181,-0.00028904,-0.00214291,-0.00
 100840,0.00466129,-0.18335541,-0.25954784,-0.18626441,-0.00000341,-0.0
 0000492,0.00000119,-0.00000031,0.00000394,0.00000035,0.00000152,-0.000
 00249,-0.00000142,-0.00000212,0.00000339,-0.00000422,-0.00000112,-0.00
 000182,-0.00000053,-0.00000059,-0.00000082,0.00000369,-0.00000048,-0.0
 0000299,-0.00000147,0.00000167,-0.00000264,-0.00000200,0.00000106,0.00
 000207,0.00000285,-0.00000110,-0.00001006,-0.00000210,0.00000327,-0.00
 000199,0.00000461,0.00000182,0.00000187,-0.00000331,-0.00001129,0.0000
 0522,-0.00000137,-0.00001083,0.00000684,-0.00002220,0.00003808,-0.0000
 0547,0.00006054,-0.00000530,-0.00000105,0.00002184,-0.00002811,0.00002
 277,0.00000221,-0.00000364,-0.00005301,-0.00001530,-0.00008283,-0.0000
 3254,0.00017557,-0.00005585,-0.00009360,-0.00002823,-0.00000583,-0.000
 10411,0.00002350,0.00002535,0.00000608,0.00001673,0.00047326,-0.000143
 65,-0.00035488,-0.00013461,0.00019116,0.00037005,-0.00003458,0.0000844
 0,0.00006007,0.00007814,-0.00102338,0.00003039,0.00047693,0.00159447,0
 .00136735,0.00081070,0.00199892,0.00025266,0.18379990,0.25782807,-0.00
 001371,-0.00000969,0.00001043,0.,0.00002716,-0.00001389,0.00000524,-0.
 00000819,-0.00000088,0.00000085,0.00000282,0.00000093,0.00000757,-0.00
 001817,0.00001734,-0.00001854,0.00001041,-0.00001297,0.00013200,-0.000
 04361,0.00001201,-0.00022383,0.00003378,0.00003371,0.00021515,0.000050
 24,0.00016956,-0.00005689,-0.00002634,-0.00000113,-0.00019450,0.000504
 93,-0.00008959,-0.00006688,0.00003079,0.00007495,-0.00012244,-0.000345
 56,0.00167379,-0.00023071,-0.00017265,0.00024574,-0.02231273,-0.032755
 76,-0.02912423,-0.09230554,-0.14843020,-0.14919697,-0.00000018,-0.0000
 0731,0.00000035,0.00000343,0.00000189,-0.00000046,0.00000041,0.0000002
 1,-0.00000108,-0.00000596,0.00000165,-0.00000748,-0.00000449,-0.000001
 79,-0.00000097,0.00000053,-0.00000107,0.00000387,0.00000060,-0.0000002
 5,-0.00000064,-0.00000304,0.00000135,0.00000140,-0.00000278,0.00000014
 ,-0.00000195,0.00000166,0.00000260,0.00000538,0.00000463,0.00000003,-0
 .00000265,-0.00001385,0.00001396,-0.00000025,-0.00003328,0.00000365,-0
 .00002544,0.00005757,0.00001789,0.00000076,0.00000218,-0.00001924,-0.0
 0000662,0.00000022,0.00000036,0.00000440,-0.00003893,0.00004410,0.0000
 0818,0.00001214,-0.00001642,-0.00001233,-0.00011299,0.00013364,0.00031
 150,0.00012595,0.00006820,-0.00004213,-0.00002403,0.00003262,0.0000700
 0,-0.00009223,-0.00006635,-0.00006857,0.00132225,0.00001849,0.00020034
 ,-0.00000016,0.00018094,-0.00010338,-0.00009401,0.00011264,0.00001119,
 0.00026403,-0.00008623,0.00011977,-0.00115909,0.00053853,0.00172285,0.
 00349324,0.00120845,-0.00679909,0.11148115,0.17896735,0.18081422\\0.00
 000032,0.00000070,-0.00000058,-0.00000001,-0.00000326,0.00000048,0.000
 00095,0.00000101,-0.00000136,0.00000105,0.00000011,-0.00000014,-0.0000
 0398,0.00000351,-0.00000047,0.00000449,-0.00000316,-0.00000073,-0.0000
 0225,0.00000057,-0.00000044,0.00000055,0.00000277,-0.00000297,0.000000
 99,0.00000060,0.00000905,-0.00000251,0.00000183,-0.00000176,-0.0000023
 8,-0.00000495,-0.00000354,0.00000061,0.00000033,0.00000117,0.00000255,
 0.00000040,-0.00000169,0.00000343,0.00000035,-0.00000107,-0.00000022,0
 .00000464,0.00000702,0.00000097,-0.00000172,-0.00000334,0.00000059,-0.
 00000105,0.00000016,0.00000079,-0.00000152,-0.00000002,-0.00000074,0.0
 0000090,-0.00000064,-0.00000073,0.00000111,0.00000032,-0.00000074,0.00
 000026,-0.00000021,-0.00000134,0.00000186,-0.00000004,-0.00000006,0.00
 000092,0.00000054,0.00000003,-0.00000037,-0.00000088,0.00000030,-0.000
 00148,-0.00000019,-0.00000120,0.00000044,-0.00000010,0.00000007,0.0000
 0075,-0.00000005,-0.00000139,-0.00000013,-0.00000103,0.00000097,-0.000
 00129,-0.00000073,-0.00000077,-0.00000090,0.00000114,0.00000032,-0.000
 00073,0.00000090,-0.00000111,-0.00000007,-0.00000172,-0.00000153,0.000
 00084,-0.00000134,-0.00000245,-0.00000020,-0.00000127,-0.00000176,-0.0
 0000063,-0.00000104,0.00000009,0.00000163,0.00000089,0.00000182,0.0000
 0071,0.00000188,0.00000017,0.00000031,0.00000277,0.00000020,0.00000021
 ,0.00000069,-0.00000048,-0.00000111,-0.00000161,0.00000064,-0.00000104
 ,-0.00000057,0.00000036,-0.00000185,-0.00000017,0.00000024,0.00000139,
 -0.00000010,0.00000091,-0.00000013,0.00000249,0.00000223,-0.00000256,0
 .00000030\\\@


 LENDING MONEY TO FRIENDS CAUSES THEM TO LOSE THEIR MEMORIES.

    --  PETER'S THEORY OF RECIPROCAL INHIBITION OF FISCAL RECALL
 Job cpu time:       0 days 17 hours 19 minutes  7.8 seconds.
 Elapsed time:       0 days  4 hours 19 minutes 49.0 seconds.
 File lengths (MBytes):  RWF=   1081 Int=      0 D2E=      0 Chk=     30 Scr=      1
 Normal termination of Gaussian 16 at Thu May 25 05:50:19 2023.
### All Done ###
