### Starting Gaussian ###
 Entering Gaussian System, Link 0=g16
 Initial command:
 /cluster/software/gaussian/gaussian-16-A.03/avx2/g16/l1.exe "/local/scratch/cz9n3/Gau-21469.inp" -scrdir="/local/scratch/cz9n3/"
 Entering Link 1 = /cluster/software/gaussian/gaussian-16-A.03/avx2/g16/l1.exe PID=     21470.
  
 Copyright (c) 1988,1990,1992,1993,1995,1998,2003,2009,2016,
            Gaussian, Inc.  All Rights Reserved.
  
 This is part of the Gaussian(R) 16 program.  It is based on
 the Gaussian(R) 09 system (copyright 2009, Gaussian, Inc.),
 the Gaussian(R) 03 system (copyright 2003, Gaussian, Inc.),
 the Gaussian(R) 98 system (copyright 1998, Gaussian, Inc.),
 the Gaussian(R) 94 system (copyright 1995, Gaussian, Inc.),
 the Gaussian 92(TM) system (copyright 1992, Gaussian, Inc.),
 the Gaussian 90(TM) system (copyright 1990, Gaussian, Inc.),
 the Gaussian 88(TM) system (copyright 1988, Gaussian, Inc.),
 the Gaussian 86(TM) system (copyright 1986, Carnegie Mellon
 University), and the Gaussian 82(TM) system (copyright 1983,
 Carnegie Mellon University). Gaussian is a federally registered
 trademark of Gaussian, Inc.
  
 This software contains proprietary and confidential information,
 including trade secrets, belonging to Gaussian, Inc.
  
 This software is provided under written license and may be
 used, copied, transmitted, or stored only in accord with that
 written license.
  
 The following legend is applicable only to US Government
 contracts under FAR:
  
                    RESTRICTED RIGHTS LEGEND
  
 Use, reproduction and disclosure by the US Government is
 subject to restrictions as set forth in subparagraphs (a)
 and (c) of the Commercial Computer Software - Restricted
 Rights clause in FAR 52.227-19.
  
 Gaussian, Inc.
 340 Quinnipiac St., Bldg. 40, Wallingford CT 06492
  
  
 ---------------------------------------------------------------
 Warning -- This program may not be used in any manner that
 competes with the business of Gaussian, Inc. or will provide
 assistance to any competitor of Gaussian, Inc.  The licensee
 of this program is prohibited from giving any competitor of
 Gaussian, Inc. access to this program.  By using this program,
 the user acknowledges that Gaussian, Inc. is engaged in the
 business of creating and licensing software in the field of
 computational chemistry and represents and warrants to the
 licensee that it is not a competitor of Gaussian, Inc. and that
 it will not use this program in any manner prohibited above.
 ---------------------------------------------------------------
  

 Cite this work as:
 Gaussian 16, Revision A.03,
 M. J. Frisch, G. W. Trucks, H. B. Schlegel, G. E. Scuseria, 
 M. A. Robb, J. R. Cheeseman, G. Scalmani, V. Barone, 
 G. A. Petersson, H. Nakatsuji, X. Li, M. Caricato, A. V. Marenich, 
 J. Bloino, B. G. Janesko, R. Gomperts, B. Mennucci, H. P. Hratchian, 
 J. V. Ortiz, A. F. Izmaylov, J. L. Sonnenberg, D. Williams-Young, 
 F. Ding, F. Lipparini, F. Egidi, J. Goings, B. Peng, A. Petrone, 
 T. Henderson, D. Ranasinghe, V. G. Zakrzewski, J. Gao, N. Rega, 
 G. Zheng, W. Liang, M. Hada, M. Ehara, K. Toyota, R. Fukuda, 
 J. Hasegawa, M. Ishida, T. Nakajima, Y. Honda, O. Kitao, H. Nakai, 
 T. Vreven, K. Throssell, J. A. Montgomery, Jr., J. E. Peralta, 
 F. Ogliaro, M. J. Bearpark, J. J. Heyd, E. N. Brothers, K. N. Kudin, 
 V. N. Staroverov, T. A. Keith, R. Kobayashi, J. Normand, 
 K. Raghavachari, A. P. Rendell, J. C. Burant, S. S. Iyengar, 
 J. Tomasi, M. Cossi, J. M. Millam, M. Klene, C. Adamo, R. Cammi, 
 J. W. Ochterski, R. L. Martin, K. Morokuma, O. Farkas, 
 J. B. Foresman, and D. J. Fox, Gaussian, Inc., Wallingford CT, 2016.
 
 ******************************************
 Gaussian 16:  ES64L-G16RevA.03 25-Dec-2016
                28-May-2023 
 ******************************************
 %chk=CdCqCCCrCqCCrCqdSrS.chk
 %NProcShared=20
 Will use up to   20 processors via shared memory.
 -----------------------------
 # opt freq b3lyp/6-31g(2df,p)
 -----------------------------
 1/18=20,19=15,26=3,38=1/1,3;
 2/9=110,12=2,17=6,18=5,40=1/2;
 3/5=1,6=6,7=104,11=2,25=1,30=1,71=1,74=-5/1,2,3;
 4//1;
 5/5=2,38=5/2;
 6/7=2,8=2,9=2,10=2,28=1/1;
 7//1,2,3,16;
 1/18=20,19=15,26=3/3(2);
 2/9=110/2;
 99//99;
 2/9=110/2;
 3/5=1,6=6,7=104,11=2,25=1,30=1,71=1,74=-5/1,2,3;
 4/5=5,16=3,69=1/1;
 5/5=2,38=5/2;
 7//1,2,3,16;
 1/18=20,19=15,26=3/3(-5);
 2/9=110/2;
 6/7=2,8=2,9=2,10=2,19=2,28=1/1;
 99/9=1/99;
 -------------------
 Title Card Required
 -------------------
 Symbolic Z-matrix:
 Charge =  0 Multiplicity = 1
 C                     1.03481   0.17645  -0.11445 
 C                     2.38141   0.04006  -0.00303 
 C                     3.02288  -1.15192  -0.66589 
 C                     2.12052  -2.18946  -1.32698 
 C                     2.95435  -3.25868  -2.00192 
 C                     3.27989   1.06083   0.76718 
 C                     2.84814   1.11967   2.27428 
 C                     1.37811   1.42001   2.57594 
 C                     4.88658   1.00993   0.69466 
 S                     5.87909  -0.15872  -0.00622 
 S                     5.81014   2.35716   1.42115 
 H                     0.40644  -0.59105  -0.55397 
 H                     0.47347   1.01796   0.26026 
 H                     3.61547  -1.68612   0.0839 
 H                     3.66203  -0.75865  -1.46506 
 H                     1.48807  -1.71201  -2.08394 
 H                     1.47448  -2.65089  -0.57178 
 H                     3.5924   -2.81923  -2.77575 
 H                     2.29677  -3.99434  -2.46998 
 H                     3.59455  -3.76859  -1.27579 
 H                     3.03833   2.04124   0.3236 
 H                     3.41      1.90045   2.79353 
 H                     3.12011   0.17597   2.7595 
 H                     1.03936   2.32108   2.05166 
 H                     1.22165   1.57636   3.6466 
 H                     0.72917   0.57888   2.31828 
 H                     4.82794   3.07371   1.95989 
 

 GradGradGradGradGradGradGradGradGradGradGradGradGradGradGradGradGradGrad
 Berny optimization.
 Initialization pass.
                           ----------------------------
                           !    Initial Parameters    !
                           ! (Angstroms and Degrees)  !
 --------------------------                            --------------------------
 ! Name  Definition              Value          Derivative Info.                !
 --------------------------------------------------------------------------------
 ! R1    R(1,2)                  1.3581         estimate D2E/DX2                !
 ! R2    R(1,12)                 1.0849         estimate D2E/DX2                !
 ! R3    R(1,13)                 1.0787         estimate D2E/DX2                !
 ! R4    R(2,3)                  1.5072         estimate D2E/DX2                !
 ! R5    R(2,6)                  1.5628         estimate D2E/DX2                !
 ! R6    R(3,4)                  1.5257         estimate D2E/DX2                !
 ! R7    R(3,14)                 1.0949         estimate D2E/DX2                !
 ! R8    R(3,15)                 1.0963         estimate D2E/DX2                !
 ! R9    R(4,5)                  1.5146         estimate D2E/DX2                !
 ! R10   R(4,16)                 1.0959         estimate D2E/DX2                !
 ! R11   R(4,17)                 1.0957         estimate D2E/DX2                !
 ! R12   R(5,18)                 1.095          estimate D2E/DX2                !
 ! R13   R(5,19)                 1.0921         estimate D2E/DX2                !
 ! R14   R(5,20)                 1.0941         estimate D2E/DX2                !
 ! R15   R(6,7)                  1.5688         estimate D2E/DX2                !
 ! R16   R(6,9)                  1.6091         estimate D2E/DX2                !
 ! R17   R(6,21)                 1.1029         estimate D2E/DX2                !
 ! R18   R(7,8)                  1.5304         estimate D2E/DX2                !
 ! R19   R(7,22)                 1.0931         estimate D2E/DX2                !
 ! R20   R(7,23)                 1.0954         estimate D2E/DX2                !
 ! R21   R(8,24)                 1.0962         estimate D2E/DX2                !
 ! R22   R(8,25)                 1.0933         estimate D2E/DX2                !
 ! R23   R(8,26)                 1.0932         estimate D2E/DX2                !
 ! R24   R(9,10)                 1.6858         estimate D2E/DX2                !
 ! R25   R(9,11)                 1.7877         estimate D2E/DX2                !
 ! R26   R(11,27)                1.3298         estimate D2E/DX2                !
 ! A1    A(2,1,12)             122.4442         estimate D2E/DX2                !
 ! A2    A(2,1,13)             124.4596         estimate D2E/DX2                !
 ! A3    A(12,1,13)            113.0283         estimate D2E/DX2                !
 ! A4    A(1,2,3)              117.7329         estimate D2E/DX2                !
 ! A5    A(1,2,6)              123.0169         estimate D2E/DX2                !
 ! A6    A(3,2,6)              119.2492         estimate D2E/DX2                !
 ! A7    A(2,3,4)              118.4672         estimate D2E/DX2                !
 ! A8    A(2,3,14)             108.3634         estimate D2E/DX2                !
 ! A9    A(2,3,15)             106.5606         estimate D2E/DX2                !
 ! A10   A(4,3,14)             106.5617         estimate D2E/DX2                !
 ! A11   A(4,3,15)             105.8368         estimate D2E/DX2                !
 ! A12   A(14,3,15)            111.0204         estimate D2E/DX2                !
 ! A13   A(3,4,5)              110.3376         estimate D2E/DX2                !
 ! A14   A(3,4,16)             110.142          estimate D2E/DX2                !
 ! A15   A(3,4,17)             109.6606         estimate D2E/DX2                !
 ! A16   A(5,4,16)             108.5103         estimate D2E/DX2                !
 ! A17   A(5,4,17)             109.5384         estimate D2E/DX2                !
 ! A18   A(16,4,17)            108.6191         estimate D2E/DX2                !
 ! A19   A(4,5,18)             110.6337         estimate D2E/DX2                !
 ! A20   A(4,5,19)             109.5747         estimate D2E/DX2                !
 ! A21   A(4,5,20)             110.8167         estimate D2E/DX2                !
 ! A22   A(18,5,19)            108.5609         estimate D2E/DX2                !
 ! A23   A(18,5,20)            108.3661         estimate D2E/DX2                !
 ! A24   A(19,5,20)            108.8333         estimate D2E/DX2                !
 ! A25   A(2,6,7)              109.8597         estimate D2E/DX2                !
 ! A26   A(2,6,9)              122.0838         estimate D2E/DX2                !
 ! A27   A(2,6,21)             104.8619         estimate D2E/DX2                !
 ! A28   A(7,6,9)              108.6187         estimate D2E/DX2                !
 ! A29   A(7,6,21)             107.0233         estimate D2E/DX2                !
 ! A30   A(9,6,21)             103.2199         estimate D2E/DX2                !
 ! A31   A(6,7,8)              117.4555         estimate D2E/DX2                !
 ! A32   A(6,7,22)             109.978          estimate D2E/DX2                !
 ! A33   A(6,7,23)             108.9584         estimate D2E/DX2                !
 ! A34   A(8,7,22)             105.0647         estimate D2E/DX2                !
 ! A35   A(8,7,23)             108.677          estimate D2E/DX2                !
 ! A36   A(22,7,23)            106.0996         estimate D2E/DX2                !
 ! A37   A(7,8,24)             111.339          estimate D2E/DX2                !
 ! A38   A(7,8,25)             111.012          estimate D2E/DX2                !
 ! A39   A(7,8,26)             111.8852         estimate D2E/DX2                !
 ! A40   A(24,8,25)            107.8553         estimate D2E/DX2                !
 ! A41   A(24,8,26)            109.6528         estimate D2E/DX2                !
 ! A42   A(25,8,26)            104.8275         estimate D2E/DX2                !
 ! A43   A(6,9,10)             128.9399         estimate D2E/DX2                !
 ! A44   A(6,9,11)             118.274          estimate D2E/DX2                !
 ! A45   A(10,9,11)            112.7817         estimate D2E/DX2                !
 ! A46   A(9,11,27)            100.9023         estimate D2E/DX2                !
 ! D1    D(12,1,2,3)             7.3831         estimate D2E/DX2                !
 ! D2    D(12,1,2,6)          -172.9974         estimate D2E/DX2                !
 ! D3    D(13,1,2,3)          -175.8253         estimate D2E/DX2                !
 ! D4    D(13,1,2,6)             3.7942         estimate D2E/DX2                !
 ! D5    D(1,2,3,4)             -4.6833         estimate D2E/DX2                !
 ! D6    D(1,2,3,14)          -126.1255         estimate D2E/DX2                !
 ! D7    D(1,2,3,15)           114.3359         estimate D2E/DX2                !
 ! D8    D(6,2,3,4)            175.6824         estimate D2E/DX2                !
 ! D9    D(6,2,3,14)            54.2402         estimate D2E/DX2                !
 ! D10   D(6,2,3,15)           -65.2985         estimate D2E/DX2                !
 ! D11   D(1,2,6,7)             60.9502         estimate D2E/DX2                !
 ! D12   D(1,2,6,9)           -170.2144         estimate D2E/DX2                !
 ! D13   D(1,2,6,21)           -53.7517         estimate D2E/DX2                !
 ! D14   D(3,2,6,7)           -119.4358         estimate D2E/DX2                !
 ! D15   D(3,2,6,9)              9.3996         estimate D2E/DX2                !
 ! D16   D(3,2,6,21)           125.8623         estimate D2E/DX2                !
 ! D17   D(2,3,4,5)            176.6892         estimate D2E/DX2                !
 ! D18   D(2,3,4,16)            56.9147         estimate D2E/DX2                !
 ! D19   D(2,3,4,17)           -62.5684         estimate D2E/DX2                !
 ! D20   D(14,3,4,5)           -60.958          estimate D2E/DX2                !
 ! D21   D(14,3,4,16)          179.2676         estimate D2E/DX2                !
 ! D22   D(14,3,4,17)           59.7845         estimate D2E/DX2                !
 ! D23   D(15,3,4,5)            57.2939         estimate D2E/DX2                !
 ! D24   D(15,3,4,16)          -62.4805         estimate D2E/DX2                !
 ! D25   D(15,3,4,17)          178.0363         estimate D2E/DX2                !
 ! D26   D(3,4,5,18)           -60.3726         estimate D2E/DX2                !
 ! D27   D(3,4,5,19)           179.965          estimate D2E/DX2                !
 ! D28   D(3,4,5,20)            59.85           estimate D2E/DX2                !
 ! D29   D(16,4,5,18)           60.3825         estimate D2E/DX2                !
 ! D30   D(16,4,5,19)          -59.2799         estimate D2E/DX2                !
 ! D31   D(16,4,5,20)         -179.3949         estimate D2E/DX2                !
 ! D32   D(17,4,5,18)          178.8119         estimate D2E/DX2                !
 ! D33   D(17,4,5,19)           59.1495         estimate D2E/DX2                !
 ! D34   D(17,4,5,20)          -60.9655         estimate D2E/DX2                !
 ! D35   D(2,6,7,8)            -54.5948         estimate D2E/DX2                !
 ! D36   D(2,6,7,22)          -174.6305         estimate D2E/DX2                !
 ! D37   D(2,6,7,23)            69.4653         estimate D2E/DX2                !
 ! D38   D(9,6,7,8)            169.5466         estimate D2E/DX2                !
 ! D39   D(9,6,7,22)            49.5109         estimate D2E/DX2                !
 ! D40   D(9,6,7,23)           -66.3933         estimate D2E/DX2                !
 ! D41   D(21,6,7,8)            58.7208         estimate D2E/DX2                !
 ! D42   D(21,6,7,22)          -61.3149         estimate D2E/DX2                !
 ! D43   D(21,6,7,23)         -177.2191         estimate D2E/DX2                !
 ! D44   D(2,6,9,10)            -7.721          estimate D2E/DX2                !
 ! D45   D(2,6,9,11)           171.4611         estimate D2E/DX2                !
 ! D46   D(7,6,9,10)           121.6473         estimate D2E/DX2                !
 ! D47   D(7,6,9,11)           -59.1706         estimate D2E/DX2                !
 ! D48   D(21,6,9,10)         -124.9942         estimate D2E/DX2                !
 ! D49   D(21,6,9,11)           54.1879         estimate D2E/DX2                !
 ! D50   D(6,7,8,24)           -51.7797         estimate D2E/DX2                !
 ! D51   D(6,7,8,25)          -171.9576         estimate D2E/DX2                !
 ! D52   D(6,7,8,26)            71.3165         estimate D2E/DX2                !
 ! D53   D(22,7,8,24)           70.8072         estimate D2E/DX2                !
 ! D54   D(22,7,8,25)          -49.3707         estimate D2E/DX2                !
 ! D55   D(22,7,8,26)         -166.0966         estimate D2E/DX2                !
 ! D56   D(23,7,8,24)         -175.9812         estimate D2E/DX2                !
 ! D57   D(23,7,8,25)           63.8409         estimate D2E/DX2                !
 ! D58   D(23,7,8,26)          -52.885          estimate D2E/DX2                !
 ! D59   D(6,9,11,27)            4.2897         estimate D2E/DX2                !
 ! D60   D(10,9,11,27)        -176.4003         estimate D2E/DX2                !
 --------------------------------------------------------------------------------
 Trust Radius=3.00D-01 FncErr=1.00D-07 GrdErr=1.00D-06 EigMax=2.50D+02 EigMin=1.00D-04
 Number of steps in this run=    142 maximum allowed number of steps=    162.
 GradGradGradGradGradGradGradGradGradGradGradGradGradGradGradGradGradGrad

                          Input orientation:                          
 ---------------------------------------------------------------------
 Center     Atomic      Atomic             Coordinates (Angstroms)
 Number     Number       Type             X           Y           Z
 ---------------------------------------------------------------------
      1          6           0        1.034810    0.176450   -0.114450
      2          6           0        2.381410    0.040060   -0.003030
      3          6           0        3.022880   -1.151920   -0.665890
      4          6           0        2.120520   -2.189460   -1.326980
      5          6           0        2.954350   -3.258680   -2.001920
      6          6           0        3.279890    1.060830    0.767180
      7          6           0        2.848140    1.119670    2.274280
      8          6           0        1.378110    1.420010    2.575940
      9          6           0        4.886580    1.009930    0.694660
     10         16           0        5.879090   -0.158720   -0.006220
     11         16           0        5.810140    2.357160    1.421150
     12          1           0        0.406440   -0.591050   -0.553970
     13          1           0        0.473470    1.017960    0.260260
     14          1           0        3.615470   -1.686120    0.083900
     15          1           0        3.662030   -0.758650   -1.465060
     16          1           0        1.488070   -1.712010   -2.083940
     17          1           0        1.474480   -2.650890   -0.571780
     18          1           0        3.592400   -2.819230   -2.775750
     19          1           0        2.296770   -3.994340   -2.469980
     20          1           0        3.594550   -3.768590   -1.275790
     21          1           0        3.038330    2.041240    0.323600
     22          1           0        3.410000    1.900450    2.793530
     23          1           0        3.120110    0.175970    2.759500
     24          1           0        1.039360    2.321080    2.051660
     25          1           0        1.221650    1.576360    3.646600
     26          1           0        0.729170    0.578880    2.318280
     27          1           0        4.827940    3.073710    1.959890
 ---------------------------------------------------------------------
                    Distance matrix (angstroms):
                    1          2          3          4          5
     1  C    0.000000
     2  C    1.358068   0.000000
     3  C    2.453788   1.507210   0.000000
     4  C    2.871676   2.606083   1.525707   0.000000
     5  C    4.364321   3.899424   2.495618   1.514611   0.000000
     6  C    2.569004   1.562838   2.648774   4.036586   5.141212
     7  C    3.143861   2.563111   3.719577   4.944577   6.121039
     8  C    2.983705   3.092242   4.453039   5.367703   6.732865
     9  C    4.023118   2.775481   3.161972   4.687666   5.406116
    10  S    4.857067   3.503325   3.095084   4.471595   4.706025
    11  S    5.469675   4.376463   4.943500   6.468173   7.170119
    12  H    1.084935   2.145307   2.678219   2.467900   3.962910
    13  H    1.078726   2.160057   3.473561   3.939498   5.437083
    14  H    3.188780   2.123713   1.094860   2.116320   2.694563
    15  H    3.098523   2.101299   1.096288   2.107733   2.653145
    16  H    2.765975   2.863214   2.163379   1.095874   2.132813
    17  H    2.897639   2.896068   2.157153   1.095725   2.145862
    18  H    4.753723   4.162933   2.748779   2.159161   1.095005
    19  H    4.953439   4.729629   3.444028   2.143620   1.092102
    20  H    4.843998   4.194930   2.746952   2.160795   1.094134
    21  H    2.771899   2.131420   3.342993   4.633100   5.788285
    22  H    4.131592   3.512805   4.629731   5.947161   7.058369
    23  H    3.550784   2.862817   3.675057   4.826361   5.873280
    24  H    3.048195   3.350508   4.835407   5.738387   7.157683
    25  H    4.017481   4.126143   5.411609   6.302846   7.634503
    26  H    2.484661   2.899777   4.142710   4.784086   6.192126
    27  H    5.204309   4.363668   5.292345   6.770125   7.701003
                    6          7          8          9         10
     6  C    0.000000
     7  C    1.568828   0.000000
     8  C    2.649036   1.530422   0.000000
     9  C    1.609131   2.581178   4.002092   0.000000
    10  S    2.973431   4.002701   5.423906   1.685839   0.000000
    11  S    2.917244   3.321544   4.674899   1.787674   2.893405
    12  H    3.568033   4.109435   3.845106   4.918726   5.516959
    13  H    2.852157   3.115394   2.518411   4.434446   5.538620
    14  H    2.850477   3.641293   4.567722   3.042603   2.732224
    15  H    2.905070   4.263000   5.127624   3.048243   2.720935
    16  H    4.362126   5.372363   5.615703   5.165215   5.100067
    17  H    4.339261   4.919768   5.146810   5.162160   5.092284
    18  H    5.263543   6.447609   7.177383   5.327393   4.469626
    19  H    6.082801   6.997507   7.457911   6.462568   5.797854
    20  H    5.253193   6.087299   6.831544   5.327877   4.456691
    21  H    1.102868   2.165783   2.866233   2.148794   3.608119
    22  H    2.197268   1.093126   2.099225   2.716352   4.263237
    23  H    2.185828   1.095434   2.148463   2.842441   3.920867
    24  H    2.873690   2.182803   1.096152   4.285051   5.814401
    25  H    3.576756   2.176533   1.093269   4.739884   6.168091
    26  H    3.023964   2.187333   1.093166   4.483972   5.698160
    27  H    2.805477   2.799414   3.874993   2.421453   3.926717
                   11         12         13         14         15
    11  S    0.000000
    12  H    6.464752   0.000000
    13  H    5.623270   1.804543   0.000000
    14  H    4.790921   3.450207   4.149134   0.000000
    15  H    4.759502   3.384825   4.037324   1.806003   0.000000
    16  H    6.893772   2.183411   3.738639   3.037438   2.453163
    17  H    6.917390   2.320338   3.892913   2.438142   3.027193
    18  H    7.023343   4.477883   5.802509   3.076048   2.443102
    19  H    8.235667   4.338989   5.991810   3.686347   3.652874
    20  H    7.050329   4.558709   5.917064   2.487142   3.016640
    21  H    2.997891   3.824386   2.762177   3.779386   3.380487
    22  H    2.802264   5.141469   3.977368   4.499755   5.026920
    23  H    3.712820   4.351024   3.736288   3.297210   4.360516
    24  H    4.812399   3.958585   2.286365   5.154229   5.360080
    25  H    5.159120   4.796564   3.512675   5.391380   6.126728
    26  H    5.457415   3.118126   2.119816   4.295743   4.970344
    27  H    1.329813   6.268941   5.106492   5.257890   5.270352
                   16         17         18         19         20
    16  H    0.000000
    17  H    1.779974   0.000000
    18  H    2.476437   3.061275   0.000000
    19  H    2.451949   2.466613   1.775679   0.000000
    20  H    3.052849   2.497915   1.775153   1.778000   0.000000
    21  H    4.720852   5.026273   5.791125   6.691952   6.051574
    22  H    6.366584   5.982161   7.302433   7.980750   6.980791
    23  H    5.448572   4.668690   6.311361   6.739201   5.662880
    24  H    5.793992   5.638462   7.499646   7.868344   7.394931
    25  H    6.612371   5.977315   8.135616   8.342729   7.643891
    26  H    5.020323   4.397653   6.759762   6.804347   6.326787
    27  H    7.100029   7.101133   7.660260   8.717104   7.668634
                   21         22         23         24         25
    21  H    0.000000
    22  H    2.501702   0.000000
    23  H    3.069125   1.749007   0.000000
    24  H    2.657138   2.519372   3.071165   0.000000
    25  H    3.815595   2.370999   2.520355   1.769653   0.000000
    26  H    3.383706   3.026427   2.464469   1.789571   1.732610
    27  H    2.635554   2.020408   3.457305   3.863704   4.253513
                   26         27
    26  H    0.000000
    27  H    4.811708   0.000000
 Stoichiometry    C9H16S2
 Framework group  C1[X(C9H16S2)]
 Deg. of freedom    75
 Full point group                 C1      NOp   1
 Largest Abelian subgroup         C1      NOp   1
 Largest concise Abelian subgroup C1      NOp   1
                         Standard orientation:                         
 ---------------------------------------------------------------------
 Center     Atomic      Atomic             Coordinates (Angstroms)
 Number     Number       Type             X           Y           Z
 ---------------------------------------------------------------------
      1          6           0       -1.437285    2.062653   -0.767138
      2          6           0       -0.871826    0.885190   -0.395407
      3          6           0       -1.792680   -0.256046   -0.047134
      4          6           0       -3.296053    0.003154   -0.025539
      5          6           0       -4.047287   -1.279665    0.264412
      6          6           0        0.674199    0.667958   -0.324142
      7          6           0        1.303936    1.657323    0.717879
      8          6           0        1.016204    3.149565    0.537280
      9          6           0        1.323594   -0.788278   -0.107426
     10         16           0        0.558160   -2.247300    0.249527
     11         16           0        3.095476   -0.958410   -0.272566
     12          1           0       -2.506069    2.239452   -0.707761
     13          1           0       -0.884423    2.927079   -1.099946
     14          1           0       -1.525022   -0.623613    0.948843
     15          1           0       -1.633320   -1.029397   -0.807646
     16          1           0       -3.626629    0.387962   -0.996921
     17          1           0       -3.530848    0.747208    0.743791
     18          1           0       -3.841725   -2.029843   -0.506311
     19          1           0       -5.120896   -1.079973    0.277593
     20          1           0       -3.752794   -1.692031    1.234133
     21          1           0        1.047753    0.965285   -1.318311
     22          1           0        2.393745    1.573993    0.700673
     23          1           0        0.992354    1.359350    1.724906
     24          1           0        1.246462    3.479646   -0.482316
     25          1           0        1.614524    3.750480    1.227319
     26          1           0       -0.021047    3.396632    0.778277
     27          1           0        3.452951    0.308006   -0.464407
 ---------------------------------------------------------------------
 Rotational constants (GHZ):           0.9342881           0.5418060           0.3624897
 Standard basis: 6-31G(2df,p) (6D, 7F)
 There are   429 symmetry adapted cartesian basis functions of A   symmetry.
 There are   396 symmetry adapted basis functions of A   symmetry.
   396 basis functions,   644 primitive gaussians,   429 cartesian basis functions
    51 alpha electrons       51 beta electrons
       nuclear repulsion energy       795.8224502456 Hartrees.
 NAtoms=   27 NActive=   27 NUniq=   27 SFac= 1.00D+00 NAtFMM=   60 NAOKFM=F Big=F
 Integral buffers will be    131072 words long.
 Raffenetti 2 integral format.
 Two-electron integral symmetry is turned on.
 One-electron integrals computed using PRISM.
 PrsmSu:  requested number of processors reduced to:  13 ShMem   1 Linda.
 NBasis=   396 RedAO= T EigKep=  5.20D-04  NBF=   396
 NBsUse=   396 1.00D-06 EigRej= -1.00D+00 NBFU=   396
 ExpMin= 1.17D-01 ExpMax= 2.19D+04 ExpMxC= 3.30D+03 IAcc=3 IRadAn=         5 AccDes= 0.00D+00
 Harris functional with IExCor=  402 and IRadAn=       5 diagonalized for initial guess.
 HarFok:  IExCor=  402 AccDes= 0.00D+00 IRadAn=         5 IDoV= 1 UseB2=F ITyADJ=14
 ICtDFT=  3500011 ScaDFX=  1.000000  1.000000  1.000000  1.000000
 FoFCou: FMM=F IPFlag=           0 FMFlag=      100000 FMFlg1=           0
         NFxFlg=           0 DoJE=T BraDBF=F KetDBF=T FulRan=T
         wScrn=  0.000000 ICntrl=       500 IOpCl=  0 I1Cent=   200000004 NGrid=           0
         NMat0=    1 NMatS0=      1 NMatT0=    0 NMatD0=    1 NMtDS0=    0 NMtDT0=    0
 Petite list used in FoFCou.
 Requested convergence on RMS density matrix=1.00D-08 within 128 cycles.
 Requested convergence on MAX density matrix=1.00D-06.
 Requested convergence on             energy=1.00D-06.
 No special actions if energy rises.
 Integral accuracy reduced to 1.0D-05 until final iterations.
 Initial convergence to 1.0D-05 achieved.  Increase integral accuracy.
 SCF Done:  E(RB3LYP) =  -1148.94696331     A.U. after   14 cycles
            NFock= 14  Conv=0.73D-08     -V/T= 2.0049

 **********************************************************************

            Population analysis using the SCF density.

 **********************************************************************

 Orbital symmetries:
       Occupied  (A) (A) (A) (A) (A) (A) (A) (A) (A) (A) (A) (A)
                 (A) (A) (A) (A) (A) (A) (A) (A) (A) (A) (A) (A)
                 (A) (A) (A) (A) (A) (A) (A) (A) (A) (A) (A) (A)
                 (A) (A) (A) (A) (A) (A) (A) (A) (A) (A) (A) (A)
                 (A) (A) (A)
       Virtual   (A) (A) (A) (A) (A) (A) (A) (A) (A) (A) (A) (A)
                 (A) (A) (A) (A) (A) (A) (A) (A) (A) (A) (A) (A)
                 (A) (A) (A) (A) (A) (A) (A) (A) (A) (A) (A) (A)
                 (A) (A) (A) (A) (A) (A) (A) (A) (A) (A) (A) (A)
                 (A) (A) (A) (A) (A) (A) (A) (A) (A) (A) (A) (A)
                 (A) (A) (A) (A) (A) (A) (A) (A) (A) (A) (A) (A)
                 (A) (A) (A) (A) (A) (A) (A) (A) (A) (A) (A) (A)
                 (A) (A) (A) (A) (A) (A) (A) (A) (A) (A) (A) (A)
                 (A) (A) (A) (A) (A) (A) (A) (A) (A) (A) (A) (A)
                 (A) (A) (A) (A) (A) (A) (A) (A) (A) (A) (A) (A)
                 (A) (A) (A) (A) (A) (A) (A) (A) (A) (A) (A) (A)
                 (A) (A) (A) (A) (A) (A) (A) (A) (A) (A) (A) (A)
                 (A) (A) (A) (A) (A) (A) (A) (A) (A) (A) (A) (A)
                 (A) (A) (A) (A) (A) (A) (A) (A) (A) (A) (A) (A)
                 (A) (A) (A) (A) (A) (A) (A) (A) (A) (A) (A) (A)
                 (A) (A) (A) (A) (A) (A) (A) (A) (A) (A) (A) (A)
                 (A) (A) (A) (A) (A) (A) (A) (A) (A) (A) (A) (A)
                 (A) (A) (A) (A) (A) (A) (A) (A) (A) (A) (A) (A)
                 (A) (A) (A) (A) (A) (A) (A) (A) (A) (A) (A) (A)
                 (A) (A) (A) (A) (A) (A) (A) (A) (A) (A) (A) (A)
                 (A) (A) (A) (A) (A) (A) (A) (A) (A) (A) (A) (A)
                 (A) (A) (A) (A) (A) (A) (A) (A) (A) (A) (A) (A)
                 (A) (A) (A) (A) (A) (A) (A) (A) (A) (A) (A) (A)
                 (A) (A) (A) (A) (A) (A) (A) (A) (A) (A) (A) (A)
                 (A) (A) (A) (A) (A) (A) (A) (A) (A) (A) (A) (A)
                 (A) (A) (A) (A) (A) (A) (A) (A) (A) (A) (A) (A)
                 (A) (A) (A) (A) (A) (A) (A) (A) (A) (A) (A) (A)
                 (A) (A) (A) (A) (A) (A) (A) (A) (A) (A) (A) (A)
                 (A) (A) (A) (A) (A) (A) (A) (A) (A)
 The electronic state is 1-A.
 Alpha  occ. eigenvalues --  -88.90928 -88.85540 -10.30030 -10.23568 -10.20502
 Alpha  occ. eigenvalues --  -10.20370 -10.18328 -10.17273 -10.17271 -10.17203
 Alpha  occ. eigenvalues --  -10.16636  -7.97439  -7.92003  -5.93874  -5.93468
 Alpha  occ. eigenvalues --   -5.93061  -5.88362  -5.88223  -5.87530  -0.85008
 Alpha  occ. eigenvalues --   -0.81062  -0.78612  -0.74845  -0.72201  -0.69731
 Alpha  occ. eigenvalues --   -0.66892  -0.61103  -0.59253  -0.54732  -0.51853
 Alpha  occ. eigenvalues --   -0.48181  -0.47619  -0.46381  -0.43373  -0.42984
 Alpha  occ. eigenvalues --   -0.42584  -0.40043  -0.39727  -0.38672  -0.36771
 Alpha  occ. eigenvalues --   -0.36281  -0.36125  -0.34994  -0.34757  -0.32988
 Alpha  occ. eigenvalues --   -0.32942  -0.32659  -0.31030  -0.25245  -0.24194
 Alpha  occ. eigenvalues --   -0.21866
 Alpha virt. eigenvalues --   -0.08210   0.00386   0.01203   0.04564   0.08752
 Alpha virt. eigenvalues --    0.09605   0.09794   0.11895   0.12417   0.12770
 Alpha virt. eigenvalues --    0.13907   0.14545   0.14991   0.16302   0.16952
 Alpha virt. eigenvalues --    0.17740   0.18415   0.19169   0.19708   0.20152
 Alpha virt. eigenvalues --    0.20543   0.21828   0.22322   0.23210   0.24185
 Alpha virt. eigenvalues --    0.24900   0.25388   0.27772   0.30358   0.32960
 Alpha virt. eigenvalues --    0.33149   0.33917   0.34644   0.34791   0.35994
 Alpha virt. eigenvalues --    0.37577   0.37678   0.40356   0.42805   0.42847
 Alpha virt. eigenvalues --    0.45590   0.46149   0.48337   0.48763   0.48955
 Alpha virt. eigenvalues --    0.50528   0.51345   0.51975   0.53018   0.53388
 Alpha virt. eigenvalues --    0.54132   0.55240   0.55998   0.56862   0.58266
 Alpha virt. eigenvalues --    0.59600   0.61141   0.63142   0.63539   0.64950
 Alpha virt. eigenvalues --    0.65368   0.68181   0.69321   0.71290   0.72397
 Alpha virt. eigenvalues --    0.72918   0.73403   0.74151   0.75097   0.75731
 Alpha virt. eigenvalues --    0.76386   0.76750   0.77040   0.78265   0.78429
 Alpha virt. eigenvalues --    0.78861   0.79588   0.80246   0.81376   0.81731
 Alpha virt. eigenvalues --    0.81947   0.84785   0.86141   0.87256   0.87774
 Alpha virt. eigenvalues --    0.89209   0.90566   0.91184   0.93588   0.94106
 Alpha virt. eigenvalues --    0.95529   0.98972   1.00179   1.01781   1.04346
 Alpha virt. eigenvalues --    1.05566   1.07649   1.10654   1.11491   1.12895
 Alpha virt. eigenvalues --    1.16770   1.18559   1.19229   1.22151   1.23457
 Alpha virt. eigenvalues --    1.24116   1.25510   1.27430   1.28374   1.31225
 Alpha virt. eigenvalues --    1.32433   1.35584   1.36277   1.37347   1.39927
 Alpha virt. eigenvalues --    1.41977   1.43954   1.47348   1.48435   1.49850
 Alpha virt. eigenvalues --    1.50357   1.52440   1.53874   1.55710   1.56485
 Alpha virt. eigenvalues --    1.57318   1.58376   1.60135   1.61106   1.62800
 Alpha virt. eigenvalues --    1.63978   1.65360   1.66209   1.68037   1.68800
 Alpha virt. eigenvalues --    1.69666   1.70074   1.71001   1.73963   1.75549
 Alpha virt. eigenvalues --    1.77028   1.79504   1.81110   1.81839   1.84816
 Alpha virt. eigenvalues --    1.86215   1.86860   1.87682   1.90188   1.91146
 Alpha virt. eigenvalues --    1.93806   1.93861   1.95242   1.95977   1.97257
 Alpha virt. eigenvalues --    1.98188   1.99182   2.02055   2.03385   2.09547
 Alpha virt. eigenvalues --    2.13085   2.13913   2.16094   2.17265   2.18432
 Alpha virt. eigenvalues --    2.18846   2.20074   2.22767   2.24796   2.25946
 Alpha virt. eigenvalues --    2.26942   2.27831   2.29295   2.30359   2.31803
 Alpha virt. eigenvalues --    2.32522   2.34218   2.36980   2.37252   2.39499
 Alpha virt. eigenvalues --    2.41030   2.43666   2.44327   2.48031   2.49892
 Alpha virt. eigenvalues --    2.52710   2.53300   2.54174   2.57574   2.60455
 Alpha virt. eigenvalues --    2.63852   2.65752   2.67078   2.68826   2.71106
 Alpha virt. eigenvalues --    2.73947   2.74731   2.76075   2.76562   2.78343
 Alpha virt. eigenvalues --    2.78614   2.81349   2.81899   2.83597   2.86128
 Alpha virt. eigenvalues --    2.86356   2.86958   2.87609   2.89054   2.90695
 Alpha virt. eigenvalues --    2.91198   2.94137   2.94548   2.95943   2.97269
 Alpha virt. eigenvalues --    2.98523   2.99330   3.01718   3.03725   3.04751
 Alpha virt. eigenvalues --    3.06979   3.08613   3.09172   3.12856   3.14916
 Alpha virt. eigenvalues --    3.15230   3.19248   3.21333   3.24047   3.24098
 Alpha virt. eigenvalues --    3.25121   3.26267   3.28822   3.31393   3.32092
 Alpha virt. eigenvalues --    3.35048   3.37350   3.38591   3.41501   3.41995
 Alpha virt. eigenvalues --    3.45196   3.47950   3.48206   3.51734   3.53489
 Alpha virt. eigenvalues --    3.54024   3.55289   3.58313   3.60713   3.61715
 Alpha virt. eigenvalues --    3.63351   3.64319   3.64720   3.66668   3.70727
 Alpha virt. eigenvalues --    3.71049   3.74553   3.75775   3.76590   3.77464
 Alpha virt. eigenvalues --    3.80771   3.82175   3.83210   3.84176   3.88861
 Alpha virt. eigenvalues --    3.91945   3.96346   3.97651   4.00761   4.02502
 Alpha virt. eigenvalues --    4.03195   4.06026   4.09395   4.11791   4.19548
 Alpha virt. eigenvalues --    4.23707   4.28084   4.32013   4.37025   4.39920
 Alpha virt. eigenvalues --    4.40217   4.43281   4.44577   4.46236   4.47515
 Alpha virt. eigenvalues --    4.48717   4.50041   4.51554   4.53025   4.53602
 Alpha virt. eigenvalues --    4.55252   4.59132   4.60148   4.61152   4.61426
 Alpha virt. eigenvalues --    4.62775   4.64666   4.66305   4.69139   4.70048
 Alpha virt. eigenvalues --    4.71570   4.72004   4.74657   4.75847   4.76643
 Alpha virt. eigenvalues --    4.77589   4.78624   4.80394   4.81363   4.83116
 Alpha virt. eigenvalues --    4.85868   4.86490   4.86962   4.87959   4.89900
 Alpha virt. eigenvalues --    4.91201   4.94685   4.96113   5.00431   5.07005
 Alpha virt. eigenvalues --    5.12653   5.15139   5.22553   5.23540   5.30064
 Alpha virt. eigenvalues --    5.36013   5.37585   5.42706   5.45933   5.47471
 Alpha virt. eigenvalues --    5.51324   5.59794   5.74350   5.82635   6.02468
 Alpha virt. eigenvalues --    6.37806  10.47630  11.02841  11.35292  11.48491
 Alpha virt. eigenvalues --   11.67658  12.00276  12.25436  12.52596  12.62478
          Condensed to atoms (all electrons):
               1          2          3          4          5          6
     1  C    5.165644   0.641083  -0.053271  -0.021108   0.000436  -0.044983
     2  C    0.641083   4.417335   0.447981  -0.023161   0.002449   0.369988
     3  C   -0.053271   0.447981   4.865941   0.398964  -0.037658  -0.058612
     4  C   -0.021108  -0.023161   0.398964   4.862874   0.410475   0.004507
     5  C    0.000436   0.002449  -0.037658   0.410475   4.957504  -0.000121
     6  C   -0.044983   0.369988  -0.058612   0.004507  -0.000121   5.040294
     7  C   -0.007983  -0.023980   0.000534  -0.000044   0.000001   0.371205
     8  C   -0.008880  -0.010302  -0.000013  -0.000001  -0.000000  -0.024916
     9  C    0.003059  -0.022882  -0.007648   0.000136  -0.000002   0.369919
    10  S    0.000045  -0.011743  -0.016332   0.001811   0.000407  -0.036173
    11  S   -0.000184   0.003021   0.000040   0.000004   0.000000  -0.038357
    12  H    0.356335  -0.001514  -0.022412   0.006948  -0.000283   0.004502
    13  H    0.352027  -0.011671   0.007308   0.000161  -0.000012  -0.009934
    14  H    0.003613  -0.026886   0.367297  -0.045472  -0.003669  -0.001976
    15  H    0.000724  -0.012623   0.359864  -0.044440  -0.005136  -0.003953
    16  H    0.003827  -0.005218  -0.021879   0.359944  -0.037398   0.000027
    17  H    0.002378  -0.001712  -0.024157   0.360146  -0.037884  -0.000120
    18  H    0.000014   0.000237  -0.003833  -0.028257   0.377836  -0.000000
    19  H    0.000004  -0.000136   0.002904  -0.022854   0.372910   0.000002
    20  H    0.000017   0.000197  -0.003240  -0.028688   0.377582  -0.000004
    21  H   -0.006674  -0.023629   0.003912  -0.000110   0.000002   0.336379
    22  H    0.000302   0.002598  -0.000116   0.000002  -0.000000  -0.033141
    23  H    0.000540  -0.004605   0.000574  -0.000048   0.000000  -0.031814
    24  H   -0.000916  -0.002022  -0.000013  -0.000001   0.000000  -0.004045
    25  H    0.000364   0.000579   0.000004  -0.000000   0.000000   0.003174
    26  H    0.006552   0.002751  -0.000078  -0.000003   0.000000  -0.003101
    27  H    0.000006   0.000251   0.000001  -0.000000  -0.000000   0.000978
               7          8          9         10         11         12
     1  C   -0.007983  -0.008880   0.003059   0.000045  -0.000184   0.356335
     2  C   -0.023980  -0.010302  -0.022882  -0.011743   0.003021  -0.001514
     3  C    0.000534  -0.000013  -0.007648  -0.016332   0.000040  -0.022412
     4  C   -0.000044  -0.000001   0.000136   0.001811   0.000004   0.006948
     5  C    0.000001  -0.000000  -0.000002   0.000407   0.000000  -0.000283
     6  C    0.371205  -0.024916   0.369919  -0.036173  -0.038357   0.004502
     7  C    4.825432   0.403906  -0.026625  -0.000137  -0.007130   0.000165
     8  C    0.403906   4.990545   0.002299  -0.000152  -0.000013   0.000078
     9  C   -0.026625   0.002299   4.716632   0.498548   0.322557  -0.000056
    10  S   -0.000137  -0.000152   0.498548  15.964429  -0.108660  -0.000006
    11  S   -0.007130  -0.000013   0.322557  -0.108660  15.691184   0.000002
    12  H    0.000165   0.000078  -0.000056  -0.000006   0.000002   0.576431
    13  H   -0.001332  -0.000555  -0.000012   0.000008   0.000002  -0.048426
    14  H    0.000282   0.000063   0.000124  -0.003631  -0.000042   0.000498
    15  H    0.000037  -0.000007   0.000169  -0.003037  -0.000027   0.000535
    16  H    0.000000   0.000002  -0.000001  -0.000065  -0.000000   0.003881
    17  H    0.000010  -0.000010   0.000000  -0.000067  -0.000000   0.003659
    18  H    0.000000  -0.000000  -0.000001  -0.000001   0.000000   0.000023
    19  H   -0.000000   0.000000  -0.000000   0.000000  -0.000000   0.000021
    20  H   -0.000000   0.000000  -0.000000   0.000023   0.000000   0.000014
    21  H   -0.037785  -0.005065  -0.033800   0.003239  -0.000347  -0.000183
    22  H    0.364335  -0.039934  -0.003794  -0.000224   0.001225   0.000009
    23  H    0.372937  -0.039287  -0.002470   0.001853   0.001656  -0.000005
    24  H   -0.029251   0.375884   0.000128   0.000006   0.000077   0.000067
    25  H   -0.021613   0.366547  -0.000078   0.000003   0.000010  -0.000027
    26  H   -0.024012   0.377278  -0.000059   0.000004   0.000002   0.000800
    27  H   -0.002523   0.000031  -0.008613   0.004861   0.256249   0.000000
              13         14         15         16         17         18
     1  C    0.352027   0.003613   0.000724   0.003827   0.002378   0.000014
     2  C   -0.011671  -0.026886  -0.012623  -0.005218  -0.001712   0.000237
     3  C    0.007308   0.367297   0.359864  -0.021879  -0.024157  -0.003833
     4  C    0.000161  -0.045472  -0.044440   0.359944   0.360146  -0.028257
     5  C   -0.000012  -0.003669  -0.005136  -0.037398  -0.037884   0.377836
     6  C   -0.009934  -0.001976  -0.003953   0.000027  -0.000120  -0.000000
     7  C   -0.001332   0.000282   0.000037   0.000000   0.000010   0.000000
     8  C   -0.000555   0.000063  -0.000007   0.000002  -0.000010  -0.000000
     9  C   -0.000012   0.000124   0.000169  -0.000001   0.000000  -0.000001
    10  S    0.000008  -0.003631  -0.003037  -0.000065  -0.000067  -0.000001
    11  S    0.000002  -0.000042  -0.000027  -0.000000  -0.000000   0.000000
    12  H   -0.048426   0.000498   0.000535   0.003881   0.003659   0.000023
    13  H    0.604603  -0.000175  -0.000234   0.000012  -0.000012   0.000000
    14  H   -0.000175   0.624151  -0.037043   0.006665  -0.006951  -0.000337
    15  H   -0.000234  -0.037043   0.613725  -0.006506   0.006658   0.005681
    16  H    0.000012   0.006665  -0.006506   0.645214  -0.043799  -0.004752
    17  H   -0.000012  -0.006951   0.006658  -0.043799   0.649461   0.005745
    18  H    0.000000  -0.000337   0.005681  -0.004752   0.005745   0.595981
    19  H   -0.000000  -0.000025   0.000002  -0.002519  -0.002593  -0.031776
    20  H    0.000000   0.004981  -0.000320   0.005746  -0.004337  -0.032185
    21  H    0.002700  -0.000021  -0.000176  -0.000006   0.000001  -0.000000
    22  H   -0.000109  -0.000031   0.000005  -0.000000   0.000000  -0.000000
    23  H    0.000196   0.000309   0.000010  -0.000000   0.000004  -0.000000
    24  H    0.003212   0.000000   0.000001  -0.000000   0.000000  -0.000000
    25  H    0.000247  -0.000002   0.000000  -0.000000   0.000000   0.000000
    26  H   -0.001979  -0.000053   0.000006  -0.000002   0.000019  -0.000000
    27  H   -0.000002   0.000001   0.000001   0.000000   0.000000   0.000000
              19         20         21         22         23         24
     1  C    0.000004   0.000017  -0.006674   0.000302   0.000540  -0.000916
     2  C   -0.000136   0.000197  -0.023629   0.002598  -0.004605  -0.002022
     3  C    0.002904  -0.003240   0.003912  -0.000116   0.000574  -0.000013
     4  C   -0.022854  -0.028688  -0.000110   0.000002  -0.000048  -0.000001
     5  C    0.372910   0.377582   0.000002  -0.000000   0.000000   0.000000
     6  C    0.000002  -0.000004   0.336379  -0.033141  -0.031814  -0.004045
     7  C   -0.000000  -0.000000  -0.037785   0.364335   0.372937  -0.029251
     8  C    0.000000   0.000000  -0.005065  -0.039934  -0.039287   0.375884
     9  C   -0.000000  -0.000000  -0.033800  -0.003794  -0.002470   0.000128
    10  S    0.000000   0.000023   0.003239  -0.000224   0.001853   0.000006
    11  S   -0.000000   0.000000  -0.000347   0.001225   0.001656   0.000077
    12  H    0.000021   0.000014  -0.000183   0.000009  -0.000005   0.000067
    13  H   -0.000000   0.000000   0.002700  -0.000109   0.000196   0.003212
    14  H   -0.000025   0.004981  -0.000021  -0.000031   0.000309   0.000000
    15  H    0.000002  -0.000320  -0.000176   0.000005   0.000010   0.000001
    16  H   -0.002519   0.005746  -0.000006  -0.000000  -0.000000  -0.000000
    17  H   -0.002593  -0.004337   0.000001   0.000000   0.000004   0.000000
    18  H   -0.031776  -0.032185  -0.000000  -0.000000  -0.000000  -0.000000
    19  H    0.609599  -0.031640  -0.000000   0.000000  -0.000000  -0.000000
    20  H   -0.031640   0.596641   0.000000   0.000000  -0.000000  -0.000000
    21  H   -0.000000   0.000000   0.629417  -0.005150   0.006008   0.004475
    22  H    0.000000   0.000000  -0.005150   0.650578  -0.036484  -0.002270
    23  H   -0.000000  -0.000000   0.006008  -0.036484   0.610743   0.005359
    24  H   -0.000000  -0.000000   0.004475  -0.002270   0.005359   0.597975
    25  H   -0.000000   0.000000   0.000077  -0.005519  -0.000681  -0.030715
    26  H    0.000000   0.000000  -0.000076   0.005686  -0.004641  -0.032747
    27  H   -0.000000   0.000000   0.000024   0.004581  -0.000208  -0.000003
              25         26         27
     1  C    0.000364   0.006552   0.000006
     2  C    0.000579   0.002751   0.000251
     3  C    0.000004  -0.000078   0.000001
     4  C   -0.000000  -0.000003  -0.000000
     5  C    0.000000   0.000000  -0.000000
     6  C    0.003174  -0.003101   0.000978
     7  C   -0.021613  -0.024012  -0.002523
     8  C    0.366547   0.377278   0.000031
     9  C   -0.000078  -0.000059  -0.008613
    10  S    0.000003   0.000004   0.004861
    11  S    0.000010   0.000002   0.256249
    12  H   -0.000027   0.000800   0.000000
    13  H    0.000247  -0.001979  -0.000002
    14  H   -0.000002  -0.000053   0.000001
    15  H    0.000000   0.000006   0.000001
    16  H   -0.000000  -0.000002   0.000000
    17  H    0.000000   0.000019   0.000000
    18  H    0.000000  -0.000000   0.000000
    19  H   -0.000000   0.000000  -0.000000
    20  H    0.000000   0.000000   0.000000
    21  H    0.000077  -0.000076   0.000024
    22  H   -0.005519   0.005686   0.004581
    23  H   -0.000681  -0.004641  -0.000208
    24  H   -0.030715  -0.032747  -0.000003
    25  H    0.606418  -0.032144  -0.000004
    26  H   -0.032144   0.567448  -0.000001
    27  H   -0.000004  -0.000001   0.597723
 Mulliken charges:
               1
     1  C   -0.392971
     2  C    0.293614
     3  C   -0.206064
     4  C   -0.191782
     5  C   -0.377439
     6  C   -0.209725
     7  C   -0.156429
     8  C   -0.387498
     9  C    0.192469
    10  S   -0.295010
    11  S   -0.121269
    12  H    0.118943
    13  H    0.103978
    14  H    0.118330
    15  H    0.126084
    16  H    0.096827
    17  H    0.093560
    18  H    0.115625
    19  H    0.106101
    20  H    0.115213
    21  H    0.126789
    22  H    0.097450
    23  H    0.120052
    24  H    0.114797
    25  H    0.113358
    26  H    0.138352
    27  H    0.146646
 Sum of Mulliken charges =  -0.00000
 Mulliken charges with hydrogens summed into heavy atoms:
               1
     1  C   -0.170050
     2  C    0.293614
     3  C    0.038350
     4  C   -0.001395
     5  C   -0.040500
     6  C   -0.082936
     7  C    0.061073
     8  C   -0.020991
     9  C    0.192469
    10  S   -0.295010
    11  S    0.025377
 Electronic spatial extent (au):  <R**2>=           3103.7695
 Charge=             -0.0000 electrons
 Dipole moment (field-independent basis, Debye):
    X=              0.5864    Y=              3.1409    Z=             -0.3074  Tot=              3.2099
 Quadrupole moment (field-independent basis, Debye-Ang):
   XX=            -80.0181   YY=            -88.0434   ZZ=            -84.1877
   XY=              5.4721   XZ=             -1.2922   YZ=              0.5085
 Traceless Quadrupole moment (field-independent basis, Debye-Ang):
   XX=              4.0650   YY=             -3.9603   ZZ=             -0.1046
   XY=              5.4721   XZ=             -1.2922   YZ=              0.5085
 Octapole moment (field-independent basis, Debye-Ang**2):
  XXX=             17.9099  YYY=             14.1999  ZZZ=              3.4463  XYY=             -3.8387
  XXY=             14.8383  XXZ=             -4.6731  XZZ=             -0.2073  YZZ=              0.7669
  YYZ=             -1.1910  XYZ=             -1.0403
 Hexadecapole moment (field-independent basis, Debye-Ang**3):
 XXXX=          -2479.0793 YYYY=          -1512.9853 ZZZZ=           -224.4237 XXXY=             15.6023
 XXXZ=            -12.2447 YYYX=             17.9914 YYYZ=              1.3030 ZZZX=             -3.6805
 ZZZY=              3.0355 XXYY=           -691.1168 XXZZ=           -470.7226 YYZZ=           -282.8466
 XXYZ=              1.4577 YYXZ=              2.8983 ZZXY=             10.3702
 N-N= 7.958224502456D+02 E-N=-4.299197642675D+03  KE= 1.143289263068D+03
 PrsmSu:  requested number of processors reduced to:  13 ShMem   1 Linda.
 Calling FoFJK, ICntrl=      2127 FMM=F ISym2X=0 I1Cent= 0 IOpClX= 0 NMat=1 NMatS=1 NMatT=0.
 ***** Axes restored to original set *****
 -------------------------------------------------------------------
 Center     Atomic                   Forces (Hartrees/Bohr)
 Number     Number              X              Y              Z
 -------------------------------------------------------------------
      1        6           0.019142713    0.005991397    0.005693397
      2        6          -0.013950432   -0.005662351   -0.005432464
      3        6          -0.005580806   -0.002511630    0.000617297
      4        6          -0.004104100    0.005989078    0.002855305
      5        6           0.000407806   -0.004388818   -0.002223543
      6        6           0.002667617    0.006805109   -0.000362941
      7        6           0.001492890    0.000331241    0.005997548
      8        6          -0.005155838   -0.004419831    0.000356327
      9        6          -0.001763522   -0.019434759   -0.011100423
     10       16          -0.014816426    0.025167657    0.015450437
     11       16          -0.002100980   -0.014322684   -0.009610557
     12        1           0.005638416    0.000699406   -0.003380453
     13        1           0.001999286    0.003846828    0.000342442
     14        1           0.007552358    0.002631378   -0.005511052
     15        1           0.007525859   -0.003627127    0.006168354
     16        1          -0.002939469   -0.000182004    0.001671285
     17        1          -0.003446634    0.000429385   -0.001196144
     18        1           0.000866090   -0.001769471   -0.000346715
     19        1           0.002025651   -0.003168052   -0.001694647
     20        1           0.001151128   -0.001692604   -0.001274972
     21        1           0.001912011   -0.000042681    0.003157947
     22        1           0.004906133   -0.001621995   -0.002163520
     23        1           0.001592482   -0.000870215   -0.001115562
     24        1          -0.001530117   -0.001220883    0.000821094
     25        1           0.004975580    0.002854418    0.001895334
     26        1           0.000473872    0.003412215   -0.002455456
     27        1          -0.008941569    0.006776991    0.002841680
 -------------------------------------------------------------------
 Cartesian Forces:  Max     0.025167657 RMS     0.006487145

 GradGradGradGradGradGradGradGradGradGradGradGradGradGradGradGradGradGrad
 Berny optimization.
 FormGI is forming the generalized inverse of G from B-inverse, IUseBI=4.
 Internal  Forces:  Max     0.032593173 RMS     0.006602008
 Search for a local minimum.
 Step number   1 out of a maximum of  142
 All quantities printed in internal units (Hartrees-Bohrs-Radians)
 Mixed Optimization -- RFO/linear search
 Second derivative matrix not updated -- first step.
 ITU=  0
     Eigenvalues ---    0.00230   0.00230   0.00230   0.00289   0.00364
     Eigenvalues ---    0.00426   0.00533   0.00573   0.00671   0.01000
     Eigenvalues ---    0.02643   0.02651   0.03044   0.03235   0.03753
     Eigenvalues ---    0.03926   0.04670   0.05032   0.05313   0.05527
     Eigenvalues ---    0.05570   0.05675   0.05723   0.05838   0.05946
     Eigenvalues ---    0.07964   0.09111   0.10072   0.11902   0.12748
     Eigenvalues ---    0.13325   0.16000   0.16000   0.16000   0.16000
     Eigenvalues ---    0.16000   0.16000   0.16000   0.16000   0.16000
     Eigenvalues ---    0.17561   0.20565   0.21935   0.21990   0.22255
     Eigenvalues ---    0.23177   0.24999   0.24999   0.25000   0.25000
     Eigenvalues ---    0.26110   0.26588   0.27112   0.27254   0.29384
     Eigenvalues ---    0.29823   0.30892   0.31632   0.33367   0.34096
     Eigenvalues ---    0.34111   0.34143   0.34159   0.34192   0.34241
     Eigenvalues ---    0.34257   0.34339   0.34438   0.34449   0.34454
     Eigenvalues ---    0.34571   0.35405   0.36149   0.37650   0.53340
 RFO step:  Lambda=-2.70703351D-02 EMin= 2.30000000D-03
 Linear search not attempted -- first point.
 Iteration  1 RMS(Cart)=  0.18737474 RMS(Int)=  0.00757730
 Iteration  2 RMS(Cart)=  0.01406105 RMS(Int)=  0.00044666
 Iteration  3 RMS(Cart)=  0.00008582 RMS(Int)=  0.00044478
 Iteration  4 RMS(Cart)=  0.00000003 RMS(Int)=  0.00044478
 Variable       Old X    -DE/DX   Delta X   Delta X   Delta X     New X
                                 (Linear)    (Quad)   (Total)
    R1        2.56638  -0.02571   0.00000  -0.04588  -0.04588   2.52050
    R2        2.05023  -0.00239   0.00000  -0.00627  -0.00627   2.04396
    R3        2.03850   0.00208   0.00000   0.00535   0.00535   2.04385
    R4        2.84822   0.00844   0.00000   0.02458   0.02458   2.87279
    R5        2.95333  -0.00531   0.00000  -0.01811  -0.01811   2.93522
    R6        2.88317   0.00778   0.00000   0.02392   0.02392   2.90709
    R7        2.06898  -0.00097   0.00000  -0.00262  -0.00262   2.06636
    R8        2.07168  -0.00141   0.00000  -0.00383  -0.00383   2.06785
    R9        2.86220   0.01270   0.00000   0.03779   0.03779   2.90000
   R10        2.07090   0.00046   0.00000   0.00126   0.00126   2.07216
   R11        2.07062   0.00103   0.00000   0.00278   0.00278   2.07340
   R12        2.06926   0.00004   0.00000   0.00011   0.00011   2.06937
   R13        2.06377   0.00164   0.00000   0.00440   0.00440   2.06817
   R14        2.06761   0.00062   0.00000   0.00166   0.00166   2.06928
   R15        2.96465   0.00129   0.00000   0.00447   0.00447   2.96912
   R16        3.04082  -0.02741   0.00000  -0.10591  -0.10591   2.93490
   R17        2.08412  -0.00173   0.00000  -0.00479  -0.00479   2.07933
   R18        2.89208   0.00143   0.00000   0.00447   0.00447   2.89655
   R19        2.06571   0.00034   0.00000   0.00090   0.00090   2.06661
   R20        2.07007   0.00065   0.00000   0.00176   0.00176   2.07183
   R21        2.07143  -0.00092   0.00000  -0.00251  -0.00251   2.06892
   R22        2.06598   0.00155   0.00000   0.00418   0.00418   2.07016
   R23        2.06578  -0.00233   0.00000  -0.00626  -0.00626   2.05952
   R24        3.18577  -0.03259   0.00000  -0.08076  -0.08076   3.10501
   R25        3.37821  -0.01414   0.00000  -0.04743  -0.04743   3.33079
   R26        2.51298   0.01141   0.00000   0.03807   0.03807   2.55106
    A1        2.13705  -0.00405   0.00000  -0.02074  -0.02170   2.11536
    A2        2.17223  -0.00135   0.00000  -0.00632  -0.00728   2.16495
    A3        1.97272   0.00558   0.00000   0.03073   0.02978   2.00249
    A4        2.05483   0.00588   0.00000   0.02116   0.02097   2.07579
    A5        2.14705  -0.02011   0.00000  -0.07263  -0.07276   2.07429
    A6        2.08129   0.01422   0.00000   0.05127   0.05106   2.13235
    A7        2.06764  -0.00894   0.00000  -0.02585  -0.02569   2.04196
    A8        1.89130   0.00303   0.00000   0.01430   0.01445   1.90575
    A9        1.85983   0.00324   0.00000   0.02103   0.02119   1.88102
   A10        1.85985   0.00427   0.00000   0.02119   0.02128   1.88114
   A11        1.84720   0.00490   0.00000   0.03020   0.03031   1.87751
   A12        1.93767  -0.00717   0.00000  -0.06819  -0.06816   1.86951
   A13        1.92575   0.00309   0.00000   0.01803   0.01791   1.94366
   A14        1.92234  -0.00100   0.00000  -0.00220  -0.00238   1.91996
   A15        1.91394  -0.00004   0.00000   0.00261   0.00257   1.91651
   A16        1.89386   0.00036   0.00000   0.00817   0.00810   1.90196
   A17        1.91180  -0.00110   0.00000  -0.00373  -0.00378   1.90802
   A18        1.89576  -0.00137   0.00000  -0.02352  -0.02351   1.87225
   A19        1.93092   0.00151   0.00000   0.00770   0.00762   1.93855
   A20        1.91244   0.00462   0.00000   0.02577   0.02561   1.93804
   A21        1.93412   0.00198   0.00000   0.00989   0.00980   1.94392
   A22        1.89474  -0.00286   0.00000  -0.01392  -0.01407   1.88068
   A23        1.89135  -0.00223   0.00000  -0.01398  -0.01399   1.87736
   A24        1.89950  -0.00327   0.00000  -0.01680  -0.01696   1.88254
   A25        1.91741   0.01310   0.00000   0.06431   0.06372   1.98113
   A26        2.13077   0.00145   0.00000   0.00421   0.00525   2.13601
   A27        1.83018  -0.00246   0.00000   0.00803   0.00665   1.83684
   A28        1.89575  -0.01437   0.00000  -0.06583  -0.06581   1.82994
   A29        1.86791   0.00222   0.00000   0.02318   0.02098   1.88889
   A30        1.80153   0.00005   0.00000  -0.03295  -0.03275   1.76878
   A31        2.04999   0.00990   0.00000   0.04434   0.04434   2.09433
   A32        1.91948  -0.00602   0.00000  -0.03896  -0.03948   1.88000
   A33        1.90168  -0.00411   0.00000  -0.02024  -0.02101   1.88067
   A34        1.83373  -0.00001   0.00000   0.01195   0.01252   1.84625
   A35        1.89677  -0.00136   0.00000   0.00817   0.00827   1.90504
   A36        1.85179   0.00105   0.00000  -0.00893  -0.00971   1.84208
   A37        1.94323   0.00282   0.00000   0.01117   0.01106   1.95430
   A38        1.93752  -0.00718   0.00000  -0.03873  -0.03867   1.89886
   A39        1.95277   0.00197   0.00000   0.01474   0.01480   1.96756
   A40        1.88243   0.00082   0.00000  -0.00362  -0.00372   1.87871
   A41        1.91380  -0.00259   0.00000  -0.01321  -0.01330   1.90050
   A42        1.82958   0.00413   0.00000   0.02967   0.02989   1.85947
   A43        2.25043   0.01678   0.00000   0.06042   0.06011   2.31054
   A44        2.06427  -0.01634   0.00000  -0.05912  -0.05938   2.00489
   A45        1.96841  -0.00046   0.00000  -0.00181  -0.00206   1.96636
   A46        1.76108  -0.00132   0.00000  -0.00704  -0.00704   1.75403
    D1        0.12886  -0.00271   0.00000  -0.04467  -0.04527   0.08359
    D2       -3.01937  -0.00397   0.00000  -0.08002  -0.07939  -3.09877
    D3       -3.06873   0.00198   0.00000   0.04284   0.04221  -3.02652
    D4        0.06622   0.00072   0.00000   0.00749   0.00809   0.07432
    D5       -0.08174  -0.00098   0.00000  -0.01868  -0.01935  -0.10109
    D6       -2.20130  -0.00283   0.00000  -0.04058  -0.04126  -2.24256
    D7        1.99554   0.00224   0.00000   0.02069   0.02002   2.01555
    D8        3.06624   0.00036   0.00000   0.01577   0.01645   3.08269
    D9        0.94667  -0.00149   0.00000  -0.00613  -0.00546   0.94121
   D10       -1.13967   0.00358   0.00000   0.05514   0.05581  -1.08386
   D11        1.06378   0.00985   0.00000   0.20692   0.20656   1.27035
   D12       -2.97080   0.00366   0.00000   0.18095   0.18083  -2.78998
   D13       -0.93814   0.00256   0.00000   0.14644   0.14607  -0.79207
   D14       -2.08455   0.00854   0.00000   0.17095   0.17116  -1.91339
   D15        0.16405   0.00235   0.00000   0.14497   0.14542   0.30947
   D16        2.19671   0.00125   0.00000   0.11047   0.11066   2.30738
   D17        3.08381   0.00101   0.00000   0.01754   0.01752   3.10132
   D18        0.99335  -0.00075   0.00000  -0.00264  -0.00263   0.99072
   D19       -1.09202   0.00158   0.00000   0.02606   0.02607  -1.06595
   D20       -1.06392   0.00237   0.00000   0.03622   0.03617  -1.02774
   D21        3.12881   0.00061   0.00000   0.01605   0.01602  -3.13835
   D22        1.04344   0.00294   0.00000   0.04474   0.04473   1.08816
   D23        0.99997  -0.00141   0.00000  -0.01713  -0.01712   0.98284
   D24       -1.09049  -0.00317   0.00000  -0.03731  -0.03727  -1.12776
   D25        3.10732  -0.00084   0.00000  -0.00861  -0.00857   3.09875
   D26       -1.05370   0.00038   0.00000   0.00277   0.00275  -1.05095
   D27        3.14098   0.00005   0.00000  -0.00120  -0.00124   3.13974
   D28        1.04458  -0.00012   0.00000  -0.00321  -0.00330   1.04128
   D29        1.05387   0.00126   0.00000   0.01621   0.01630   1.07017
   D30       -1.03463   0.00092   0.00000   0.01225   0.01230  -1.02233
   D31       -3.13103   0.00075   0.00000   0.01023   0.01024  -3.12079
   D32        3.12086  -0.00082   0.00000  -0.00950  -0.00947   3.11139
   D33        1.03235  -0.00115   0.00000  -0.01347  -0.01347   1.01889
   D34       -1.06405  -0.00132   0.00000  -0.01548  -0.01552  -1.07957
   D35       -0.95286  -0.00234   0.00000  -0.05542  -0.05630  -1.00916
   D36       -3.04788  -0.00458   0.00000  -0.07177  -0.07202  -3.11990
   D37        1.21240  -0.00013   0.00000  -0.02772  -0.02888   1.18352
   D38        2.95915  -0.00308   0.00000  -0.05921  -0.05913   2.90002
   D39        0.86413  -0.00532   0.00000  -0.07556  -0.07485   0.78928
   D40       -1.15878  -0.00088   0.00000  -0.03151  -0.03170  -1.19049
   D41        1.02487   0.00235   0.00000  -0.00239  -0.00194   1.02293
   D42       -1.07015   0.00011   0.00000  -0.01874  -0.01767  -1.08781
   D43       -3.09306   0.00456   0.00000   0.02531   0.02548  -3.06758
   D44       -0.13476  -0.00384   0.00000  -0.05611  -0.05608  -0.19083
   D45        2.99256  -0.00529   0.00000  -0.10350  -0.10392   2.88864
   D46        2.12315   0.00176   0.00000  -0.02625  -0.02656   2.09659
   D47       -1.03272   0.00031   0.00000  -0.07364  -0.07440  -1.10712
   D48       -2.18156  -0.00148   0.00000  -0.04194  -0.04099  -2.22255
   D49        0.94576  -0.00294   0.00000  -0.08933  -0.08883   0.85693
   D50       -0.90373   0.00014   0.00000   0.00337   0.00337  -0.90036
   D51       -3.00123   0.00206   0.00000   0.02661   0.02651  -2.97472
   D52        1.24471   0.00027   0.00000   0.00512   0.00519   1.24990
   D53        1.23582  -0.00125   0.00000  -0.00904  -0.00881   1.22701
   D54       -0.86168   0.00066   0.00000   0.01420   0.01434  -0.84734
   D55       -2.89893  -0.00112   0.00000  -0.00729  -0.00698  -2.90591
   D56       -3.07145  -0.00065   0.00000  -0.00989  -0.01010  -3.08156
   D57        1.11423   0.00127   0.00000   0.01334   0.01304   1.12727
   D58       -0.92302  -0.00052   0.00000  -0.00814  -0.00827  -0.93129
   D59        0.07487  -0.00180   0.00000  -0.05210  -0.05296   0.02191
   D60       -3.07877  -0.00286   0.00000  -0.09148  -0.09063   3.11379
         Item               Value     Threshold  Converged?
 Maximum Force            0.032593     0.000450     NO 
 RMS     Force            0.006602     0.000300     NO 
 Maximum Displacement     0.769727     0.001800     NO 
 RMS     Displacement     0.192133     0.001200     NO 
 Predicted change in Energy=-1.781851D-02
 GradGradGradGradGradGradGradGradGradGradGradGradGradGradGradGradGradGrad

                          Input orientation:                          
 ---------------------------------------------------------------------
 Center     Atomic      Atomic             Coordinates (Angstroms)
 Number     Number       Type             X           Y           Z
 ---------------------------------------------------------------------
      1          6           0        1.142235    0.299376   -0.301274
      2          6           0        2.428535    0.040679   -0.061479
      3          6           0        3.048714   -1.215279   -0.652249
      4          6           0        2.102973   -2.183625   -1.383303
      5          6           0        2.869866   -3.373704   -1.975435
      6          6           0        3.256516    1.061209    0.766507
      7          6           0        2.898310    1.064598    2.296317
      8          6           0        1.460080    1.345212    2.745967
      9          6           0        4.808312    1.105161    0.721014
     10         16           0        5.927317    0.081317    0.089068
     11         16           0        5.528907    2.562723    1.401407
     12          1           0        0.520345   -0.402957   -0.839673
     13          1           0        0.644289    1.214466   -0.010713
     14          1           0        3.551850   -1.775028    0.140982
     15          1           0        3.818566   -0.904221   -1.364973
     16          1           0        1.580063   -1.658656   -2.191616
     17          1           0        1.339378   -2.553658   -0.687715
     18          1           0        3.620566   -3.037854   -2.698496
     19          1           0        2.192019   -4.059956   -2.492505
     20          1           0        3.391290   -3.939925   -1.196611
     21          1           0        2.999798    2.047104    0.350761
     22          1           0        3.515438    1.826361    2.780918
     23          1           0        3.227018    0.107778    2.718771
     24          1           0        1.063229    2.263076    2.300235
     25          1           0        1.448924    1.472715    3.833944
     26          1           0        0.781003    0.522458    2.523022
     27          1           0        4.420618    3.220728    1.802800
 ---------------------------------------------------------------------
                    Distance matrix (angstroms):
                    1          2          3          4          5
     1  C    0.000000
     2  C    1.333789   0.000000
     3  C    2.460087   1.520217   0.000000
     4  C    2.873865   2.607822   1.538363   0.000000
     5  C    4.390790   3.939037   2.538032   1.534612   0.000000
     6  C    2.488118   1.553253   2.690436   4.059716   5.228403
     7  C    3.227514   2.613102   3.730215   4.972235   6.160130
     8  C    3.237356   3.243681   4.541777   5.469632   6.822558
     9  C    3.890307   2.721903   3.219701   4.750066   5.575719
    10  S    4.805926   3.502255   3.243002   4.682248   5.054439
    11  S    5.221567   4.255943   4.964086   6.482241   7.329033
    12  H    1.081615   2.107982   2.662263   2.443568   3.954180
    13  H    1.081558   2.136326   3.478001   3.944463   5.464854
    14  H    3.210138   2.144672   1.093471   2.142345   2.738629
    15  H    3.121354   2.126997   1.094260   2.140204   2.714967
    16  H    2.756624   2.853967   2.173286   1.096538   2.156783
    17  H    2.885827   2.882536   2.171254   1.097198   2.161734
    18  H    4.798530   4.225181   2.799271   2.182321   1.095062
    19  H    4.990722   4.772948   3.494661   2.181484   1.094431
    20  H    4.881756   4.249780   2.799533   2.186139   1.095015
    21  H    2.632536   2.126505   3.413439   4.659436   5.900274
    22  H    4.178958   3.528348   4.610427   5.951116   7.076746
    23  H    3.674739   2.893418   3.625747   4.831254   5.855241
    24  H    3.260400   3.518637   4.975768   5.867084   7.301957
    25  H    4.309387   4.264351   5.469056   6.404395   7.697776
    26  H    2.856029   3.102599   4.271368   4.932531   6.307103
    27  H    4.869212   4.190065   5.252385   6.688032   7.756702
                    6          7          8          9         10
     6  C    0.000000
     7  C    1.571192   0.000000
     8  C    2.688141   1.532786   0.000000
     9  C    1.553085   2.476153   3.920296   0.000000
    10  S    2.924429   3.874748   5.349088   1.643101   0.000000
    11  S    2.796677   3.156784   4.454832   1.762577   2.835196
    12  H    3.494313   4.200341   4.098293   4.805915   5.507488
    13  H    2.729705   3.228848   2.877828   4.229239   5.404106
    14  H    2.919374   3.624370   4.571361   3.195406   3.015221
    15  H    2.953306   4.257718   5.246163   3.060809   2.744512
    16  H    4.354153   5.412525   5.780774   5.152056   5.208420
    17  H    4.342515   4.942316   5.196722   5.234976   5.347491
    18  H    5.379692   6.503839   7.315814   5.501668   4.777116
    19  H    6.162843   7.049306   7.562616   6.621942   6.145495
    20  H    5.374322   6.122812   6.870674   5.580154   4.924915
    21  H    1.100335   2.181927   2.932642   2.072455   3.535982
    22  H    2.170334   1.093604   2.111214   2.536702   4.013526
    23  H    2.172840   1.096367   2.157326   2.736109   3.769303
    24  H    2.933822   2.191777   1.094825   4.226151   5.771367
    25  H    3.584118   2.152110   1.095480   4.594663   6.001341
    26  H    3.082817   2.197339   1.089851   4.450393   5.709928
    27  H    2.663186   2.685122   3.629312   2.407529   3.881098
                   11         12         13         14         15
    11  S    0.000000
    12  H    6.237258   0.000000
    13  H    5.260359   1.821701   0.000000
    14  H    4.930873   3.469046   4.173008   0.000000
    15  H    4.753716   3.377198   4.049554   1.759927   0.000000
    16  H    6.806116   2.127800   3.726506   3.056550   2.502680
    17  H    6.934979   2.306386   3.891046   2.487576   3.053800
    18  H    7.198432   4.473172   5.845051   3.108389   2.523861
    19  H    8.375992   4.347411   6.031110   3.742364   3.725003
    20  H    7.321443   4.569450   5.959876   2.549846   3.070246
    21  H    2.786775   3.683424   2.524355   3.867487   3.510618
    22  H    2.549379   5.200877   4.051064   4.465489   4.973567
    23  H    3.613985   4.499939   3.917312   3.208655   4.248650
    24  H    4.565080   4.154693   2.572076   5.211707   5.572916
    25  H    4.873563   5.120850   3.936435   5.348654   6.188196
    26  H    5.288033   3.497435   2.630091   4.316265   5.136020
    27  H    1.349960   5.943558   4.644844   5.336101   5.235691
                   16         17         18         19         20
    16  H    0.000000
    17  H    1.766543   0.000000
    18  H    2.514510   3.079205   0.000000
    19  H    2.496250   2.500640   1.768579   0.000000
    20  H    3.078110   2.528054   1.766906   1.769746   0.000000
    21  H    4.712959   5.000243   5.961553   6.784751   6.196139
    22  H    6.373156   5.995933   7.327729   8.013062   7.006155
    23  H    5.472170   4.717051   6.276675   6.752675   5.633924
    24  H    5.985301   5.674947   7.721860   8.014066   7.491663
    25  H    6.791911   6.055500   8.230069   8.437215   7.640415
    26  H    5.255812   4.481417   6.928432   6.938659   6.368840
    27  H    6.916105   7.002873   7.750587   8.742120   7.831407
                   21         22         23         24         25
    21  H    0.000000
    22  H    2.494048   0.000000
    23  H    3.069215   1.743725   0.000000
    24  H    2.756336   2.536751   3.082607   0.000000
    25  H    3.855865   2.346149   2.503655   1.767964   0.000000
    26  H    3.459236   3.040364   2.488628   1.777368   1.751464
    27  H    2.346176   1.928814   3.457476   3.526556   4.001508
                   26         27
    26  H    0.000000
    27  H    4.587611   0.000000
 Stoichiometry    C9H16S2
 Framework group  C1[X(C9H16S2)]
 Deg. of freedom    75
 Full point group                 C1      NOp   1
 Largest Abelian subgroup         C1      NOp   1
 Largest concise Abelian subgroup C1      NOp   1
                         Standard orientation:                         
 ---------------------------------------------------------------------
 Center     Atomic      Atomic             Coordinates (Angstroms)
 Number     Number       Type             X           Y           Z
 ---------------------------------------------------------------------
      1          6           0       -1.329988    1.921860   -1.002149
      2          6           0       -0.873819    0.806685   -0.430058
      3          6           0       -1.870171   -0.249415    0.020492
      4          6           0       -3.362807    0.105053   -0.093325
      5          6           0       -4.250843   -1.068800    0.340833
      6          6           0        0.660686    0.606617   -0.296396
      7          6           0        1.319198    1.522195    0.797552
      8          6           0        1.178923    3.045881    0.707359
      9          6           0        1.301804   -0.791850   -0.083488
     10         16           0        0.660648   -2.260741    0.278532
     11         16           0        3.042049   -0.858670   -0.355076
     12          1           0       -2.390777    2.118398   -1.079543
     13          1           0       -0.696135    2.678318   -1.444605
     14          1           0       -1.668063   -0.513057    1.062281
     15          1           0       -1.697544   -1.148701   -0.578582
     16          1           0       -3.606887    0.373049   -1.128216
     17          1           0       -3.585973    0.979351    0.530891
     18          1           0       -4.072894   -1.949588   -0.285032
     19          1           0       -5.311219   -0.810376    0.259595
     20          1           0       -4.053677   -1.355817    1.379006
     21          1           0        1.075524    0.888028   -1.275913
     22          1           0        2.394296    1.321864    0.796018
     23          1           0        0.958944    1.185166    1.776659
     24          1           0        1.470084    3.426513   -0.277012
     25          1           0        1.840025    3.505786    1.449996
     26          1           0        0.170131    3.390129    0.934531
     27          1           0        3.293118    0.432145   -0.660292
 ---------------------------------------------------------------------
 Rotational constants (GHZ):           0.9768057           0.5174923           0.3648506
 Standard basis: 6-31G(2df,p) (6D, 7F)
 There are   429 symmetry adapted cartesian basis functions of A   symmetry.
 There are   396 symmetry adapted basis functions of A   symmetry.
   396 basis functions,   644 primitive gaussians,   429 cartesian basis functions
    51 alpha electrons       51 beta electrons
       nuclear repulsion energy       798.1024154248 Hartrees.
 NAtoms=   27 NActive=   27 NUniq=   27 SFac= 1.00D+00 NAtFMM=   60 NAOKFM=F Big=F
 Integral buffers will be    131072 words long.
 Raffenetti 2 integral format.
 Two-electron integral symmetry is turned on.
 One-electron integrals computed using PRISM.
 PrsmSu:  requested number of processors reduced to:  13 ShMem   1 Linda.
 NBasis=   396 RedAO= T EigKep=  5.47D-04  NBF=   396
 NBsUse=   396 1.00D-06 EigRej= -1.00D+00 NBFU=   396
 Initial guess from the checkpoint file:  "CdCqCCCrCqCCrCqdSrS.chk"
 B after Tr=     0.000000   -0.000000    0.000000
         Rot=    0.999957    0.001089   -0.000067    0.009231 Ang=   1.07 deg.
 ExpMin= 1.17D-01 ExpMax= 2.19D+04 ExpMxC= 3.30D+03 IAcc=2 IRadAn=         4 AccDes= 0.00D+00
 Harris functional with IExCor=  402 and IRadAn=       4 diagonalized for initial guess.
 HarFok:  IExCor=  402 AccDes= 0.00D+00 IRadAn=         4 IDoV= 1 UseB2=F ITyADJ=14
 ICtDFT=  3500011 ScaDFX=  1.000000  1.000000  1.000000  1.000000
 FoFCou: FMM=F IPFlag=           0 FMFlag=      100000 FMFlg1=           0
         NFxFlg=           0 DoJE=T BraDBF=F KetDBF=T FulRan=T
         wScrn=  0.000000 ICntrl=       500 IOpCl=  0 I1Cent=   200000004 NGrid=           0
         NMat0=    1 NMatS0=      1 NMatT0=    0 NMatD0=    1 NMtDS0=    0 NMtDT0=    0
 Petite list used in FoFCou.
 Requested convergence on RMS density matrix=1.00D-08 within 128 cycles.
 Requested convergence on MAX density matrix=1.00D-06.
 Requested convergence on             energy=1.00D-06.
 No special actions if energy rises.
 Integral accuracy reduced to 1.0D-05 until final iterations.
 Initial convergence to 1.0D-05 achieved.  Increase integral accuracy.
 SCF Done:  E(RB3LYP) =  -1148.96066635     A.U. after   13 cycles
            NFock= 13  Conv=0.97D-08     -V/T= 2.0048
 PrsmSu:  requested number of processors reduced to:  13 ShMem   1 Linda.
 Calling FoFJK, ICntrl=      2127 FMM=F ISym2X=0 I1Cent= 0 IOpClX= 0 NMat=1 NMatS=1 NMatT=0.
 ***** Axes restored to original set *****
 -------------------------------------------------------------------
 Center     Atomic                   Forces (Hartrees/Bohr)
 Number     Number              X              Y              Z
 -------------------------------------------------------------------
      1        6          -0.001743022    0.004915879    0.000055705
      2        6           0.006071216   -0.002512062   -0.002583710
      3        6          -0.004404092   -0.000970983    0.002474187
      4        6           0.002240754    0.000258626    0.001421330
      5        6          -0.000998205    0.000937262    0.000321043
      6        6           0.002213450    0.002572022    0.000608941
      7        6          -0.001477443   -0.001973758    0.005686165
      8        6          -0.000414409   -0.002616735   -0.002747777
      9        6          -0.001296044   -0.001725511   -0.010082178
     10       16          -0.005940313   -0.001213126    0.003126792
     11       16           0.002578718    0.003512112   -0.000868772
     12        1           0.000157979    0.000566210   -0.000625462
     13        1           0.000851559    0.002291570    0.003674479
     14        1           0.005141226   -0.000033665   -0.000348319
     15        1           0.003043038   -0.001232854    0.002810335
     16        1          -0.000412215   -0.000446300    0.000479496
     17        1          -0.000928948    0.000674160   -0.000847747
[...]
 833,-0.08025125,0.09403125,0.01073834,0.00074276,-0.00169344,-0.000039
 01,0.00083387,-0.00120338,0.00003947,-0.01850098,0.02778198,0.00324462
 ,-0.00309100,-0.00226695,-0.00022616,-0.00001220,-0.00142178,-0.000489
 24,0.00013576,-0.00007951,0.00020876,-0.00024164,0.00021663,-0.0003524
 2,-0.00010095,0.00020559,0.00019736,0.00006422,-0.00002343,-0.00008385
 ,0.00002105,0.00002877,-0.00000916,0.00000099,0.00001491,0.00005493,0.
 00001487,0.00000805,-0.00000778,0.00003863,-0.00011926,-0.00003068,-0.
 00000443,-0.00000446,0.00001716,0.09547769,0.00173344,0.00132521,0.001
 99075,0.00639512,-0.01916513,-0.00410362,-0.00270284,0.00047419,-0.002
 52515,0.00079761,-0.00063732,0.00034882,-0.00033254,-0.00005752,-0.000
 30743,0.08700232,-0.25248932,-0.01658013,0.00567800,-0.01484517,0.0014
 5281,0.00046248,0.00042161,-0.00088421,0.00106871,0.00181534,0.0007000
 5,-0.00085896,-0.00003061,-0.00091402,-0.00120783,0.00081590,0.0014444
 2,0.00002284,0.00048047,0.00026756,-0.00076112,0.00101025,-0.00006878,
 -0.00000094,0.00030771,0.00021830,0.00006593,0.00015948,0.00009158,-0.
 00001780,0.00002390,-0.00012245,-0.00009033,-0.00005090,-0.00000454,0.
 00001874,0.00001774,0.00001142,0.00004806,-0.00015569,-0.00004838,0.00
 000696,0.00001785,0.00002124,-0.09589259,0.27917534,0.00119794,-0.0007
 3655,0.00009909,0.00622427,-0.02359702,-0.00561138,-0.00338571,-0.0010
 9592,-0.00233874,0.00059299,-0.00101219,0.00030376,-0.00028012,-0.0000
 6796,-0.00031611,0.00900746,-0.01384848,-0.04373456,-0.01052846,0.0288
 4122,-0.00168993,-0.00132416,0.00028483,0.00142690,0.00296674,-0.00774
 607,-0.00065820,0.00044675,0.00036670,0.00008457,0.00132534,0.00059318
 ,-0.00061990,0.00029130,0.00019097,0.00023358,-0.00077061,0.00045454,0
 .00000928,-0.00006729,-0.00010585,0.00003698,-0.00007888,0.00044364,0.
 00006823,0.00004935,0.00004750,-0.00002202,-0.00007730,-0.00003642,0.0
 0000997,0.00001240,0.00001567,0.00000356,0.00005511,-0.00014453,-0.000
 04216,-0.00000831,0.00000221,0.00002027,-0.00681999,0.01603312,0.05744
 630,0.00029848,-0.00003801,0.00004533,-0.00029969,0.00000264,0.0007803
 2,0.00010981,0.00029550,-0.00004048,-0.00005385,-0.00011285,0.00005635
 ,0.00001769,-0.00000102,-0.00000468,0.00070058,0.00158848,0.00047538,-
 0.12778534,-0.07839626,-0.09643343,-0.02015430,-0.01688298,-0.01853873
 ,0.00022977,0.00005012,0.00124717,-0.00146275,-0.00008932,0.00139051,-
 0.00002062,0.00021024,-0.00020385,0.00003189,0.00001325,-0.00001903,-0
 .00001880,-0.00004209,0.00000550,-0.00008320,-0.00016371,0.00013027,0.
 00002021,-0.00000688,0.00001430,0.00003704,0.00003256,0.00004321,0.000
 02529,0.00001300,0.00001198,0.00000296,-0.00000300,-0.00000460,-0.0000
 0093,0.00000319,0.00000620,-0.00000824,-0.00000333,-0.00000296,0.00005
 081,0.00001267,-0.00019743,0.14510980,0.00052834,0.00047776,0.00023161
 ,-0.00118278,-0.00170244,0.00199705,-0.00007250,-0.00040388,0.00033918
 ,0.00007186,0.00033317,-0.00014461,-0.00000091,0.00001051,0.00002768,0
 .00824684,0.00670456,0.01231423,-0.07719871,-0.12054988,-0.08901999,0.
 00037508,0.00001665,0.00039126,-0.00044231,0.00093408,-0.00053564,-0.0
 0050111,-0.00009164,0.00094940,0.00021809,-0.00016356,-0.00004930,0.00
 030878,0.00006107,-0.00017729,-0.00011590,-0.00008151,0.00015319,0.000
 05419,0.00058224,-0.00012986,0.00003601,0.00002417,-0.00004522,-0.0000
 6821,-0.00005989,-0.00013311,-0.00001978,-0.00002249,0.00001741,0.0000
 0242,0.00000351,0.00000126,-0.00000546,0.00000155,-0.00001219,0.000005
 71,0.00002681,0.00000344,0.00034192,0.00088823,-0.00054631,0.08633855,
 0.12785139,-0.00055227,-0.00086528,-0.00082375,0.00164512,0.00441214,-
 0.00356497,-0.00022177,0.00031455,0.00020637,0.00006242,-0.00007809,0.
 00000041,-0.00006637,0.00001984,-0.00002057,-0.01484200,-0.01526811,-0
 .02342633,-0.09509941,-0.08754711,-0.15235963,0.00826031,0.00715120,0.
 00796822,-0.00220487,-0.00006437,-0.00046278,0.00087666,-0.00021689,0.
 00121980,0.00002865,0.00004178,0.00030951,-0.00065443,-0.00009556,0.00
 034395,0.00015261,0.00019817,-0.00022282,0.00003081,-0.00001178,-0.000
 02209,0.00003408,-0.00006096,-0.00005358,-0.00002178,-0.00001403,0.000
 02677,0.00002306,0.00001279,-0.00001576,0.00001878,-0.00000882,-0.0000
 0190,0.00000421,-0.00003617,-0.00002118,0.00000940,-0.00001666,0.00000
 968,-0.00018222,0.00010114,0.00100298,0.10140198,0.09278542,0.16965336
 ,0.00003761,-0.00007371,-0.00004793,-0.00004674,0.00091270,0.00016325,
 0.00030460,0.00053437,-0.00037593,-0.00014699,-0.00025926,0.00013590,0
 .00003868,-0.00001324,-0.00002162,0.00014846,-0.00218109,-0.00102330,-
 0.08119216,0.09049353,0.00239691,-0.01337156,0.02952543,0.00205934,0.0
 0068109,-0.00072719,0.00028706,-0.00081013,-0.00040955,0.00026156,-0.0
 0017995,0.00015418,-0.00010733,-0.00000754,-0.00001375,-0.00000479,0.0
 0001356,-0.00009165,-0.00000746,0.00004649,-0.00074730,-0.00023648,-0.
 00007800,-0.00004094,0.00014483,0.00007348,0.00005348,0.00012684,0.000
 00356,0.00001494,-0.00002230,-0.00001276,-0.00000271,0.00000861,-0.000
 00090,0.00001903,0.00002317,-0.00000227,-0.00002538,-0.00000684,0.0001
 1560,-0.00024875,0.00071341,0.00599685,-0.01681869,-0.00041842,0.09141
 958,0.00008463,0.00012430,0.00014713,-0.00055270,-0.00040791,-0.000534
 35,-0.00022170,-0.00059676,-0.00030941,-0.00000284,0.00042711,-0.00018
 160,0.00000909,0.00003946,0.00004081,0.00404533,-0.01383141,0.00103266
 ,0.08967368,-0.27189623,-0.00699566,-0.00109173,0.00261580,-0.00006012
 ,0.00207933,-0.00033223,0.00054047,-0.00014920,0.00116415,-0.00095213,
 -0.00022357,0.00005527,0.00010334,0.00008864,0.00004817,-0.00001110,-0
 .00009328,0.00007667,0.00000981,-0.00011071,0.00043737,-0.00116055,-0.
 00000496,0.00000593,0.00005296,-0.00008669,-0.00007431,-0.00014915,-0.
 00004183,-0.00002973,-0.00000847,-0.00000229,0.00000397,0.00000869,-0.
 00000856,0.00000339,-0.00000703,0.00000847,0.00001051,0.00000514,-0.00
 055797,0.00000776,0.00277105,0.00635836,-0.01662006,-0.00072278,-0.099
 18445,0.29623177,-0.00031896,-0.00017183,-0.00029256,-0.00002756,0.000
 45916,0.00192244,-0.00003411,0.00026376,-0.00085205,-0.00006621,-0.000
 37287,0.00008931,0.00003043,-0.00003217,-0.00000872,-0.01069988,0.0295
 4613,-0.00079403,0.00236472,-0.00841000,-0.04790491,0.00458988,-0.0107
 6688,-0.00093680,-0.00136224,0.00000932,0.00094425,0.00102457,-0.00006
 412,0.00001286,0.00007167,-0.00029186,-0.00027886,-0.00003790,-0.00007
 201,-0.00001637,0.00019059,-0.00007797,-0.00008460,-0.00054196,-0.0010
 9146,-0.00091300,0.00006298,-0.00004032,-0.00009471,0.00006574,0.00008
 183,0.00013992,0.00004518,0.00004124,0.00000674,-0.00000583,-0.0000047
 2,-0.00000845,0.00000328,0.00001923,0.00001460,-0.00000928,-0.00001693
 ,-0.00000782,0.00068943,0.00282040,-0.00514475,0.00748763,-0.01970301,
 -0.00059913,-0.00541228,0.00690725,0.05422760,0.00003225,0.00012041,0.
 00005116,-0.00013582,-0.00017902,0.00010521,0.00007247,0.00006277,-0.0
 0002661,-0.00001576,-0.00006880,0.00003600,0.00000435,-0.00000319,-0.0
 0000216,0.00113616,0.00114728,-0.00141337,-0.01309113,0.03098717,0.002
 35765,-0.08218886,0.08822169,0.00468878,-0.00026676,-0.00008068,-0.000
 51477,-0.00001212,-0.00029016,0.00027825,0.00000507,-0.00005057,0.0000
 6562,0.00003110,-0.00001476,-0.00001034,0.00004026,-0.00000687,0.00003
 359,-0.00011098,-0.00009119,-0.00002421,0.00001733,0.00001045,-0.00007
 992,0.00002259,0.00001069,0.00001746,0.00002867,0.00000766,0.00002313,
 0.00000395,-0.00000174,-0.00000870,0.00000298,0.00000169,0.00000445,-0
 .00000990,0.00000030,-0.00000185,0.00019248,-0.00083581,0.00064215,0.0
 0123479,-0.00017307,-0.00071874,-0.00568850,-0.00094196,0.00257246,0.0
 9182476,-0.00001010,-0.00015957,-0.00005755,0.00010023,-0.00008450,-0.
 00005591,-0.00001268,-0.00004729,0.00011358,-0.00000863,0.00005078,-0.
 00000407,-0.00000183,-0.00000291,0.00001499,-0.00036713,0.00071657,0.0
 0035439,-0.00026514,0.00142875,0.00021151,0.08902538,-0.26906534,-0.01
 270429,0.00009787,0.00017742,-0.00007770,-0.00014389,0.00000719,-0.000
 06043,0.00005662,0.00004473,-0.00010971,-0.00003759,0.00003785,0.00004
 186,0.00000639,0.00019202,-0.00005316,-0.00010163,0.00014405,-0.000004
 27,0.00000511,0.00004311,-0.00002299,-0.00000002,-0.00000215,-0.000036
 78,0.00001466,-0.00001125,0.00002218,0.00000556,0.00000127,-0.00000356
 ,-0.00000283,-0.00000250,-0.00000976,-0.00000275,0.00001808,-0.0000018
 7,0.00025114,0.00028711,-0.00062418,0.00055336,0.00067848,-0.00007060,
 -0.00044824,0.00156785,0.00052717,-0.09908780,0.29191946,-0.00013305,0
 .00001922,-0.00000076,-0.00003001,-0.00019823,0.00024475,0.00007322,-0
 .00004965,0.00009020,-0.00003856,0.00006411,-0.00001546,0.00000974,0.0
 0000507,0.00001041,-0.00004335,-0.00156234,0.00081159,0.00423442,-0.01
 071133,-0.00180498,0.00482615,-0.01261174,-0.04801453,0.00030265,0.000
 04847,0.00019538,-0.00007045,0.00013628,-0.00017119,-0.00005554,-0.000
 00172,0.00002786,-0.00003498,0.00003078,0.00006277,0.00003439,0.000162
 41,-0.00018003,-0.00006609,0.00018069,0.00004053,-0.00001923,0.0000473
 3,-0.00002280,0.00000042,-0.00001111,-0.00003269,0.00000936,-0.0000092
 4,0.00001746,0.00000159,-0.00000048,-0.00000184,-0.00000076,0.00000537
 ,0.00000045,-0.00000260,0.00000955,-0.00000070,0.00000137,0.00043361,-
 0.00009332,-0.00045182,0.00058492,0.00026574,0.00232601,0.00020354,-0.
 00006304,-0.00757900,0.01368708,0.04739739,0.00054859,0.00011595,-0.00
 010547,-0.00061064,-0.00007233,-0.00088414,0.00005638,0.00003799,0.000
 13680,-0.00003312,0.00002739,0.00000409,0.00001291,0.00000246,0.000014
 47,-0.00621455,0.00089896,0.00101607,-0.00153095,-0.01347702,0.0304340
 4,-0.04548708,-0.00167637,0.00345773,0.00049165,-0.00076319,0.00175594
 ,-0.00007299,0.00011809,-0.00022980,-0.00047632,-0.00027983,0.00039381
 ,0.00005996,-0.00002605,0.00001302,-0.00005773,-0.00011915,0.00008352,
 -0.00002710,-0.00000856,-0.00000847,0.00003207,-0.00004431,-0.00004341
 ,0.00000047,0.00000269,-0.00000333,0.00002387,0.00001381,0.00001403,0.
 00000425,-0.00000602,-0.00000302,-0.00000189,0.00000564,-0.00000114,0.
 00000037,0.00000434,-0.00000258,-0.00004695,-0.00007615,-0.00024068,0.
 00132839,-0.00031040,-0.00058818,0.00132527,0.00046615,-0.00043206,-0.
 00051917,0.00386326,-0.01131299,0.05109734,0.00026560,-0.00013330,-0.0
 0003924,-0.00007267,0.00011368,-0.00022335,0.00000886,0.00010145,0.000
 03854,-0.00002144,0.00000948,-0.00000159,0.00000649,0.00000948,-0.0000
 0387,-0.00034445,0.00040245,-0.00009795,0.00018185,-0.00101393,-0.0005
 3966,-0.00226549,-0.08929510,0.09708173,0.00014856,0.00032273,0.000164
 52,-0.00012981,-0.00003543,-0.00004198,0.00000845,-0.00001944,-0.00001
 476,-0.00000549,0.00004257,0.00002185,-0.00003863,0.00006016,-0.000035
 13,-0.00005259,0.00004499,0.00000453,0.00001007,-0.00000148,-0.0000116
 3,0.00000418,-0.00000278,-0.00000005,0.00001272,0.00000682,0.00001035,
 0.00000100,-0.00000376,-0.00000119,0.00000111,0.00000131,0.00000375,-0
 .00000083,-0.00000390,0.00000091,-0.00000684,0.00043426,-0.00033451,-0
 .00007664,-0.00011018,0.00015519,-0.00034444,0.00040335,-0.00029191,-0
 .00076903,-0.01167734,0.02815970,0.00238566,0.09277458,0.00037704,-0.0
 0011892,-0.00013193,0.00004840,0.00035170,0.00010946,-0.00004865,0.000
 15300,-0.00000272,0.00004055,-0.00002005,0.00003812,-0.00002246,0.0000
 2983,-0.00003680,0.00213284,-0.00070109,0.00074379,-0.00054040,0.00361
 194,-0.00914082,0.00473107,0.09687149,-0.26907363,-0.00052554,0.000352
 59,-0.00060301,0.00018283,-0.00007166,0.00009169,0.00022168,0.00008104
 ,-0.00010939,-0.00001183,0.00001160,-0.00002575,-0.00001735,-0.0000437
 7,0.00004467,-0.00004539,0.00001131,0.00002164,0.00001153,-0.00002816,
 -0.00001398,-0.00000171,-0.00000486,0.00000791,0.00000489,0.00001679,-
 0.00000058,0.00000573,-0.00000651,0.00000432,-0.00000018,-0.00002750,-
 0.00001246,0.00000619,-0.00001650,0.00001220,-0.00007188,-0.00004519,0
 .00009527,0.00015979,0.00013670,0.00075988,-0.00002432,-0.00046629,0.0
 0012338,-0.00044874,-0.00136288,0.00254691,-0.00675259,-0.10682045,0.2
 9145155,0.00063684,0.00026290,-0.00008518,-0.00019906,-0.00032032,-0.0
 0000368,0.00005972,0.00011220,0.00042946,0.00002101,0.00008491,0.00001
 874,-0.00001385,0.00001275,0.00001325,0.00088601,0.00025534,-0.0013606
 4,-0.01931461,-0.01818456,-0.01965925,-0.13684944,-0.08339691,-0.09186
 086,-0.00041337,0.00040233,-0.00037954,-0.00005691,-0.00008754,0.00055
 346,0.00002536,-0.00002904,0.00014579,0.00007714,-0.00001153,0.0000097
 7,-0.00004570,-0.00000574,0.00003932,-0.00031436,0.00023743,0.00001971
 ,0.00004163,0.00000548,-0.00016344,-0.00001122,-0.00000980,-0.00004133
 ,0.00004485,0.00000786,0.00004387,0.00001506,-0.00000506,-0.00001017,-
 0.00000079,-0.00001396,-0.00001700,-0.00000328,0.00001561,0.00000274,-
 0.00006764,-0.00004901,0.00010453,-0.00529002,0.00034983,0.00313312,0.
 00128731,0.00051379,-0.00031117,0.00738314,0.00651113,0.00801693,0.000
 14851,0.00108114,0.00059039,0.15197969,0.00097018,-0.00008484,-0.00012
 145,-0.00054016,0.00063975,-0.00067207,0.00002261,0.00031025,0.0000312
 4,0.00001097,-0.00004624,0.00002791,-0.00001080,0.00001729,-0.00001998
 ,-0.00030919,-0.00014524,-0.00057588,0.00028103,-0.00016645,0.00097484
 ,-0.08366412,-0.12574674,-0.08602239,-0.00019599,0.00012363,-0.0000059
 3,0.00009502,-0.00009291,0.00012578,0.00004022,0.00002261,0.00007295,0
 .00000480,0.00000174,0.00002258,-0.00011802,-0.00020702,0.00012793,-0.
 00000687,-0.00017116,0.00010795,0.00002994,-0.00009308,0.00000356,0.00
 000022,0.00000891,0.00004580,0.00000631,0.00002217,-0.00001793,0.00000
 453,-0.00000672,0.00000276,-0.00000044,-0.00001323,-0.00000310,0.00000
 717,-0.00002199,0.00000552,-0.00005042,-0.00002662,-0.00009540,0.00032
 394,0.00126490,0.00014528,-0.00014267,0.00055996,0.00062950,-0.0179760
 5,-0.01625249,-0.01863273,0.00891530,0.00758152,0.00814922,0.09236720,
 0.13261231,-0.00007319,0.00011978,-0.00067316,0.00079703,0.00010131,-0
 .00075809,0.00011041,-0.00009281,-0.00009632,-0.00003689,0.00001007,-0
 .00002980,0.00001390,-0.00002710,0.00003308,-0.00036776,0.00039023,0.0
 0072936,0.00674372,0.00757016,0.00789273,-0.09318415,-0.08730592,-0.14
 184835,0.00016273,-0.00018866,0.00014275,-0.00002384,0.00006996,-0.000
 15662,0.00000330,-0.00005853,0.00003989,0.00008279,0.00003885,-0.00013
 637,-0.00003842,-0.00003768,0.00005329,-0.00005920,0.00002771,0.000045
 10,-0.00001937,0.00005860,0.00003873,-0.00000033,0.00000579,-0.0000078
 7,-0.00000701,-0.00002910,-0.00000054,-0.00000093,0.00000851,-0.000006
 14,-0.00000095,0.00002030,0.00000873,-0.00001000,0.00001780,-0.0000106
 3,0.00001668,0.00003169,-0.00000719,0.00273054,0.00050240,-0.00024589,
 -0.00082752,-0.00006372,0.00038325,-0.00009013,0.00029384,-0.00127965,
 -0.01664696,-0.01718061,-0.01694613,0.10073955,0.09568726,0.15284786,-
 0.00183880,0.00089623,-0.00107740,0.00145268,-0.00186638,0.00300602,-0
 .00019114,0.00022037,-0.00036160,-0.00011683,0.00005013,-0.00012834,0.
 00003328,-0.00000936,0.00002684,-0.00138122,-0.00079309,0.00086666,-0.
 00006105,-0.00027332,-0.00033809,0.00006092,0.00004994,0.00016168,0.00
 241616,0.00365941,-0.00507696,0.00244022,-0.00072153,0.00049968,-0.239
 34493,0.01714422,-0.05638739,0.00005596,0.00009199,-0.00008835,-0.0004
 0725,-0.00011551,0.00049058,-0.00000494,0.00023370,0.00010824,-0.00009
 510,0.00035225,0.00005426,0.00004496,-0.00003017,0.00001129,-0.0000384
 1,-0.00005077,0.00000434,-0.00002222,0.00002043,0.00000248,0.00000162,
 0.00003315,0.00002000,-0.00000570,-0.00000336,0.00000300,0.00030733,-0
 .00023821,0.00014920,-0.00001663,0.00003219,-0.00011075,0.00004534,-0.
 00005305,0.00006085,0.00000663,-0.00000046,0.00000218,-0.00005156,0.00
 001268,-0.00000188,-0.00002603,-0.00006473,-0.00001400,0.23673672,-0.0
 0126680,0.00097037,-0.00097506,0.00117861,-0.00101810,0.00143307,-0.00
 008557,-0.00018408,-0.00035739,-0.00006425,-0.00007397,0.00000082,0.00
 003811,-0.00003046,-0.00001646,-0.00029257,0.00045716,-0.00007380,0.00
 007883,-0.00028340,-0.00002014,-0.00000640,0.00010600,-0.00010243,0.01
 448475,-0.00398660,0.00093239,0.00005028,0.00029007,0.00578464,0.00425
 976,-0.00924349,0.01020590,-0.00005015,-0.00010830,-0.00002288,0.00009
 580,-0.00010692,0.00001582,0.00005542,0.00022911,0.00000529,0.00003380
 ,-0.00009019,0.00015667,-0.00004462,-0.00002147,-0.00008505,-0.0000030
 9,0.00000167,-0.00002337,-0.00001298,0.00000116,0.00000766,0.00000338,
 0.00003597,0.00002515,-0.00000719,0.00003013,-0.00001235,0.00015022,-0
 .00020407,-0.00005324,0.00002022,-0.00005354,-0.00026030,0.00006535,0.
 00000587,0.00010309,0.00000061,-0.00000937,0.00001047,0.00000167,-0.00
 001220,-0.00004337,-0.00010641,-0.00009031,0.00002985,-0.01857675,0.01
 338895,0.00024905,0.00012681,-0.00024756,0.00008637,0.00023806,-0.0000
 4391,-0.00011434,0.00004418,0.00000467,0.00005788,-0.00011421,0.000106
 04,-0.00000516,0.00000043,-0.00004372,-0.00037947,-0.00000373,0.000434
 05,-0.00029470,-0.00018751,-0.00001613,0.00008382,-0.00010604,0.000143
 95,-0.02365141,-0.00009560,-0.00627428,-0.00014736,0.00552576,-0.00468
 768,-0.03441241,0.01216086,-0.03106792,-0.00015703,-0.00020075,0.00011
 113,0.00022525,-0.00007086,-0.00007448,0.00000527,-0.00008476,-0.00000
 301,0.00005271,-0.00008027,-0.00005089,-0.00002731,0.00000012,-0.00002
 730,0.00002637,0.00003603,-0.00001227,0.00000790,-0.00000924,-0.000001
 43,0.00000297,-0.00001727,-0.00000337,-0.00000626,0.00000842,-0.000002
 04,0.00047468,-0.00036300,-0.00056250,-0.00008946,0.00006140,0.0000736
 9,-0.00011036,-0.00020052,0.00013543,0.00004263,-0.00000687,-0.0000304
 2,-0.00006872,-0.00000322,0.00004641,0.00003160,0.00000679,-0.00001200
 ,0.05811749,-0.01666500,0.04210554\\0.00000545,-0.00000082,0.00000096,
 -0.00000578,-0.00000098,-0.00000942,0.00000065,0.00000237,0.00000593,-
 0.00000204,-0.00000070,-0.00000169,-0.00000088,0.00000087,0.00000136,0
 .00000712,0.00000165,0.00000839,-0.00000023,0.00000178,0.00000072,0.00
 000480,0.00000182,-0.00000365,-0.00000612,0.00000112,-0.00000793,-0.00
 000295,-0.00000246,0.00000242,0.00000040,-0.00000202,0.00000376,-0.000
 00116,-0.00000213,-0.00000095,-0.00000048,-0.00000074,0.00000164,0.000
 00094,-0.00000049,0.00000084,0.00000077,0.00000216,0.00000016,-0.00000
 149,0.00000033,-0.00000016,-0.00000069,0.00000163,0.00000124,-0.000000
 07,-0.00000013,0.00000044,0.,0.00000027,-0.00000034,-0.00000098,-0.000
 00055,-0.00000029,0.00000007,-0.00000201,0.00000159,0.00000313,0.00000
 011,-0.00000019,0.00000169,-0.00000018,-0.00000246,-0.00000122,-0.0000
 0074,-0.00000132,0.00000191,0.00000043,0.00000028,-0.00000133,-0.00000
 105,-0.00000004,-0.00000152,0.00000048,-0.00000129\\\@


 NOBODY LOSES ALL THE TIME
 I HAD AN UNCLE NAMED
 SOL WHO WAS A BORN FAILURE AND
 NEARLY EVERYBODY SAID HE SHOULD HAVE GONE
 INTO VAUDEVILLE PERHAPS BECAUSE MY UNCLE SOL COULD
 SING MCCANN HE WAS A DIVER ON XMAS EVE LIKE HELL ITSELF WHICH
 MAY OR MAY NOT ACCOUNT FOR THE FACT THAT MY UNCLE
 SOL INDULGED IN THAT POSSIBLY MOST INEXCUSABLE
 OF ALL TO USE A HIGHFALOOTIN PHRASE
 LUXURIES THAT IS OR TO
 WIT FARMING AND BE
 IT NEEDLESSLY
 ADDED
 MY UNCLE SOL'S FARM     
 FAILED BECAUSE THE CHICKENS
 ATE THE VEGETABLES SO
 MY UNCLE SOL HAD A
 CHICKEN FARM TILL THE
 SKUNKS ATE THE CHICKENS WHEN 
 MY UNCLE SOL
 HAD A SKUNK FARM BUT
 THE SKUNKS CAUGHT COLD AND
 DIED AND SO
 MY UNCLE SOL IMITATED THE
 SKUNKS IN A SUBTLE MANNER
 OR BY DROWNING HIMSELF IN THE WATERTANK
 BUT SOMEBODY WHO'D GIVEN MY UNCLE SOL A VICTOR     
 VICTROLA AND RECORDS WHILE HE LIVED PRESENTED TO
 HIM UPON THE AUSPICIOUS OCCASION OF HIS DECEASE A
 SCRUMPTIOUS NOT TO MENTION SPLENDIFEROUS FUNERAL WITH
 TALL BOYS IN BLACK GLOVES AND FLOWERS AND EVERYTHING AND
 I REMEMBER WE ALL CRIED LIKE THE MISSOURI
 WHEN MY UNCLE SOL'S COFFIN LURCHED BECAUSE     
 SOMEBODY PRESSED A BUTTON
 (AND DOWN WENT
 MY UNCLE
 SOL
 AND STARTED A WORM FARM)
           E. E. CUMMINGS
 Job cpu time:       0 days  4 hours 16 minutes 58.5 seconds.
 Elapsed time:       0 days  1 hours  4 minutes 16.2 seconds.
 File lengths (MBytes):  RWF=    342 Int=      0 D2E=      0 Chk=     14 Scr=      1
 Normal termination of Gaussian 16 at Mon May 29 00:58:43 2023.
### All Done ###
