### Starting Gaussian ###
 Entering Gaussian System, Link 0=g16
 Initial command:
 /cluster/software/gaussian/gaussian-16-A.03/avx2/g16/l1.exe "/local/scratch/cz9n3/Gau-29912.inp" -scrdir="/local/scratch/cz9n3/"
 Entering Link 1 = /cluster/software/gaussian/gaussian-16-A.03/avx2/g16/l1.exe PID=     29913.
  
 Copyright (c) 1988,1990,1992,1993,1995,1998,2003,2009,2016,
            Gaussian, Inc.  All Rights Reserved.
  
 This is part of the Gaussian(R) 16 program.  It is based on
 the Gaussian(R) 09 system (copyright 2009, Gaussian, Inc.),
 the Gaussian(R) 03 system (copyright 2003, Gaussian, Inc.),
 the Gaussian(R) 98 system (copyright 1998, Gaussian, Inc.),
 the Gaussian(R) 94 system (copyright 1995, Gaussian, Inc.),
 the Gaussian 92(TM) system (copyright 1992, Gaussian, Inc.),
 the Gaussian 90(TM) system (copyright 1990, Gaussian, Inc.),
 the Gaussian 88(TM) system (copyright 1988, Gaussian, Inc.),
 the Gaussian 86(TM) system (copyright 1986, Carnegie Mellon
 University), and the Gaussian 82(TM) system (copyright 1983,
 Carnegie Mellon University). Gaussian is a federally registered
 trademark of Gaussian, Inc.
  
 This software contains proprietary and confidential information,
 including trade secrets, belonging to Gaussian, Inc.
  
 This software is provided under written license and may be
 used, copied, transmitted, or stored only in accord with that
 written license.
  
 The following legend is applicable only to US Government
 contracts under FAR:
  
                    RESTRICTED RIGHTS LEGEND
  
 Use, reproduction and disclosure by the US Government is
 subject to restrictions as set forth in subparagraphs (a)
 and (c) of the Commercial Computer Software - Restricted
 Rights clause in FAR 52.227-19.
  
 Gaussian, Inc.
 340 Quinnipiac St., Bldg. 40, Wallingford CT 06492
  
  
 ---------------------------------------------------------------
 Warning -- This program may not be used in any manner that
 competes with the business of Gaussian, Inc. or will provide
 assistance to any competitor of Gaussian, Inc.  The licensee
 of this program is prohibited from giving any competitor of
 Gaussian, Inc. access to this program.  By using this program,
 the user acknowledges that Gaussian, Inc. is engaged in the
 business of creating and licensing software in the field of
 computational chemistry and represents and warrants to the
 licensee that it is not a competitor of Gaussian, Inc. and that
 it will not use this program in any manner prohibited above.
 ---------------------------------------------------------------
  

 Cite this work as:
 Gaussian 16, Revision A.03,
 M. J. Frisch, G. W. Trucks, H. B. Schlegel, G. E. Scuseria, 
 M. A. Robb, J. R. Cheeseman, G. Scalmani, V. Barone, 
 G. A. Petersson, H. Nakatsuji, X. Li, M. Caricato, A. V. Marenich, 
 J. Bloino, B. G. Janesko, R. Gomperts, B. Mennucci, H. P. Hratchian, 
 J. V. Ortiz, A. F. Izmaylov, J. L. Sonnenberg, D. Williams-Young, 
 F. Ding, F. Lipparini, F. Egidi, J. Goings, B. Peng, A. Petrone, 
 T. Henderson, D. Ranasinghe, V. G. Zakrzewski, J. Gao, N. Rega, 
 G. Zheng, W. Liang, M. Hada, M. Ehara, K. Toyota, R. Fukuda, 
 J. Hasegawa, M. Ishida, T. Nakajima, Y. Honda, O. Kitao, H. Nakai, 
 T. Vreven, K. Throssell, J. A. Montgomery, Jr., J. E. Peralta, 
 F. Ogliaro, M. J. Bearpark, J. J. Heyd, E. N. Brothers, K. N. Kudin, 
 V. N. Staroverov, T. A. Keith, R. Kobayashi, J. Normand, 
 K. Raghavachari, A. P. Rendell, J. C. Burant, S. S. Iyengar, 
 J. Tomasi, M. Cossi, J. M. Millam, M. Klene, C. Adamo, R. Cammi, 
 J. W. Ochterski, R. L. Martin, K. Morokuma, O. Farkas, 
 J. B. Foresman, and D. J. Fox, Gaussian, Inc., Wallingford CT, 2016.
 
 ******************************************
 Gaussian 16:  ES64L-G16RevA.03 25-Dec-2016
                29-May-2023 
 ******************************************
 %chk=CdCqCOrCCC1CdCqCrCO1.chk
 %NProcShared=20
 Will use up to   20 processors via shared memory.
 -----------------------------
 # opt freq b3lyp/6-31g(2df,p)
 -----------------------------
 1/18=20,19=15,26=3,38=1/1,3;
 2/9=110,12=2,17=6,18=5,40=1/2;
 3/5=1,6=6,7=104,11=2,25=1,30=1,71=1,74=-5/1,2,3;
 4//1;
 5/5=2,38=5/2;
 6/7=2,8=2,9=2,10=2,28=1/1;
 7//1,2,3,16;
 1/18=20,19=15,26=3/3(2);
 2/9=110/2;
 99//99;
 2/9=110/2;
 3/5=1,6=6,7=104,11=2,25=1,30=1,71=1,74=-5/1,2,3;
 4/5=5,16=3,69=1/1;
 5/5=2,38=5/2;
 7//1,2,3,16;
 1/18=20,19=15,26=3/3(-5);
 2/9=110/2;
 6/7=2,8=2,9=2,10=2,19=2,28=1/1;
 99/9=1/99;
 -------------------
 Title Card Required
 -------------------
 Symbolic Z-matrix:
 Charge =  0 Multiplicity = 1
 C                     0.98212  -0.03963   0.12425 
 C                     2.32681  -0.01382   0.05122 
 C                     3.08651   0.53733  -1.13269 
 O                     2.21984   0.99689  -2.15778 
 C                     3.13699  -0.55132   1.21718 
 C                     4.6659   -0.46542   1.06628 
 C                     5.37773  -1.07086   2.27074 
 C                     5.33642  -2.55611   2.2516 
 C                     6.54383  -3.04355   2.51862 
 C                     6.91822  -4.4751    2.581 
 C                     7.49046  -1.92058   2.74819 
 O                     6.78815  -0.76456   2.23849 
 H                     0.35669   0.35838  -0.66883 
 H                     0.4616   -0.44009   0.98903 
 H                     3.72767  -0.23588  -1.56817 
 H                     3.7106    1.38094  -0.82387 
 H                     1.68855   0.22946  -2.42625 
 H                     2.84353  -1.59671   1.37974 
 H                     2.85106  -0.00159   2.12486 
 H                     4.9779    0.57856   0.94439 
 H                     4.98505  -0.98953   0.15525 
 H                     4.96817  -0.67187   3.20494 
 H                     4.45853  -3.14656   2.03488 
 H                     6.05752  -5.1089    2.33762 
 H                     7.25811  -4.74261   3.58462 
 H                     7.70928  -4.70048   1.8606 
 H                     8.43231  -2.02688   2.20408 
 H                     7.69397  -1.77134   3.81436 
 

 GradGradGradGradGradGradGradGradGradGradGradGradGradGradGradGradGradGrad
 Berny optimization.
 Initialization pass.
                           ----------------------------
                           !    Initial Parameters    !
                           ! (Angstroms and Degrees)  !
 --------------------------                            --------------------------
 ! Name  Definition              Value          Derivative Info.                !
 --------------------------------------------------------------------------------
 ! R1    R(1,2)                  1.3469         estimate D2E/DX2                !
 ! R2    R(1,13)                 1.0856         estimate D2E/DX2                !
 ! R3    R(1,14)                 1.0859         estimate D2E/DX2                !
 ! R4    R(2,3)                  1.5108         estimate D2E/DX2                !
 ! R5    R(2,5)                  1.5181         estimate D2E/DX2                !
 ! R6    R(3,4)                  1.4188         estimate D2E/DX2                !
 ! R7    R(3,15)                 1.0948         estimate D2E/DX2                !
 ! R8    R(3,16)                 1.0939         estimate D2E/DX2                !
 ! R9    R(4,17)                 0.9712         estimate D2E/DX2                !
 ! R10   R(5,6)                  1.5387         estimate D2E/DX2                !
 ! R11   R(5,18)                 1.0979         estimate D2E/DX2                !
 ! R12   R(5,19)                 1.099          estimate D2E/DX2                !
 ! R13   R(6,7)                  1.5245         estimate D2E/DX2                !
 ! R14   R(6,20)                 1.0964         estimate D2E/DX2                !
 ! R15   R(6,21)                 1.0984         estimate D2E/DX2                !
 ! R16   R(7,8)                  1.4859         estimate D2E/DX2                !
 ! R17   R(7,12)                 1.4437         estimate D2E/DX2                !
 ! R18   R(7,22)                 1.0953         estimate D2E/DX2                !
 ! R19   R(8,9)                  1.3292         estimate D2E/DX2                !
 ! R20   R(8,23)                 1.0799         estimate D2E/DX2                !
 ! R21   R(9,10)                 1.481          estimate D2E/DX2                !
 ! R22   R(9,11)                 1.4866         estimate D2E/DX2                !
 ! R23   R(10,24)                1.0962         estimate D2E/DX2                !
 ! R24   R(10,25)                1.0929         estimate D2E/DX2                !
 ! R25   R(10,26)                1.0934         estimate D2E/DX2                !
 ! R26   R(11,12)                1.4455         estimate D2E/DX2                !
 ! R27   R(11,27)                1.0929         estimate D2E/DX2                !
 ! R28   R(11,28)                1.0956         estimate D2E/DX2                !
 ! A1    A(2,1,13)             121.9055         estimate D2E/DX2                !
 ! A2    A(2,1,14)             121.9246         estimate D2E/DX2                !
 ! A3    A(13,1,14)            116.1571         estimate D2E/DX2                !
 ! A4    A(1,2,3)              123.4692         estimate D2E/DX2                !
 ! A5    A(1,2,5)              118.9702         estimate D2E/DX2                !
 ! A6    A(3,2,5)              117.558          estimate D2E/DX2                !
 ! A7    A(2,3,4)              112.1581         estimate D2E/DX2                !
 ! A8    A(2,3,15)             110.3983         estimate D2E/DX2                !
 ! A9    A(2,3,16)             110.304          estimate D2E/DX2                !
 ! A10   A(4,3,15)             107.4035         estimate D2E/DX2                !
 ! A11   A(4,3,16)             107.6184         estimate D2E/DX2                !
 ! A12   A(15,3,16)            108.8353         estimate D2E/DX2                !
 ! A13   A(3,4,17)             106.136          estimate D2E/DX2                !
 ! A14   A(2,5,6)              115.7964         estimate D2E/DX2                !
 ! A15   A(2,5,18)             107.9501         estimate D2E/DX2                !
 ! A16   A(2,5,19)             108.5641         estimate D2E/DX2                !
 ! A17   A(6,5,18)             109.4668         estimate D2E/DX2                !
 ! A18   A(6,5,19)             108.1543         estimate D2E/DX2                !
 ! A19   A(18,5,19)            106.526          estimate D2E/DX2                !
 ! A20   A(5,6,7)              111.3647         estimate D2E/DX2                !
 ! A21   A(5,6,20)             110.2922         estimate D2E/DX2                !
 ! A22   A(5,6,21)             110.0841         estimate D2E/DX2                !
 ! A23   A(7,6,20)             109.4584         estimate D2E/DX2                !
 ! A24   A(7,6,21)             109.2767         estimate D2E/DX2                !
 ! A25   A(20,6,21)            106.2272         estimate D2E/DX2                !
 ! A26   A(6,7,8)              111.9505         estimate D2E/DX2                !
 ! A27   A(6,7,12)             110.749          estimate D2E/DX2                !
 ! A28   A(6,7,22)             110.7696         estimate D2E/DX2                !
 ! A29   A(8,7,12)             103.8241         estimate D2E/DX2                !
 ! A30   A(8,7,22)             111.389          estimate D2E/DX2                !
 ! A31   A(12,7,22)            107.8836         estimate D2E/DX2                !
 ! A32   A(7,8,9)              109.7981         estimate D2E/DX2                !
 ! A33   A(7,8,23)             124.8665         estimate D2E/DX2                !
 ! A34   A(9,8,23)             125.3267         estimate D2E/DX2                !
 ! A35   A(8,9,10)             126.3394         estimate D2E/DX2                !
 ! A36   A(8,9,11)             109.4174         estimate D2E/DX2                !
 ! A37   A(10,9,11)            124.243          estimate D2E/DX2                !
 ! A38   A(9,10,24)            110.5497         estimate D2E/DX2                !
 ! A39   A(9,10,25)            110.7265         estimate D2E/DX2                !
 ! A40   A(9,10,26)            110.7555         estimate D2E/DX2                !
 ! A41   A(24,10,25)           107.8514         estimate D2E/DX2                !
 ! A42   A(24,10,26)           107.6128         estimate D2E/DX2                !
 ! A43   A(25,10,26)           109.244          estimate D2E/DX2                !
 ! A44   A(9,11,12)            103.9037         estimate D2E/DX2                !
 ! A45   A(9,11,27)            113.4794         estimate D2E/DX2                !
 ! A46   A(9,11,28)            111.8055         estimate D2E/DX2                !
 ! A47   A(12,11,27)           108.7202         estimate D2E/DX2                !
 ! A48   A(12,11,28)           108.932          estimate D2E/DX2                !
 ! A49   A(27,11,28)           109.7334         estimate D2E/DX2                !
 ! A50   A(7,12,11)            107.2848         estimate D2E/DX2                !
 ! D1    D(13,1,2,3)            -1.2183         estimate D2E/DX2                !
 ! D2    D(13,1,2,5)           178.1911         estimate D2E/DX2                !
 ! D3    D(14,1,2,3)          -179.8683         estimate D2E/DX2                !
 ! D4    D(14,1,2,5)            -0.4589         estimate D2E/DX2                !
 ! D5    D(1,2,3,4)             -1.0764         estimate D2E/DX2                !
 ! D6    D(1,2,3,15)          -120.8116         estimate D2E/DX2                !
 ! D7    D(1,2,3,16)           118.8666         estimate D2E/DX2                !
 ! D8    D(5,2,3,4)            179.5064         estimate D2E/DX2                !
 ! D9    D(5,2,3,15)            59.7712         estimate D2E/DX2                !
 ! D10   D(5,2,3,16)           -60.5505         estimate D2E/DX2                !
 ! D11   D(1,2,5,6)           -179.0395         estimate D2E/DX2                !
 ! D12   D(1,2,5,18)            57.8902         estimate D2E/DX2                !
 ! D13   D(1,2,5,19)           -57.2107         estimate D2E/DX2                !
 ! D14   D(3,2,5,6)              0.4048         estimate D2E/DX2                !
 ! D15   D(3,2,5,18)          -122.6655         estimate D2E/DX2                !
 ! D16   D(3,2,5,19)           122.2336         estimate D2E/DX2                !
 ! D17   D(2,3,4,17)           -59.5005         estimate D2E/DX2                !
 ! D18   D(15,3,4,17)           61.9688         estimate D2E/DX2                !
 ! D19   D(16,3,4,17)          179.0035         estimate D2E/DX2                !
 ! D20   D(2,5,6,7)           -178.2108         estimate D2E/DX2                !
 ! D21   D(2,5,6,20)            60.0525         estimate D2E/DX2                !
 ! D22   D(2,5,6,21)           -56.8468         estimate D2E/DX2                !
 ! D23   D(18,5,6,7)           -55.9416         estimate D2E/DX2                !
 ! D24   D(18,5,6,20)         -177.6783         estimate D2E/DX2                !
 ! D25   D(18,5,6,21)           65.4224         estimate D2E/DX2                !
 ! D26   D(19,5,6,7)            59.7421         estimate D2E/DX2                !
 ! D27   D(19,5,6,20)          -61.9946         estimate D2E/DX2                !
 ! D28   D(19,5,6,21)         -178.8939         estimate D2E/DX2                !
 ! D29   D(5,6,7,8)             75.3584         estimate D2E/DX2                !
 ! D30   D(5,6,7,12)          -169.2902         estimate D2E/DX2                !
 ! D31   D(5,6,7,22)           -49.6279         estimate D2E/DX2                !
 ! D32   D(20,6,7,8)          -162.4221         estimate D2E/DX2                !
 ! D33   D(20,6,7,12)          -47.0707         estimate D2E/DX2                !
 ! D34   D(20,6,7,22)           72.5916         estimate D2E/DX2                !
 ! D35   D(21,6,7,8)           -46.4751         estimate D2E/DX2                !
 ! D36   D(21,6,7,12)           68.8764         estimate D2E/DX2                !
 ! D37   D(21,6,7,22)         -171.4613         estimate D2E/DX2                !
 ! D38   D(6,7,8,9)            133.6084         estimate D2E/DX2                !
 ! D39   D(6,7,8,23)           -45.3643         estimate D2E/DX2                !
 ! D40   D(12,7,8,9)            14.1013         estimate D2E/DX2                !
 ! D41   D(12,7,8,23)         -164.8714         estimate D2E/DX2                !
 ! D42   D(22,7,8,9)          -101.7487         estimate D2E/DX2                !
 ! D43   D(22,7,8,23)           79.2786         estimate D2E/DX2                !
 ! D44   D(6,7,12,11)         -143.5057         estimate D2E/DX2                !
 ! D45   D(8,7,12,11)          -23.1824         estimate D2E/DX2                !
 ! D46   D(22,7,12,11)          95.1148         estimate D2E/DX2                !
 ! D47   D(7,8,9,10)          -179.4428         estimate D2E/DX2                !
 ! D48   D(7,8,9,11)             0.4066         estimate D2E/DX2                !
 ! D49   D(23,8,9,10)           -0.476          estimate D2E/DX2                !
 ! D50   D(23,8,9,11)          179.3735         estimate D2E/DX2                !
 ! D51   D(8,9,10,24)            2.0351         estimate D2E/DX2                !
 ! D52   D(8,9,10,25)         -117.4296         estimate D2E/DX2                !
 ! D53   D(8,9,10,26)          121.2208         estimate D2E/DX2                !
 ! D54   D(11,9,10,24)        -177.7932         estimate D2E/DX2                !
 ! D55   D(11,9,10,25)          62.7422         estimate D2E/DX2                !
 ! D56   D(11,9,10,26)         -58.6075         estimate D2E/DX2                !
 ! D57   D(8,9,11,12)          -14.7409         estimate D2E/DX2                !
 ! D58   D(8,9,11,27)         -132.6461         estimate D2E/DX2                !
 ! D59   D(8,9,11,28)          102.5839         estimate D2E/DX2                !
 ! D60   D(10,9,11,12)         165.1124         estimate D2E/DX2                !
 ! D61   D(10,9,11,27)          47.2072         estimate D2E/DX2                !
 ! D62   D(10,9,11,28)         -77.5628         estimate D2E/DX2                !
 ! D63   D(9,11,12,7)           23.4439         estimate D2E/DX2                !
 ! D64   D(27,11,12,7)         144.5924         estimate D2E/DX2                !
 ! D65   D(28,11,12,7)         -95.8612         estimate D2E/DX2                !
 --------------------------------------------------------------------------------
 Trust Radius=3.00D-01 FncErr=1.00D-07 GrdErr=1.00D-06 EigMax=2.50D+02 EigMin=1.00D-04
 Number of steps in this run=    153 maximum allowed number of steps=    168.
 GradGradGradGradGradGradGradGradGradGradGradGradGradGradGradGradGradGrad

                          Input orientation:                          
 ---------------------------------------------------------------------
 Center     Atomic      Atomic             Coordinates (Angstroms)
 Number     Number       Type             X           Y           Z
 ---------------------------------------------------------------------
      1          6           0        0.982120   -0.039630    0.124250
      2          6           0        2.326810   -0.013820    0.051220
      3          6           0        3.086510    0.537330   -1.132690
      4          8           0        2.219840    0.996890   -2.157780
      5          6           0        3.136990   -0.551320    1.217180
      6          6           0        4.665900   -0.465420    1.066280
      7          6           0        5.377730   -1.070860    2.270740
      8          6           0        5.336420   -2.556110    2.251600
      9          6           0        6.543830   -3.043550    2.518620
     10          6           0        6.918220   -4.475100    2.581000
     11          6           0        7.490460   -1.920580    2.748190
     12          8           0        6.788150   -0.764560    2.238490
     13          1           0        0.356690    0.358380   -0.668830
     14          1           0        0.461600   -0.440090    0.989030
     15          1           0        3.727670   -0.235880   -1.568170
     16          1           0        3.710600    1.380940   -0.823870
     17          1           0        1.688550    0.229460   -2.426250
     18          1           0        2.843530   -1.596710    1.379740
     19          1           0        2.851060   -0.001590    2.124860
     20          1           0        4.977900    0.578560    0.944390
     21          1           0        4.985050   -0.989530    0.155250
     22          1           0        4.968170   -0.671870    3.204940
     23          1           0        4.458530   -3.146560    2.034880
     24          1           0        6.057520   -5.108900    2.337620
     25          1           0        7.258110   -4.742610    3.584620
     26          1           0        7.709280   -4.700480    1.860600
     27          1           0        8.432310   -2.026880    2.204080
     28          1           0        7.693970   -1.771340    3.814360
 ---------------------------------------------------------------------
                    Distance matrix (angstroms):
                    1          2          3          4          5
     1  C    0.000000
     2  C    1.346919   0.000000
     3  C    2.518182   1.510812   0.000000
     4  O    2.795351   2.431596   1.418845   0.000000
     5  C    2.469775   1.518144   2.590289   3.824719   0.000000
     6  C    3.826088   2.589523   2.887118   4.303036   1.538738
     7  C    4.999224   3.918127   4.406733   5.818904   2.529985
     8  C    5.460606   4.512501   5.107336   6.463707   3.150667
     9  C    6.759376   5.748964   6.173154   7.542596   4.417184
    10  C    7.806811   6.883593   7.321062   8.629802   5.617273
    11  C    7.265089   6.129654   6.363751   7.769145   4.813685
    12  O    6.221376   5.025069   5.173192   6.580224   3.797304
    13  H    1.085611   2.130347   2.774726   2.469007   3.480611
    14  H    1.085888   2.130775   3.513858   3.880558   2.687403
    15  H    3.231230   2.152706   1.094798   2.034923   2.864713
    16  H    3.218937   2.150817   1.093863   2.036953   2.868544
    17  H    2.660170   2.569906   1.929345   0.971233   3.997772
    18  H    2.732325   2.130142   3.305370   4.430553   1.097900
    19  H    2.738033   2.138918   3.310212   4.442568   1.099019
    20  H    4.125657   2.859536   2.809505   4.171972   2.177152
    21  H    4.114209   2.833562   2.755820   4.116110   2.176017
    22  H    5.077300   4.166025   4.880353   6.252747   2.705354
    23  H    5.038745   4.277055   5.048464   6.305419   3.024958
    24  H    7.507076   6.716075   7.262910   8.498063   5.527786
    25  H    8.572061   7.691820   8.217848   9.555165   6.336822
    26  H    8.366189   7.362718   7.600292   8.873633   6.207685
    27  H    7.986250   6.779701   6.803439   8.170911   5.584950
    28  H    7.852685   6.786494   7.143665   8.561288   5.385152
                    6          7          8          9         10
     6  C    0.000000
     7  C    1.524462   0.000000
     8  C    2.495108   1.485948   0.000000
     9  C    3.504664   2.304938   1.329186   0.000000
    10  C    4.841989   3.749429   2.508609   1.481011   0.000000
    11  C    3.595059   2.326717   2.300084   1.486564   2.623163
    12  O    2.442848   1.443657   2.305937   2.309104   3.728584
    13  H    4.717896   5.991214   6.466906   7.746849   8.773688
    14  H    4.205086   5.119471   5.462188   6.790521   7.778407
    15  H    2.805939   4.261117   4.749967   5.702247   6.735444
    16  H    2.809682   4.285704   5.253777   6.227001   7.495010
    17  H    4.641685   6.112495   6.553521   7.664077   8.634517
    18  H    2.167742   2.737256   2.809820   4.133112   5.131399
    19  H    2.151598   2.747486   3.566322   4.800533   6.063180
    20  H    1.096401   2.153986   3.415185   4.248531   5.655335
    21  H    1.098419   2.153163   2.640515   3.497758   4.665898
    22  H    2.169759   1.095291   2.143554   2.928926   4.319323
    23  H    2.858269   2.282343   1.079949   2.143150   2.848393
    24  H    5.011469   4.095407   2.654076   2.129537   1.096239
    25  H    5.599638   4.329418   3.201658   2.129168   1.092859
    26  H    5.275305   4.333415   3.222060   2.129949   1.093411
    27  H    4.233036   3.201387   3.141159   2.167697   2.903157
    28  H    4.292619   2.870262   2.935324   2.149484   3.071365
                   11         12         13         14         15
    11  C    0.000000
    12  O    1.445481   0.000000
    13  H    8.231668   7.146830   0.000000
    14  H    7.395361   6.456908   1.843112   0.000000
    15  H    5.968900   4.912912   3.539133   4.153094   0.000000
    16  H    6.160113   4.842782   3.509755   4.142313   1.779995
    17  H    8.065957   6.982392   2.208845   3.690236   2.260720
    18  H    4.855049   4.121887   3.768738   2.676568   3.365076
    19  H    5.059160   4.011946   3.762468   2.681774   3.802868
    20  H    3.976475   2.599167   4.899647   4.629968   2.922216
    21  H    3.723879   2.764357   4.890571   4.632351   2.262558
    22  H    2.851288   2.062752   6.110095   5.027241   4.950910
    23  H    3.347303   3.338040   6.034877   4.939052   4.689156
    24  H    3.519555   4.406465   8.451589   7.411532   6.665562
    25  H    2.952534   4.225850   9.578180   8.452296   7.702329
    26  H    2.926353   4.059895   9.276350   8.452184   6.895095
    27  H    1.092903   2.073137   8.897118   8.217449   6.290563
    28  H    1.095631   2.077855   8.858351   7.877937   6.860088
                   16         17         18         19         20
    16  H    0.000000
    17  H    2.825281   0.000000
    18  H    3.804485   4.376578   0.000000
    19  H    3.368265   4.702916   1.760587   0.000000
    20  H    2.318751   4.722595   3.078452   2.500706   0.000000
    21  H    2.863918   4.360848   2.540502   3.067459   1.755477
    22  H    4.693274   6.578648   2.949708   2.469413   2.583361
    23  H    5.406488   6.242754   2.332267   3.533114   3.916048
    24  H    7.590855   8.383343   4.856207   6.034175   5.954315
    25  H    8.337714   9.584990   5.852068   6.635530   6.362784
    26  H    7.757544   8.884288   5.791385   6.764000   6.013995
    27  H    6.563251   8.485831   5.665602   5.937881   4.506449
    28  H    6.878756   8.888953   5.429976   5.425883   4.597368
                   21         22         23         24         25
    21  H    0.000000
    22  H    3.066236   0.000000
    23  H    2.909125   2.784397   0.000000
    24  H    4.783528   4.650394   2.549353   0.000000
    25  H    5.568931   4.686033   3.575852   1.769348   0.000000
    26  H    4.909256   5.054763   3.607273   1.767107   1.782575
    27  H    4.142149   3.852017   4.131978   3.893110   3.264939
    28  H    4.619368   3.001702   3.940286   3.999755   3.011843
                   26         27         28
    26  H    0.000000
    27  H    2.790858   0.000000
    28  H    3.520976   1.789818   0.000000
 Stoichiometry    C10H16O2
 Framework group  C1[X(C10H16O2)]
 Deg. of freedom    78
 Full point group                 C1      NOp   1
 Largest Abelian subgroup         C1      NOp   1
 Largest concise Abelian subgroup C1      NOp   1
                         Standard orientation:                         
 ---------------------------------------------------------------------
 Center     Atomic      Atomic             Coordinates (Angstroms)
 Number     Number       Type             X           Y           Z
 ---------------------------------------------------------------------
      1          6           0       -3.554934    1.348764   -0.680987
      2          6           0       -2.655861    0.435905   -0.265599
      3          6           0       -2.997606   -0.709705    0.658165
      4          8           0       -4.361095   -0.692542    1.050243
      5          6           0       -1.221771    0.541888   -0.752340
      6          6           0       -0.261981   -0.551395   -0.251090
      7          6           0        1.155524   -0.323654   -0.763726
      8          6           0        1.837818    0.779522   -0.038800
      9          6           0        3.064560    0.400972    0.305499
     10          6           0        4.056258    1.210525    1.050183
     11          6           0        3.305792   -0.986230   -0.171314
     12          8           0        1.985801   -1.474910   -0.500297
     13          1           0       -4.598618    1.301696   -0.385930
     14          1           0       -3.282057    2.161543   -1.347382
     15          1           0       -2.393989   -0.657702    1.570045
     16          1           0       -2.807533   -1.666329    0.162909
     17          1           0       -4.501851    0.156494    1.500375
     18          1           0       -0.837423    1.528052   -0.460551
     19          1           0       -1.222640    0.519302   -1.851126
     20          1           0       -0.611589   -1.540120   -0.570920
     21          1           0       -0.251831   -0.569854    0.847127
     22          1           0        1.154262   -0.150253   -1.845203
     23          1           0        1.393114    1.737205    0.187852
     24          1           0        3.630997    2.182910    1.324702
     25          1           0        4.943537    1.393442    0.438940
     26          1           0        4.352744    0.706385    1.974027
     27          1           0        3.741781   -1.638544    0.589499
     28          1           0        3.926646   -1.004162   -1.073881
 ---------------------------------------------------------------------
 Rotational constants (GHZ):           2.1664583           0.3433906           0.3291494
 Standard basis: 6-31G(2df,p) (6D, 7F)
 There are   452 symmetry adapted cartesian basis functions of A   symmetry.
 There are   416 symmetry adapted basis functions of A   symmetry.
   416 basis functions,   640 primitive gaussians,   452 cartesian basis functions
    46 alpha electrons       46 beta electrons
       nuclear repulsion energy       692.9923119286 Hartrees.
 NAtoms=   28 NActive=   28 NUniq=   28 SFac= 1.00D+00 NAtFMM=   60 NAOKFM=F Big=F
 Integral buffers will be    131072 words long.
 Raffenetti 2 integral format.
 Two-electron integral symmetry is turned on.
 One-electron integrals computed using PRISM.
 PrsmSu:  requested number of processors reduced to:  13 ShMem   1 Linda.
 NBasis=   416 RedAO= T EigKep=  3.77D-04  NBF=   416
 NBsUse=   416 1.00D-06 EigRej= -1.00D+00 NBFU=   416
 ExpMin= 1.61D-01 ExpMax= 5.48D+03 ExpMxC= 8.25D+02 IAcc=3 IRadAn=         5 AccDes= 0.00D+00
 Harris functional with IExCor=  402 and IRadAn=       5 diagonalized for initial guess.
 HarFok:  IExCor=  402 AccDes= 0.00D+00 IRadAn=         5 IDoV= 1 UseB2=F ITyADJ=14
 ICtDFT=  3500011 ScaDFX=  1.000000  1.000000  1.000000  1.000000
 FoFCou: FMM=F IPFlag=           0 FMFlag=      100000 FMFlg1=           0
         NFxFlg=           0 DoJE=T BraDBF=F KetDBF=T FulRan=T
         wScrn=  0.000000 ICntrl=       500 IOpCl=  0 I1Cent=   200000004 NGrid=           0
         NMat0=    1 NMatS0=      1 NMatT0=    0 NMatD0=    1 NMtDS0=    0 NMtDT0=    0
 Petite list used in FoFCou.
 Requested convergence on RMS density matrix=1.00D-08 within 128 cycles.
 Requested convergence on MAX density matrix=1.00D-06.
 Requested convergence on             energy=1.00D-06.
 No special actions if energy rises.
 Integral accuracy reduced to 1.0D-05 until final iterations.
 Initial convergence to 1.0D-05 achieved.  Increase integral accuracy.
 SCF Done:  E(RB3LYP) =  -541.117375600     A.U. after   13 cycles
            NFock= 13  Conv=0.46D-08     -V/T= 2.0076

 **********************************************************************

            Population analysis using the SCF density.

 **********************************************************************

 Orbital symmetries:
       Occupied  (A) (A) (A) (A) (A) (A) (A) (A) (A) (A) (A) (A)
                 (A) (A) (A) (A) (A) (A) (A) (A) (A) (A) (A) (A)
                 (A) (A) (A) (A) (A) (A) (A) (A) (A) (A) (A) (A)
                 (A) (A) (A) (A) (A) (A) (A) (A) (A) (A)
       Virtual   (A) (A) (A) (A) (A) (A) (A) (A) (A) (A) (A) (A)
                 (A) (A) (A) (A) (A) (A) (A) (A) (A) (A) (A) (A)
                 (A) (A) (A) (A) (A) (A) (A) (A) (A) (A) (A) (A)
                 (A) (A) (A) (A) (A) (A) (A) (A) (A) (A) (A) (A)
                 (A) (A) (A) (A) (A) (A) (A) (A) (A) (A) (A) (A)
                 (A) (A) (A) (A) (A) (A) (A) (A) (A) (A) (A) (A)
                 (A) (A) (A) (A) (A) (A) (A) (A) (A) (A) (A) (A)
                 (A) (A) (A) (A) (A) (A) (A) (A) (A) (A) (A) (A)
                 (A) (A) (A) (A) (A) (A) (A) (A) (A) (A) (A) (A)
                 (A) (A) (A) (A) (A) (A) (A) (A) (A) (A) (A) (A)
                 (A) (A) (A) (A) (A) (A) (A) (A) (A) (A) (A) (A)
                 (A) (A) (A) (A) (A) (A) (A) (A) (A) (A) (A) (A)
                 (A) (A) (A) (A) (A) (A) (A) (A) (A) (A) (A) (A)
                 (A) (A) (A) (A) (A) (A) (A) (A) (A) (A) (A) (A)
                 (A) (A) (A) (A) (A) (A) (A) (A) (A) (A) (A) (A)
                 (A) (A) (A) (A) (A) (A) (A) (A) (A) (A) (A) (A)
                 (A) (A) (A) (A) (A) (A) (A) (A) (A) (A) (A) (A)
                 (A) (A) (A) (A) (A) (A) (A) (A) (A) (A) (A) (A)
                 (A) (A) (A) (A) (A) (A) (A) (A) (A) (A) (A) (A)
                 (A) (A) (A) (A) (A) (A) (A) (A) (A) (A) (A) (A)
                 (A) (A) (A) (A) (A) (A) (A) (A) (A) (A) (A) (A)
                 (A) (A) (A) (A) (A) (A) (A) (A) (A) (A) (A) (A)
                 (A) (A) (A) (A) (A) (A) (A) (A) (A) (A) (A) (A)
                 (A) (A) (A) (A) (A) (A) (A) (A) (A) (A) (A) (A)
                 (A) (A) (A) (A) (A) (A) (A) (A) (A) (A) (A) (A)
                 (A) (A) (A) (A) (A) (A) (A) (A) (A) (A) (A) (A)
                 (A) (A) (A) (A) (A) (A) (A) (A) (A) (A) (A) (A)
                 (A) (A) (A) (A) (A) (A) (A) (A) (A) (A) (A) (A)
                 (A) (A) (A) (A) (A) (A) (A) (A) (A) (A) (A) (A)
                 (A) (A) (A) (A) (A) (A) (A) (A) (A) (A) (A) (A)
                 (A) (A) (A) (A) (A) (A) (A) (A) (A) (A)
 The electronic state is 1-A.
 Alpha  occ. eigenvalues --  -19.13221 -19.12882 -10.22932 -10.22737 -10.22605
 Alpha  occ. eigenvalues --  -10.19129 -10.18795 -10.18788 -10.18764 -10.18035
 Alpha  occ. eigenvalues --  -10.17370 -10.16750  -1.02276  -1.01394  -0.81598
 Alpha  occ. eigenvalues --   -0.80697  -0.76734  -0.70741  -0.69177  -0.67934
 Alpha  occ. eigenvalues --   -0.62949  -0.57604  -0.54723  -0.53559  -0.49231
 Alpha  occ. eigenvalues --   -0.48939  -0.47566  -0.46273  -0.45451  -0.43926
 Alpha  occ. eigenvalues --   -0.42467  -0.41987  -0.41391  -0.40164  -0.38619
 Alpha  occ. eigenvalues --   -0.37214  -0.36838  -0.35846  -0.34548  -0.33400
 Alpha  occ. eigenvalues --   -0.32222  -0.31752  -0.26751  -0.25787  -0.23977
 Alpha  occ. eigenvalues --   -0.23264
 Alpha virt. eigenvalues --    0.01633   0.01908   0.07969   0.09536   0.09749
 Alpha virt. eigenvalues --    0.10543   0.11971   0.12322   0.13766   0.14575
 Alpha virt. eigenvalues --    0.14887   0.15629   0.16885   0.17032   0.17650
 Alpha virt. eigenvalues --    0.18121   0.19675   0.20119   0.21079   0.21799
 Alpha virt. eigenvalues --    0.23505   0.24031   0.25753   0.26595   0.28489
 Alpha virt. eigenvalues --    0.30879   0.32018   0.32326   0.35365   0.40153
 Alpha virt. eigenvalues --    0.42051   0.43908   0.44932   0.46681   0.49033
 Alpha virt. eigenvalues --    0.49471   0.49976   0.50947   0.51524   0.52397
 Alpha virt. eigenvalues --    0.53878   0.54278   0.55977   0.56765   0.57467
 Alpha virt. eigenvalues --    0.57836   0.58650   0.61046   0.61791   0.63771
 Alpha virt. eigenvalues --    0.64212   0.65563   0.66382   0.66628   0.68035
 Alpha virt. eigenvalues --    0.70007   0.70988   0.71512   0.72067   0.72805
 Alpha virt. eigenvalues --    0.73166   0.74178   0.74493   0.75323   0.75979
 Alpha virt. eigenvalues --    0.76957   0.78073   0.79147   0.79731   0.80390
 Alpha virt. eigenvalues --    0.81304   0.82328   0.82754   0.83927   0.84755
 Alpha virt. eigenvalues --    0.86363   0.86608   0.86729   0.88984   0.89703
 Alpha virt. eigenvalues --    0.90504   0.92905   0.93114   0.96109   0.98148
 Alpha virt. eigenvalues --    0.99164   0.99649   1.00224   1.02340   1.05959
 Alpha virt. eigenvalues --    1.07630   1.09235   1.10803   1.11850   1.14402
 Alpha virt. eigenvalues --    1.15040   1.16013   1.17595   1.19812   1.21847
 Alpha virt. eigenvalues --    1.22539   1.24778   1.26305   1.28907   1.30047
 Alpha virt. eigenvalues --    1.32135   1.33888   1.35913   1.37619   1.39657
 Alpha virt. eigenvalues --    1.39884   1.41183   1.41930   1.43163   1.45060
 Alpha virt. eigenvalues --    1.48209   1.48718   1.50233   1.51025   1.51681
 Alpha virt. eigenvalues --    1.53636   1.54501   1.57808   1.59199   1.60814
 Alpha virt. eigenvalues --    1.63010   1.63983   1.65300   1.66936   1.68764
 Alpha virt. eigenvalues --    1.69376   1.70284   1.73144   1.73816   1.76448
 Alpha virt. eigenvalues --    1.77981   1.79678   1.80578   1.83107   1.85020
 Alpha virt. eigenvalues --    1.88463   1.88945   1.90235   1.92266   1.94457
 Alpha virt. eigenvalues --    1.94529   1.96358   1.98080   2.01198   2.03559
 Alpha virt. eigenvalues --    2.05750   2.09314   2.11757   2.12490   2.15273
 Alpha virt. eigenvalues --    2.17439   2.19585   2.22414   2.23768   2.25564
 Alpha virt. eigenvalues --    2.26015   2.30655   2.30873   2.34751   2.36750
 Alpha virt. eigenvalues --    2.38670   2.40147   2.42655   2.43265   2.44754
 Alpha virt. eigenvalues --    2.48234   2.50901   2.51825   2.54736   2.57141
 Alpha virt. eigenvalues --    2.58644   2.62261   2.64623   2.68932   2.70494
 Alpha virt. eigenvalues --    2.71090   2.72793   2.74997   2.75028   2.76454
 Alpha virt. eigenvalues --    2.78514   2.79898   2.80484   2.81685   2.82685
 Alpha virt. eigenvalues --    2.83665   2.85924   2.87350   2.87853   2.89585
 Alpha virt. eigenvalues --    2.91812   2.93095   2.93682   2.94657   2.95942
 Alpha virt. eigenvalues --    2.96298   2.96585   2.97960   3.01218   3.03152
 Alpha virt. eigenvalues --    3.05310   3.05909   3.06493   3.07763   3.12037
 Alpha virt. eigenvalues --    3.14584   3.17868   3.18779   3.19014   3.20394
 Alpha virt. eigenvalues --    3.22555   3.24809   3.24981   3.26385   3.27498
 Alpha virt. eigenvalues --    3.29484   3.30395   3.31422   3.33988   3.34821
 Alpha virt. eigenvalues --    3.36715   3.38470   3.40274   3.41004   3.42950
 Alpha virt. eigenvalues --    3.44209   3.46648   3.48721   3.49719   3.51074
 Alpha virt. eigenvalues --    3.51357   3.51803   3.55673   3.58339   3.59485
 Alpha virt. eigenvalues --    3.62601   3.64503   3.65814   3.66497   3.67734
 Alpha virt. eigenvalues --    3.69374   3.72135   3.72273   3.74294   3.75833
 Alpha virt. eigenvalues --    3.79167   3.80053   3.81883   3.84744   3.87146
 Alpha virt. eigenvalues --    3.88675   3.89029   3.94100   3.95551   3.98842
 Alpha virt. eigenvalues --    4.03218   4.04443   4.09109   4.11699   4.15815
 Alpha virt. eigenvalues --    4.17697   4.18952   4.21578   4.23437   4.29323
 Alpha virt. eigenvalues --    4.29924   4.35064   4.36491   4.37478   4.38786
 Alpha virt. eigenvalues --    4.40737   4.42354   4.44880   4.46634   4.46978
 Alpha virt. eigenvalues --    4.49343   4.49727   4.50844   4.51666   4.53032
 Alpha virt. eigenvalues --    4.53767   4.54228   4.56601   4.57110   4.57617
 Alpha virt. eigenvalues --    4.58772   4.59255   4.62221   4.63400   4.64795
 Alpha virt. eigenvalues --    4.65351   4.68439   4.68505   4.70033   4.70557
 Alpha virt. eigenvalues --    4.71912   4.74243   4.74741   4.76441   4.76622
 Alpha virt. eigenvalues --    4.77366   4.78564   4.79093   4.81605   4.82283
 Alpha virt. eigenvalues --    4.83187   4.84517   4.85652   4.87705   4.89912
 Alpha virt. eigenvalues --    4.90821   4.93196   4.93333   4.97587   5.00047
 Alpha virt. eigenvalues --    5.04879   5.07641   5.08958   5.10466   5.17050
 Alpha virt. eigenvalues --    5.19807   5.23522   5.26945   5.30102   5.33393
 Alpha virt. eigenvalues --    5.39057   5.41737   5.43477   5.45666   5.47525
 Alpha virt. eigenvalues --    5.51214   5.51906   5.54054   5.57693   5.60399
 Alpha virt. eigenvalues --    5.62375   5.65728   5.68133   5.70284   5.74868
 Alpha virt. eigenvalues --    5.79614   5.84384   5.92213   5.99530   6.06065
 Alpha virt. eigenvalues --    6.07523   6.10365   6.15762   6.24984   6.50778
 Alpha virt. eigenvalues --    6.69837   7.03828   7.11531  10.26987  10.33530
 Alpha virt. eigenvalues --   11.21103  11.35247  11.70657  11.80766  11.93255
 Alpha virt. eigenvalues --   12.12655  12.44051  12.67963  13.18988  13.52065
          Condensed to atoms (all electrons):
               1          2          3          4          5          6
     1  C    5.153138   0.635993  -0.044450  -0.001875  -0.040644   0.002220
     2  C    0.635993   4.552792   0.382193  -0.063231   0.347776  -0.019676
     3  C   -0.044450   0.382193   4.842911   0.383022  -0.059968  -0.010200
     4  O   -0.001875  -0.063231   0.383022   7.825889   0.003096  -0.000092
     5  C   -0.040644   0.347776  -0.059968   0.003096   5.081472   0.343766
     6  C    0.002220  -0.019676  -0.010200  -0.000092   0.343766   4.984599
     7  C   -0.000002   0.001277   0.000020  -0.000002  -0.030152   0.393563
     8  C    0.000004   0.000033   0.000013   0.000000  -0.001274  -0.008590
     9  C    0.000000  -0.000016   0.000000  -0.000000   0.000839  -0.006818
    10  C    0.000000  -0.000000   0.000000   0.000000  -0.000006  -0.000114
    11  C   -0.000000   0.000001  -0.000000  -0.000000  -0.000257   0.006072
    12  O    0.000000  -0.000018   0.000001   0.000000   0.001683  -0.021045
    13  H    0.342408  -0.006669  -0.014234   0.014933   0.006789  -0.000170
    14  H    0.356871  -0.013868   0.006765   0.000330  -0.015805   0.000242
    15  H    0.003412  -0.046327   0.362005  -0.031412   0.002958  -0.000239
    16  H   -0.000584  -0.023643   0.349871  -0.012180   0.001980  -0.000906
    17  H    0.004688   0.002437  -0.070375   0.307222   0.000122  -0.000032
    18  H   -0.006827  -0.014838   0.002754  -0.000036   0.349581  -0.035386
    19  H   -0.007446  -0.015475   0.002351  -0.000031   0.350603  -0.034639
    20  H    0.000091  -0.002537   0.000604   0.000029  -0.027962   0.352285
    21  H    0.000248  -0.003923   0.000743   0.000016  -0.028002   0.347820
    22  H    0.000005  -0.000133   0.000017   0.000000   0.001292  -0.065265
    23  H   -0.000008   0.000093  -0.000004  -0.000000  -0.000677  -0.000740
    24  H    0.000000   0.000000  -0.000000   0.000000   0.000000   0.000005
    25  H    0.000000  -0.000000   0.000000  -0.000000   0.000000  -0.000006
    26  H   -0.000000   0.000000  -0.000000  -0.000000  -0.000000   0.000015
    27  H   -0.000000   0.000000  -0.000000  -0.000000  -0.000006  -0.000009
    28  H    0.000000  -0.000000   0.000000   0.000000   0.000021  -0.000446
               7          8          9         10         11         12
     1  C   -0.000002   0.000004   0.000000   0.000000  -0.000000   0.000000
     2  C    0.001277   0.000033  -0.000016  -0.000000   0.000001  -0.000018
     3  C    0.000020   0.000013   0.000000   0.000000  -0.000000   0.000001
     4  O   -0.000002   0.000000  -0.000000   0.000000  -0.000000   0.000000
     5  C   -0.030152  -0.001274   0.000839  -0.000006  -0.000257   0.001683
     6  C    0.393563  -0.008590  -0.006818  -0.000114   0.006072  -0.021045
     7  C    4.734514   0.314950   0.009095   0.009889  -0.157541   0.363662
     8  C    0.314950   4.986213   0.736593  -0.050833  -0.001488  -0.052707
     9  C    0.009095   0.736593   4.382352   0.376156   0.356459  -0.040998
    10  C    0.009889  -0.050833   0.376156   5.157058  -0.083927   0.003088
    11  C   -0.157541  -0.001488   0.356459  -0.083927   4.969696   0.369897
    12  O    0.363662  -0.052707  -0.040998   0.003088   0.369897   7.754871
    13  H    0.000002  -0.000000  -0.000000  -0.000000   0.000000  -0.000000
    14  H   -0.000012  -0.000001  -0.000000  -0.000000  -0.000000  -0.000000
    15  H    0.000098   0.000008   0.000002  -0.000000   0.000000   0.000000
    16  H   -0.000082  -0.000006  -0.000000   0.000000   0.000000   0.000001
    17  H   -0.000000  -0.000000  -0.000000   0.000000  -0.000000   0.000000
    18  H   -0.004611   0.002440   0.000291   0.000006   0.000001  -0.000016
    19  H   -0.003226  -0.000881  -0.000051  -0.000000   0.000011   0.000006
    20  H   -0.020827   0.004670   0.000291   0.000005  -0.000272  -0.000262
    21  H   -0.023224  -0.006503   0.001041  -0.000045   0.000752   0.002014
    22  H    0.347434  -0.053326  -0.006027  -0.000199   0.006560  -0.032460
    23  H   -0.046577   0.350295  -0.027466  -0.010271   0.010973   0.002263
    24  H   -0.000336  -0.008752  -0.010319   0.361977   0.004393  -0.000074
    25  H   -0.000205  -0.000217  -0.020808   0.363708  -0.001541  -0.000028
    26  H   -0.000027  -0.000137  -0.022021   0.363794  -0.001281   0.000053
    27  H    0.008412  -0.001850  -0.017101  -0.001342   0.349321  -0.017895
    28  H    0.004559  -0.014196  -0.019593   0.004824   0.336410  -0.030443
              13         14         15         16         17         18
     1  C    0.342408   0.356871   0.003412  -0.000584   0.004688  -0.006827
     2  C   -0.006669  -0.013868  -0.046327  -0.023643   0.002437  -0.014838
     3  C   -0.014234   0.006765   0.362005   0.349871  -0.070375   0.002754
     4  O    0.014933   0.000330  -0.031412  -0.012180   0.307222  -0.000036
     5  C    0.006789  -0.015805   0.002958   0.001980   0.000122   0.349581
     6  C   -0.000170   0.000242  -0.000239  -0.000906  -0.000032  -0.035386
     7  C    0.000002  -0.000012   0.000098  -0.000082  -0.000000  -0.004611
     8  C   -0.000000  -0.000001   0.000008  -0.000006  -0.000000   0.002440
     9  C   -0.000000  -0.000000   0.000002  -0.000000  -0.000000   0.000291
    10  C   -0.000000  -0.000000  -0.000000   0.000000   0.000000   0.000006
    11  C    0.000000  -0.000000   0.000000   0.000000  -0.000000   0.000001
    12  O   -0.000000  -0.000000   0.000000   0.000001   0.000000  -0.000016
    13  H    0.594490  -0.045711   0.000818   0.000065   0.001166  -0.000167
    14  H   -0.045711   0.607601  -0.000106  -0.000151  -0.000204   0.002553
    15  H    0.000818  -0.000106   0.657888  -0.045785  -0.008406  -0.000158
    16  H    0.000065  -0.000151  -0.045785   0.590965   0.007590  -0.000078
    17  H    0.001166  -0.000204  -0.008406   0.007590   0.473646  -0.000018
    18  H   -0.000167   0.002553  -0.000158  -0.000078  -0.000018   0.621004
    19  H   -0.000156   0.002389  -0.000133  -0.000016   0.000008  -0.036521
    20  H   -0.000001   0.000007  -0.000299   0.001651  -0.000001   0.005917
    21  H    0.000002   0.000008   0.002302  -0.000228  -0.000005  -0.004552
    22  H   -0.000000   0.000002  -0.000006   0.000006   0.000000   0.000060
    23  H   -0.000000  -0.000001   0.000006  -0.000001  -0.000000   0.003214
    24  H   -0.000000  -0.000000   0.000000  -0.000000   0.000000  -0.000002
    25  H   -0.000000   0.000000  -0.000000   0.000000  -0.000000   0.000000
    26  H    0.000000  -0.000000   0.000000  -0.000000   0.000000  -0.000000
    27  H   -0.000000   0.000000   0.000000  -0.000000   0.000000  -0.000001
    28  H   -0.000000   0.000000  -0.000000   0.000000  -0.000000   0.000001
              19         20         21         22         23         24
     1  C   -0.007446   0.000091   0.000248   0.000005  -0.000008   0.000000
     2  C   -0.015475  -0.002537  -0.003923  -0.000133   0.000093   0.000000
     3  C    0.002351   0.000604   0.000743   0.000017  -0.000004  -0.000000
     4  O   -0.000031   0.000029   0.000016   0.000000  -0.000000   0.000000
     5  C    0.350603  -0.027962  -0.028002   0.001292  -0.000677   0.000000
     6  C   -0.034639   0.352285   0.347820  -0.065265  -0.000740   0.000005
     7  C   -0.003226  -0.020827  -0.023224   0.347434  -0.046577  -0.000336
     8  C   -0.000881   0.004670  -0.006503  -0.053326   0.350295  -0.008752
     9  C   -0.000051   0.000291   0.001041  -0.006027  -0.027466  -0.010319
    10  C   -0.000000   0.000005  -0.000045  -0.000199  -0.010271   0.361977
    11  C    0.000011  -0.000272   0.000752   0.006560   0.010973   0.004393
    12  O    0.000006  -0.000262   0.002014  -0.032460   0.002263  -0.000074
    13  H   -0.000156  -0.000001   0.000002  -0.000000  -0.000000  -0.000000
    14  H    0.002389   0.000007   0.000008   0.000002  -0.000001  -0.000000
    15  H   -0.000133  -0.000299   0.002302  -0.000006   0.000006   0.000000
    16  H   -0.000016   0.001651  -0.000228   0.000006  -0.000001  -0.000000
    17  H    0.000008  -0.000001  -0.000005   0.000000  -0.000000   0.000000
    18  H   -0.036521   0.005917  -0.004552   0.000060   0.003214  -0.000002
    19  H    0.615423  -0.005373   0.006039   0.007601   0.000015   0.000000
    20  H   -0.005373   0.626573  -0.041281  -0.002103  -0.000107   0.000000
    21  H    0.006039  -0.041281   0.635698   0.007352   0.000663  -0.000001
    22  H    0.007601  -0.002103   0.007352   0.708967   0.002880  -0.000012
    23  H    0.000015  -0.000107   0.000663   0.002880   0.612786   0.005087
    24  H    0.000000   0.000000  -0.000001  -0.000012   0.005087   0.583209
    25  H    0.000000   0.000000   0.000002   0.000060  -0.000000  -0.030291
    26  H   -0.000000  -0.000001  -0.000006  -0.000011  -0.000019  -0.030651
    27  H   -0.000000  -0.000023  -0.000081  -0.000677  -0.000214  -0.000103
    28  H    0.000002   0.000013   0.000050   0.005600  -0.000250  -0.000194
              25         26         27         28
     1  C    0.000000  -0.000000  -0.000000   0.000000
     2  C   -0.000000   0.000000   0.000000  -0.000000
     3  C    0.000000  -0.000000  -0.000000   0.000000
     4  O   -0.000000  -0.000000  -0.000000   0.000000
     5  C    0.000000  -0.000000  -0.000006   0.000021
     6  C   -0.000006   0.000015  -0.000009  -0.000446
     7  C   -0.000205  -0.000027   0.008412   0.004559
     8  C   -0.000217  -0.000137  -0.001850  -0.014196
     9  C   -0.020808  -0.022021  -0.017101  -0.019593
    10  C    0.363708   0.363794  -0.001342   0.004824
    11  C   -0.001541  -0.001281   0.349321   0.336410
    12  O   -0.000028   0.000053  -0.017895  -0.030443
    13  H   -0.000000   0.000000  -0.000000  -0.000000
    14  H    0.000000  -0.000000   0.000000   0.000000
    15  H   -0.000000   0.000000   0.000000  -0.000000
    16  H    0.000000  -0.000000  -0.000000   0.000000
    17  H   -0.000000   0.000000   0.000000  -0.000000
    18  H    0.000000  -0.000000  -0.000001   0.000001
    19  H    0.000000  -0.000000  -0.000000   0.000002
    20  H    0.000000  -0.000001  -0.000023   0.000013
    21  H    0.000002  -0.000006  -0.000081   0.000050
    22  H    0.000060  -0.000011  -0.000677   0.005600
    23  H   -0.000000  -0.000019  -0.000214  -0.000250
    24  H   -0.030291  -0.030651  -0.000103  -0.000194
    25  H    0.594403  -0.034882  -0.000747   0.002139
    26  H   -0.034882   0.594389   0.003591  -0.000475
    27  H   -0.000747   0.003591   0.627558  -0.058033
    28  H    0.002139  -0.000475  -0.058033   0.672044
 Mulliken charges:
               1
     1  C   -0.397241
     2  C    0.287757
     3  C   -0.134040
     4  O   -0.425680
     5  C   -0.287227
     6  C   -0.226213
     7  C    0.099352
     8  C   -0.194460
     9  C    0.308098
    10  C   -0.493767
    11  C   -0.164239
    12  O   -0.301591
    13  H    0.106435
    14  H    0.099089
    15  H    0.103373
    16  H    0.131531
    17  H    0.282161
    18  H    0.115389
    19  H    0.119502
    20  H    0.108912
    21  H    0.103101
    22  H    0.072383
    23  H    0.098062
    24  H    0.126065
    25  H    0.128414
    26  H    0.127666
    27  H    0.109200
    28  H    0.097968
 Sum of Mulliken charges =  -0.00000
 Mulliken charges with hydrogens summed into heavy atoms:
               1
     1  C   -0.191717
     2  C    0.287757
     3  C    0.100863
     4  O   -0.143518
     5  C   -0.052336
     6  C   -0.014200
     7  C    0.171735
     8  C   -0.096398
     9  C    0.308098
    10  C   -0.111623
    11  C    0.042929
    12  O   -0.301591
 Electronic spatial extent (au):  <R**2>=           3428.1676
 Charge=             -0.0000 electrons
 Dipole moment (field-independent basis, Debye):
    X=              2.0846    Y=              2.3220    Z=              0.6708  Tot=              3.1918
 Quadrupole moment (field-independent basis, Debye-Ang):
   XX=            -75.2325   YY=            -75.2742   ZZ=            -71.3649
   XY=             -2.9873   XZ=              0.2285   YZ=              0.8676
 Traceless Quadrupole moment (field-independent basis, Debye-Ang):
   XX=             -1.2753   YY=             -1.3170   ZZ=              2.5923
   XY=             -2.9873   XZ=              0.2285   YZ=              0.8676
 Octapole moment (field-independent basis, Debye-Ang**2):
  XXX=             66.1825  YYY=             -2.4899  ZZZ=              6.2535  XYY=             -4.2480
  XXY=             26.3932  XXZ=             11.8871  XZZ=             -5.1453  YZZ=             -0.0884
  YYZ=              1.4967  XYZ=             -9.1010
 Hexadecapole moment (field-independent basis, Debye-Ang**3):
 XXXX=          -3732.8402 YYYY=           -484.4924 ZZZZ=           -306.2650 XXXY=           -159.6998
 XXXZ=            -43.4897 YYYX=             17.5192 YYYZ=             -3.4758 ZZZX=            -38.3049
 ZZZY=              2.9956 XXYY=           -710.4050 XXZZ=           -644.8323 YYZZ=           -135.0229
 XXYZ=             34.4002 YYXZ=             12.3279 ZZXY=            -15.7420
 N-N= 6.929923119286D+02 E-N=-2.645587813759D+03  KE= 5.370363246839D+02
 PrsmSu:  requested number of processors reduced to:  13 ShMem   1 Linda.
 Calling FoFJK, ICntrl=      2127 FMM=F ISym2X=0 I1Cent= 0 IOpClX= 0 NMat=1 NMatS=1 NMatT=0.
 ***** Axes restored to original set *****
 -------------------------------------------------------------------
 Center     Atomic                   Forces (Hartrees/Bohr)
 Number     Number              X              Y              Z
 -------------------------------------------------------------------
      1        6           0.013820889    0.003370395   -0.008116128
      2        6          -0.015182862   -0.001816388    0.009307052
      3        6          -0.018627847   -0.002998249   -0.007944454
      4        8          -0.002826020   -0.000747902   -0.003454781
      5        6           0.004786034    0.000638056    0.001317778
      6        6          -0.001572917    0.005174978   -0.002535206
      7        6           0.007442760    0.005202843   -0.010752514
      8        6           0.005006224   -0.007876094    0.005545427
      9        6          -0.010953275   -0.010558379   -0.002861056
     10        6          -0.002848974   -0.005092962   -0.001074553
     11        6          -0.006688718    0.017804507   -0.008339476
     12        8          -0.000842164   -0.005688450    0.003906361
     13        1           0.001423689    0.000504006    0.000842906
     14        1           0.001873478   -0.000491495    0.000123464
     15        1           0.007822625   -0.001771527    0.004828491
     16        1           0.000583719    0.000721528   -0.002380303
     17        1           0.004170255    0.007123724    0.001365271
     18        1           0.000763853    0.000933772    0.001617972
     19        1          -0.000392154   -0.001951098   -0.000243258
     20        1           0.000241979   -0.000169107    0.002174020
     21        1           0.001929320   -0.000374576    0.003481968
     22        1          -0.005747834    0.003647697    0.003466193
     23        1          -0.002292249    0.000038028    0.001207533
     24        1           0.001667796    0.000367091    0.001070264
     25        1           0.004037344   -0.002899463    0.000868899
     26        1           0.003904394   -0.002225671    0.001473027
     27        1           0.003226628    0.000982115    0.000575731
     28        1           0.005274026   -0.001847379    0.004529370
 -------------------------------------------------------------------
 Cartesian Forces:  Max     0.018627847 RMS     0.005498519

 GradGradGradGradGradGradGradGradGradGradGradGradGradGradGradGradGradGrad
 Berny optimization.
 FormGI is forming the generalized inverse of G from B-inverse, IUseBI=4.
 Internal  Forces:  Max     0.017541664 RMS     0.004035939
 Search for a local minimum.
 Step number   1 out of a maximum of  153
 All quantities printed in internal units (Hartrees-Bohrs-Radians)
 Mixed Optimization -- RFO/linear search
 Second derivative matrix not updated -- first step.
 ITU=  0
     Eigenvalues ---    0.00254   0.00442   0.00526   0.00623   0.01017
     Eigenvalues ---    0.01154   0.01161   0.01371   0.01442   0.01537
     Eigenvalues ---    0.01895   0.02791   0.02792   0.03616   0.03699
     Eigenvalues ---    0.04800   0.04830   0.05282   0.05573   0.06085
     Eigenvalues ---    0.06294   0.07215   0.07391   0.07495   0.07560
     Eigenvalues ---    0.08140   0.08549   0.09825   0.10982   0.11100
     Eigenvalues ---    0.11841   0.12058   0.13147   0.14112   0.15348
     Eigenvalues ---    0.15999   0.16000   0.16000   0.16000   0.16000
     Eigenvalues ---    0.16000   0.16000   0.20161   0.21862   0.22005
     Eigenvalues ---    0.22123   0.23156   0.24999   0.24999   0.25000
     Eigenvalues ---    0.28631   0.29941   0.30546   0.31192   0.31269
     Eigenvalues ---    0.33497   0.33791   0.33858   0.33915   0.34083
     Eigenvalues ---    0.34101   0.34170   0.34208   0.34264   0.34370
     Eigenvalues ---    0.34421   0.34454   0.34479   0.34484   0.35292
     Eigenvalues ---    0.35325   0.36001   0.37085   0.37662   0.42635
     Eigenvalues ---    0.53126   0.55682   0.56959
 RFO step:  Lambda=-1.05167785D-02 EMin= 2.53514718D-03
 Linear search not attempted -- first point.
 Iteration  1 RMS(Cart)=  0.09033345 RMS(Int)=  0.00153649
 Iteration  2 RMS(Cart)=  0.00261595 RMS(Int)=  0.00038509
 Iteration  3 RMS(Cart)=  0.00000366 RMS(Int)=  0.00038509
 Iteration  4 RMS(Cart)=  0.00000000 RMS(Int)=  0.00038509
 Variable       Old X    -DE/DX   Delta X   Delta X   Delta X     New X
                                 (Linear)    (Quad)   (Total)
    R1        2.54531  -0.01754   0.00000  -0.03092  -0.03092   2.51439
    R2        2.05151  -0.00125   0.00000  -0.00344  -0.00344   2.04807
    R3        2.05203  -0.00062   0.00000  -0.00170  -0.00170   2.05033
    R4        2.85502   0.00233   0.00000   0.00720   0.00720   2.86222
    R5        2.86888   0.00925   0.00000   0.02928   0.02928   2.89816
    R6        2.68123   0.00275   0.00000   0.00630   0.00630   2.68753
    R7        2.06887   0.00391   0.00000   0.01108   0.01108   2.07994
    R8        2.06710   0.00022   0.00000   0.00061   0.00061   2.06772
    R9        1.83536  -0.00829   0.00000  -0.01530  -0.01530   1.82007
   R10        2.90779   0.00131   0.00000   0.00442   0.00442   2.91221
   R11        2.07473  -0.00085   0.00000  -0.00244  -0.00244   2.07229
   R12        2.07684  -0.00107   0.00000  -0.00308  -0.00308   2.07376
   R13        2.88082   0.00348   0.00000   0.01124   0.01124   2.89205
   R14        2.07190  -0.00033   0.00000  -0.00095  -0.00095   2.07095
   R15        2.07571  -0.00215   0.00000  -0.00616  -0.00616   2.06955
   R16        2.80803   0.01596   0.00000   0.04654   0.04638   2.85441
   R17        2.72812  -0.00426   0.00000  -0.01205  -0.01241   2.71570
   R18        2.06980   0.00643   0.00000   0.01825   0.01825   2.08805
   R19        2.51180   0.00359   0.00000   0.00758   0.00780   2.51960
   R20        2.04081   0.00160   0.00000   0.00432   0.00432   2.04513
   R21        2.79871   0.01133   0.00000   0.03191   0.03191   2.83062
   R22        2.80920   0.01227   0.00000   0.03626   0.03656   2.84576
   R23        2.07159  -0.00176   0.00000  -0.00501  -0.00501   2.06659
   R24        2.06520   0.00276   0.00000   0.00777   0.00777   2.07298
   R25        2.06625   0.00231   0.00000   0.00652   0.00652   2.07277
   R26        2.73156  -0.00629   0.00000  -0.01843  -0.01842   2.71315
   R27        2.06529   0.00240   0.00000   0.00675   0.00675   2.07204
   R28        2.07044   0.00514   0.00000   0.01458   0.01458   2.08502
    A1        2.12765   0.00006   0.00000   0.00031   0.00029   2.12794
    A2        2.12799  -0.00188   0.00000  -0.01109  -0.01111   2.11688
    A3        2.02732   0.00181   0.00000   0.01057   0.01055   2.03787
    A4        2.15494  -0.01097   0.00000  -0.04210  -0.04211   2.11283
    A5        2.07642   0.00466   0.00000   0.01793   0.01792   2.09434
    A6        2.05177   0.00631   0.00000   0.02425   0.02424   2.07602
    A7        1.95753   0.00944   0.00000   0.04901   0.04822   2.00574
    A8        1.92681  -0.00470   0.00000  -0.01567  -0.01774   1.90907
    A9        1.92517  -0.00063   0.00000  -0.01310  -0.01300   1.91217
   A10        1.87454   0.00389   0.00000   0.05720   0.05630   1.93084
   A11        1.87829  -0.00618   0.00000  -0.04110  -0.04050   1.83779
   A12        1.89953  -0.00200   0.00000  -0.03765  -0.03775   1.86178
   A13        1.85242   0.00206   0.00000   0.01207   0.01207   1.86449
   A14        2.02103   0.00605   0.00000   0.03095   0.03084   2.05187
   A15        1.88409  -0.00072   0.00000   0.00435   0.00434   1.88842
   A16        1.89480  -0.00204   0.00000  -0.00635  -0.00642   1.88838
   A17        1.91056  -0.00249   0.00000  -0.01197  -0.01218   1.89838
   A18        1.88765  -0.00107   0.00000  -0.00317  -0.00328   1.88437
   A19        1.85923  -0.00016   0.00000  -0.01775  -0.01785   1.84138
   A20        1.94368   0.00387   0.00000   0.01556   0.01559   1.95927
   A21        1.92496  -0.00119   0.00000  -0.00553  -0.00543   1.91953
   A22        1.92133   0.00115   0.00000   0.02109   0.02119   1.94252
   A23        1.91041  -0.00214   0.00000  -0.02120  -0.02127   1.88914
   A24        1.90724  -0.00317   0.00000  -0.02015  -0.02042   1.88682
   A25        1.85401   0.00130   0.00000   0.00946   0.00917   1.86318
   A26        1.95391   0.01099   0.00000   0.06654   0.06710   2.02101
   A27        1.93294  -0.00417   0.00000  -0.02770  -0.02818   1.90476
   A28        1.93329  -0.00447   0.00000  -0.03459  -0.03507   1.89823
   A29        1.81207  -0.00237   0.00000  -0.00059  -0.00092   1.81115
   A30        1.94410  -0.00251   0.00000  -0.01090  -0.01033   1.93377
   A31        1.88292   0.00237   0.00000   0.00717   0.00667   1.88959
   A32        1.91634   0.00192   0.00000   0.01238   0.01183   1.92817
   A33        2.17933  -0.00207   0.00000  -0.01286  -0.01260   2.16673
   A34        2.18736   0.00013   0.00000   0.00038   0.00065   2.18801
   A35        2.20504   0.00969   0.00000   0.03535   0.03542   2.24046
   A36        1.90969  -0.00736   0.00000  -0.02450  -0.02464   1.88506
   A37        2.16845  -0.00234   0.00000  -0.01084  -0.01078   2.15767
   A38        1.92946   0.00080   0.00000   0.00980   0.00964   1.93910
   A39        1.93254   0.00309   0.00000   0.01504   0.01498   1.94752
   A40        1.93305   0.00240   0.00000   0.01203   0.01196   1.94501
   A41        1.88236  -0.00119   0.00000  -0.00303  -0.00317   1.87919
   A42        1.87820  -0.00038   0.00000   0.00369   0.00353   1.88173
   A43        1.90667  -0.00499   0.00000  -0.03885  -0.03882   1.86785
   A44        1.81346   0.00477   0.00000   0.02417   0.02383   1.83729
   A45        1.98059   0.00066   0.00000   0.00788   0.00818   1.98877
   A46        1.95137  -0.00147   0.00000  -0.00881  -0.00943   1.94194
   A47        1.89753  -0.00129   0.00000  -0.00582  -0.00615   1.89138
   A48        1.90122   0.00009   0.00000   0.01849   0.01872   1.91995
   A49        1.91521  -0.00241   0.00000  -0.03175  -0.03179   1.88342
   A50        1.87247   0.00442   0.00000   0.01726   0.01637   1.88884
    D1       -0.02126  -0.00086   0.00000  -0.02392  -0.02385  -0.04511
    D2        3.11002  -0.00063   0.00000  -0.01484  -0.01491   3.09511
    D3       -3.13929  -0.00044   0.00000  -0.01278  -0.01271   3.13118
    D4       -0.00801  -0.00020   0.00000  -0.00370  -0.00377  -0.01178
    D5       -0.01879   0.00288   0.00000   0.01219   0.01223  -0.00656
    D6       -2.10856  -0.00507   0.00000  -0.08193  -0.08174  -2.19030
    D7        2.07461   0.00087   0.00000  -0.01637  -0.01677   2.05785
    D8        3.13298   0.00265   0.00000   0.00326   0.00341   3.13639
    D9        1.04320  -0.00530   0.00000  -0.09086  -0.09056   0.95265
   D10       -1.05681   0.00064   0.00000  -0.02530  -0.02558  -1.08239
   D11       -3.12483  -0.00035   0.00000  -0.00658  -0.00661  -3.13144
   D12        1.01037  -0.00076   0.00000  -0.01598  -0.01618   0.99420
   D13       -0.99851   0.00086   0.00000   0.00585   0.00576  -0.99275
   D14        0.00706  -0.00023   0.00000   0.00157   0.00175   0.00881
   D15       -2.14092  -0.00064   0.00000  -0.00783  -0.00782  -2.14874
   D16        2.13338   0.00098   0.00000   0.01400   0.01412   2.14750
   D17       -1.03848  -0.00070   0.00000  -0.02672  -0.02825  -1.06672
   D18        1.08156   0.00188   0.00000   0.02231   0.02405   1.10561
   D19        3.12420  -0.00162   0.00000  -0.01326  -0.01348   3.11072
   D20       -3.11037  -0.00051   0.00000  -0.02095  -0.02098  -3.13135
   D21        1.04811   0.00042   0.00000  -0.00076  -0.00070   1.04741
   D22       -0.99216  -0.00115   0.00000  -0.02168  -0.02156  -1.01372
   D23       -0.97636   0.00093   0.00000  -0.00232  -0.00246  -0.97883
   D24       -3.10107   0.00186   0.00000   0.01787   0.01781  -3.08326
   D25        1.14184   0.00029   0.00000  -0.00305  -0.00304   1.13879
   D26        1.04270  -0.00117   0.00000  -0.03153  -0.03159   1.01111
   D27       -1.08201  -0.00024   0.00000  -0.01134  -0.01131  -1.09332
   D28       -3.12229  -0.00181   0.00000  -0.03226  -0.03217   3.12873
   D29        1.31525   0.00088   0.00000   0.00828   0.00850   1.32375
   D30       -2.95467   0.00204   0.00000   0.03083   0.03005  -2.92462
   D31       -0.86617  -0.00063   0.00000  -0.00081  -0.00039  -0.86656
   D32       -2.83480   0.00048   0.00000  -0.00289  -0.00273  -2.83753
   D33       -0.82154   0.00163   0.00000   0.01966   0.01882  -0.80272
   D34        1.26696  -0.00103   0.00000  -0.01198  -0.01162   1.25534
   D35       -0.81114  -0.00095   0.00000  -0.01478  -0.01436  -0.82551
   D36        1.20212   0.00021   0.00000   0.00777   0.00719   1.20931
   D37       -2.99256  -0.00246   0.00000  -0.02387  -0.02325  -3.01581
   D38        2.33191  -0.00351   0.00000  -0.04686  -0.04656   2.28534
   D39       -0.79176  -0.00202   0.00000  -0.04074  -0.04061  -0.83237
   D40        0.24611  -0.00271   0.00000  -0.04745  -0.04745   0.19867
   D41       -2.87755  -0.00123   0.00000  -0.04134  -0.04149  -2.91904
   D42       -1.77585  -0.00301   0.00000  -0.05046  -0.04996  -1.82581
   D43        1.38367  -0.00152   0.00000  -0.04434  -0.04401   1.33966
   D44       -2.50465  -0.00662   0.00000  -0.00280  -0.00283  -2.50748
   D45       -0.40461   0.00289   0.00000   0.06157   0.06144  -0.34317
   D46        1.66007  -0.00010   0.00000   0.05205   0.05216   1.71222
   D47       -3.13187   0.00090   0.00000   0.00853   0.00845  -3.12341
   D48        0.00710   0.00024   0.00000   0.01227   0.01243   0.01953
   D49       -0.00831  -0.00062   0.00000   0.00222   0.00225  -0.00606
   D50        3.13066  -0.00128   0.00000   0.00595   0.00622   3.13688
   D51        0.03552  -0.00064   0.00000  -0.00375  -0.00362   0.03190
   D52       -2.04953  -0.00166   0.00000  -0.01600  -0.01592  -2.06546
   D53        2.11570   0.00094   0.00000   0.01486   0.01507   2.13077
   D54       -3.10308   0.00012   0.00000  -0.00801  -0.00816  -3.11124
   D55        1.09506  -0.00091   0.00000  -0.02026  -0.02046   1.07460
   D56       -1.02289   0.00169   0.00000   0.01060   0.01053  -1.01236
   D57       -0.25728   0.00163   0.00000   0.02538   0.02513  -0.23215
   D58       -2.31511  -0.00013   0.00000   0.01331   0.01303  -2.30208
   D59        1.79043   0.00379   0.00000   0.05693   0.05660   1.84703
   D60        2.88175   0.00101   0.00000   0.02911   0.02896   2.91071
   D61        0.82392  -0.00075   0.00000   0.01704   0.01686   0.84078
   D62       -1.35373   0.00317   0.00000   0.06066   0.06043  -1.29329
   D63        0.40917  -0.00093   0.00000  -0.04832  -0.04901   0.36017
   D64        2.52361   0.00181   0.00000  -0.02883  -0.02934   2.49428
   D65       -1.67309  -0.00181   0.00000  -0.05979  -0.06053  -1.73362
         Item               Value     Threshold  Converged?
 Maximum Force            0.017542     0.000450     NO 
 RMS     Force            0.004036     0.000300     NO 
 Maximum Displacement     0.317164     0.001800     NO 
 RMS     Displacement     0.090650     0.001200     NO 
 Predicted change in Energy=-5.767266D-03
 GradGradGradGradGradGradGradGradGradGradGradGradGradGradGradGradGradGrad

                          Input orientation:                          
 ---------------------------------------------------------------------
 Center     Atomic      Atomic             Coordinates (Angstroms)
 Number     Number       Type             X           Y           Z
 ---------------------------------------------------------------------
      1          6           0        0.960862    0.022174    0.086337
      2          6           0        2.289952    0.027779    0.024120
      3          6           0        3.013623    0.605009   -1.174709
      4          8           0        2.167008    1.115454   -2.197102
      5          6           0        3.114055   -0.554873    1.178856
      6          6           0        4.649350   -0.507091    1.054359
      7          6           0        5.348728   -1.131996    2.263705
      8          6           0        5.341214   -2.641421    2.319884
      9          6           0        6.567905   -3.105330    2.560178
     10          6           0        7.017501   -4.529592    2.674351
     11          6           0        7.490717   -1.924901    2.711083
     12          8           0        6.745930   -0.798081    2.224355
     13          1           0        0.348874    0.463450   -0.691704
     14          1           0        0.438446   -0.398964    0.938936
     15          1           0        3.703348   -0.149310   -1.583038
     16          1           0        3.627884    1.453399   -0.858220
     17          1           0        1.634284    0.377529   -2.512233
     18          1           0        2.804491   -1.596070    1.329281
     19          1           0        2.832621   -0.029167    2.100096
     20          1           0        4.985476    0.531962    0.962806
     21          1           0        4.991997   -1.030094    0.155227
     22          1           0        4.915942   -0.702943    3.185399
     23          1           0        4.460959   -3.250794    2.161620
     24          1           0        6.187391   -5.219733    2.499523
     25          1           0        7.425946   -4.745312    3.669332
     26          1           0        7.805150   -4.760945    1.946895
     27          1           0        8.415708   -2.005672    2.127879
     28          1           0        7.768157   -1.766296    3.767135
 ---------------------------------------------------------------------
                    Distance matrix (angstroms):
                    1          2          3          4          5
     1  C    0.000000
     2  C    1.330557   0.000000
     3  C    2.478662   1.514624   0.000000
     4  O    2.804308   2.476283   1.422181   0.000000
     5  C    2.482504   1.533638   2.625772   3.883810   0.000000
     6  C    3.849953   2.629495   2.980120   4.400758   1.541075
     7  C    5.032535   3.964459   4.504730   5.922260   2.550241
     8  C    5.592044   4.658902   5.307463   6.677788   3.258200
     9  C    6.880414   5.877827   6.352079   7.733991   4.510206
    10  C    8.006202   7.081178   7.563758   8.895217   5.768170
    11  C    7.302014   6.170956   6.445479   7.853401   4.835273
    12  O    6.221813   5.037740   5.239505   6.646610   3.787180
    13  H    1.083790   2.114237   2.711867   2.448866   3.490302
    14  H    1.084988   2.108808   3.479511   3.887946   2.690865
    15  H    3.215191   2.147558   1.100659   2.082557   2.853034
    16  H    3.170741   2.144989   1.094188   2.010217   2.906347
    17  H    2.707830   2.642974   1.934759   0.963138   4.084512
    18  H    2.750018   2.145946   3.340427   4.493788   1.096609
    19  H    2.749790   2.146488   3.340553   4.496567   1.097386
    20  H    4.150374   2.898480   2.909040   4.274254   2.174879
    21  H    4.166781   2.904708   2.890718   4.256452   2.190962
    22  H    5.076676   4.174143   4.933569   6.311460   2.700914
    23  H    5.222050   4.475625   5.300292   6.582157   3.169853
    24  H    7.785735   6.989566   7.582902   8.851912   5.740250
    25  H    8.795686   7.902430   8.459270   9.819371   6.508045
    26  H    8.554776   7.552904   7.841977   9.137474   6.347228
    27  H    7.990920   6.788639   6.848742   8.215421   5.577902
    28  H    7.942680   6.873107   7.256066   8.674645   5.461446
                    6          7          8          9         10
     6  C    0.000000
     7  C    1.530409   0.000000
     8  C    2.575964   1.510489   0.000000
     9  C    3.563592   2.338447   1.333313   0.000000
    10  C    4.940954   3.807505   2.549662   1.497897   0.000000
    11  C    3.581659   2.327437   2.299305   1.505911   2.647584
    12  O    2.418515   1.437088   2.319537   2.338347   3.768345
    13  H    4.741813   6.023158   6.605554   7.873200   8.985065
    14  H    4.213873   5.138406   5.565318   6.893700   7.959756
    15  H    2.824675   4.297718   4.911824   5.840374   6.949521
    16  H    2.923162   4.403633   5.459248   6.411800   7.730766
    17  H    4.753290   6.235812   6.797408   7.886715   8.942009
    18  H    2.159852   2.749846   2.917021   4.237482   5.306997
    19  H    2.149996   2.752053   3.628390   4.860741   6.172262
    20  H    1.095898   2.143139   3.469663   4.276163   5.716453
    21  H    1.095161   2.140870   2.721042   3.545967   4.763942
    22  H    2.156562   1.104948   2.165102   2.981836   4.395562
    23  H    2.964696   2.299535   1.082234   2.149238   2.904156
    24  H    5.163628   4.179541   2.719555   2.149225   1.093591
    25  H    5.701761   4.398486   3.254762   2.157776   1.096973
    26  H    5.371310   4.393593   3.271466   2.155912   1.096863
    27  H    4.193286   3.191885   3.145402   2.193287   2.936628
    28  H    4.321077   2.918266   2.958112   2.165724   3.064876
                   11         12         13         14         15
    11  C    0.000000
    12  O    1.435735   0.000000
    13  H    8.263723   7.142632   0.000000
    14  H    7.429907   6.449492   1.846826   0.000000
    15  H    5.994694   4.916752   3.524550   4.133070   0.000000
    16  H    6.250945   4.928858   3.429232   4.102868   1.760606
    17  H    8.178143   7.067266   2.230244   3.734105   2.328517
    18  H    4.896756   4.119816   3.788940   2.680224   3.373820
    19  H    5.066061   3.990070   3.769061   2.686469   3.786566
    20  H    3.920316   2.541597   4.923432   4.641408   2.930752
    21  H    3.684655   2.722390   4.950410   4.663405   2.336227
    22  H    2.889226   2.069181   6.103320   5.018662   4.951251
    23  H    3.352512   3.352734   6.232681   5.080207   4.920939
    24  H    3.549554   4.465276   8.750473   7.663264   6.967564
    25  H    2.979456   4.258053   9.809933   8.670119   7.910016
    26  H    2.953980   4.111353   9.479060   8.620394   7.110020
    27  H    1.096475   2.062945   8.894967   8.223856   6.278800
    28  H    1.103347   2.088674   8.938612   7.974520   6.910981
                   16         17         18         19         20
    16  H    0.000000
    17  H    2.804941   0.000000
    18  H    3.842187   4.474563   0.000000
    19  H    3.403245   4.782782   1.746463   0.000000
    20  H    2.451171   4.830138   3.069123   2.498615   0.000000
    21  H    3.009255   4.513422   2.546353   3.073642   1.758478
    22  H    4.760227   6.663311   2.949758   2.443785   2.543569
    23  H    5.651803   6.557418   2.484911   3.610284   4.002688
    24  H    7.896594   8.785091   5.093565   6.193222   6.073556
    25  H    8.564346   9.899424   6.062293   6.767803   6.413329
    26  H    7.996018   9.185170   5.950166   6.865803   6.077323
    27  H    6.618552   8.555584   5.682542   5.922686   4.423062
    28  H    6.993011   9.036086   5.532638   5.491462   4.570510
                   21         22         23         24         25
    21  H    0.000000
    22  H    3.048731   0.000000
    23  H    3.039593   2.783285   0.000000
    24  H    4.947501   4.742193   2.640353   0.000000
    25  H    5.663558   4.782787   3.646632   1.768487   0.000000
    26  H    5.004315   5.133108   3.675633   1.770036   1.763754
    27  H    4.070002   3.881213   4.146264   3.928575   3.295653
    28  H    4.614644   3.099075   3.964715   4.003983   3.000201
                   26         27         28
    26  H    0.000000
    27  H    2.827908   0.000000
    28  H    3.504649   1.778702   0.000000
 Stoichiometry    C10H16O2
 Framework group  C1[X(C10H16O2)]
 Deg. of freedom    78
 Full point group                 C1      NOp   1
 Largest Abelian subgroup         C1      NOp   1
 Largest concise Abelian subgroup C1      NOp   1
                         Standard orientation:                         
 ---------------------------------------------------------------------
 Center     Atomic      Atomic             Coordinates (Angstroms)
 Number     Number       Type             X           Y           Z
 ---------------------------------------------------------------------
      1          6           0       -3.595602    1.381630   -0.602921
      2          6           0       -2.702158    0.464760   -0.240304
      3          6           0       -3.100957   -0.718957    0.616353
      4          8           0       -4.472432   -0.752376    0.991235
      5          6           0       -1.242367    0.595999   -0.691782
      6          6           0       -0.257939   -0.504734   -0.251100
      7          6           0        1.163862   -0.246492   -0.755029
      8          6           0        1.937775    0.822295   -0.019957
      9          6           0        3.148839    0.375220    0.313464
     10          6           0        4.229543    1.090200    1.064848
     11          6           0        3.284350   -1.032284   -0.204550
     12          8           0        1.953472   -1.432146   -0.565395
     13          1           0       -4.643002    1.297643   -0.337401
     14          1           0       -3.312112    2.236097   -1.208494
     15          1           0       -2.454582   -0.760058    1.506274
     16          1           0       -2.930646   -1.646556    0.061553
     17          1           0       -4.640002    0.043640    1.506903
     18          1           0       -0.863606    1.566171   -0.348481
     19          1           0       -1.225835    0.645863   -1.787910
     20          1           0       -0.586767   -1.476948   -0.635371
     21          1           0       -0.221678   -0.592414    0.839944
     22          1           0        1.122960   -0.027053   -1.837195
     23          1           0        1.544366    1.802022    0.217939
     24          1           0        3.902770    2.088185    1.370112
     25          1           0        5.134387    1.207864    0.455945
     26          1           0        4.520049    0.541080    1.968829
     27          1           0        3.670215   -1.743616    0.535296
[...]
 675,0.00014656,0.00006908,0.00001891,0.00002709,0.00000163,-0.00000273
 ,-0.00000315,0.00000439,0.00001200,0.00141255,-0.00112272,-0.00058291,
 0.00118515,-0.01240437,-0.01393471,-0.04458681,0.00710387,0.00886404,0
 .00430688,-0.00278064,-0.00553810,-0.00079054,-0.00125476,0.00043599,0
 .00078510,0.00039913,0.00036844,-0.00035144,-0.00106238,0.00691969,-0.
 02203545,0.02684107,0.02104595,-0.00000543,0.00002593,0.00003465,0.000
 04223,0.00002096,-0.00002404,-0.00000413,-0.00001106,-0.00000823,-0.00
 001644,0.00002154,-0.00000097,0.00000806,-0.00001329,0.00001109,-0.000
 06607,-0.00002227,0.00003090,-0.00024969,0.00045916,0.00035005,0.00055
 407,0.00045609,0.00056087,-0.00171308,0.00098018,-0.00328387,0.0630376
 9,0.00009074,-0.00008380,0.00011498,-0.00032935,0.00026314,0.00016617,
 0.00003031,0.00004708,-0.00008286,0.00001130,-0.00003959,0.00009254,-0
 .00026284,0.00014262,0.00017543,0.00124215,0.00324905,0.00271497,0.011
 96136,-0.18042059,-0.11348305,0.00390726,-0.02444837,-0.01453021,-0.00
 328903,-0.00166515,0.00076935,0.00133735,0.00077180,0.00185049,0.00049
 519,-0.00132192,-0.00165205,0.00462320,0.00480978,0.00012510,0.0000850
 4,-0.00000310,-0.00003874,-0.00003301,0.00000377,0.00001496,-0.0000008
 3,-0.00001875,-0.00002033,-0.00003580,0.00001363,0.00000534,0.00001490
 ,0.00001346,-0.00001925,0.00003862,-0.00000117,-0.00001152,-0.00061004
 ,0.00031095,-0.00003286,-0.00028406,0.00077752,-0.00042789,0.00086207,
 0.00103248,0.00108538,-0.02047822,0.19756683,-0.00002561,0.00002203,0.
 00019937,-0.00008234,0.00044326,0.00027025,-0.00005240,-0.00007060,-0.
 00005604,0.00003198,0.00007524,0.00004821,0.00152102,-0.00074676,0.000
 23043,-0.00251102,-0.02308222,-0.02207618,0.00884207,-0.10917321,-0.14
 342127,-0.00321096,0.01180331,0.01145219,0.00092503,0.00163330,0.00002
 426,-0.00100563,-0.00063400,-0.00120425,-0.00066624,0.00229002,-0.0025
 2572,0.01369196,-0.00559068,-0.00102464,0.00007753,0.00001287,-0.00000
 783,0.00003276,0.00002348,-0.00001040,0.00003186,-0.00002502,-0.000051
 03,-0.00006586,0.00003939,-0.00000060,0.00001615,-0.00004229,0.0000236
 7,-0.00006413,0.00003740,0.00007123,-0.00096599,0.00075829,0.00069624,
 0.00095029,0.00020063,0.00109512,-0.00321851,0.00142314,-0.00414341,-0
 .01454615,0.12247760,0.16036268,0.00000044,-0.00000621,0.00000783,0.00
 009290,0.00013896,-0.00003922,-0.00005734,-0.00002798,-0.00003857,0.00
 001652,0.00001927,0.00000193,-0.00054336,0.00010911,-0.00023864,-0.000
 37166,-0.00061420,0.00028178,0.00059526,0.00271162,-0.00165573,-0.2752
 2185,-0.06521226,0.10258012,-0.01535025,-0.01169979,0.01095493,0.00066
 851,-0.00181937,-0.00123118,-0.00185390,0.00307709,0.00283924,0.000746
 68,0.00183818,-0.00054840,-0.00000849,0.00000140,0.00000506,0.00000466
 ,-0.00000256,-0.00000709,0.00001757,0.00001615,-0.00000005,0.00000647,
 0.00000064,0.00000006,-0.00000747,-0.00000098,-0.00000304,-0.00000348,
 0.00062521,-0.00047919,0.00000244,-0.00002479,0.00003044,0.00004657,-0
 .00004602,0.00009611,-0.00001211,-0.00003779,-0.00001252,0.00005569,-0
 .00041916,0.00016865,0.29170897,0.00000705,0.00001307,-0.00004724,0.00
 028072,0.00017073,-0.00005414,-0.00009517,-0.00008346,-0.00003616,-0.0
 0000364,0.00007912,-0.00006844,-0.00016992,-0.00041481,0.00025579,-0.0
 0033252,0.00016560,-0.00018479,-0.01987750,0.00323715,0.00470940,-0.06
 906400,-0.07429222,0.03882481,0.01762011,0.00836928,-0.00717476,-0.000
 75668,0.00078655,-0.00274188,0.00475134,-0.00291231,0.00516863,-0.0047
 1095,-0.00275897,0.00381915,-0.00003197,-0.00000164,0.00000234,0.00000
 839,0.00000389,0.00001183,0.00001861,0.00001519,0.00000042,0.00001261,
 -0.00000264,0.00000183,-0.00001645,-0.00001169,0.00001668,0.00058530,0
 .00019996,0.00023985,0.00000743,-0.00008930,-0.00002579,0.00011817,-0.
 00007220,0.00009048,0.00011763,0.00006888,0.00006701,0.00072639,-0.000
 18873,-0.00101729,0.07117142,0.06677828,0.00002495,0.00003056,0.000012
 71,-0.00027371,-0.00021761,-0.00000532,0.00006723,0.00011724,0.0000309
 9,0.00001841,-0.00012363,0.00009438,0.00032158,0.00060367,-0.00023715,
 -0.00017845,-0.00044928,0.00056900,0.00843550,-0.00233330,-0.00218478,
 0.10440797,0.03743817,-0.08174582,-0.00256638,0.00175153,0.00400445,-0
 .00150418,-0.00246912,-0.00432292,0.00179787,0.00540838,0.00844361,0.0
 0247616,0.00183789,0.00085254,0.00001891,-0.00002099,0.00001038,-0.000
 04135,-0.00001999,-0.00001713,-0.00001410,-0.00001102,0.00000258,0.000
 00395,-0.00001629,-0.00000282,0.00001583,0.00002904,-0.00003288,-0.000
 77600,0.00004509,-0.00009696,-0.00000210,-0.00012835,0.00002186,-0.000
 05218,-0.00012518,0.00003147,-0.00002932,0.00001146,-0.00030542,0.0001
 6125,0.00064609,-0.00011696,-0.11266887,-0.04142312,0.07506465,0.00001
 263,-0.00000732,0.00001325,-0.00000728,-0.00000112,-0.00002936,-0.0000
 1214,0.00001311,-0.00000752,0.00001383,-0.00001413,0.00002124,0.000002
 77,0.00000439,0.00002114,-0.00000853,-0.00001854,-0.00001206,0.0000390
 9,-0.00027088,0.00003792,0.00114752,0.00038338,-0.00066020,0.00590701,
 0.00249095,-0.00318186,-0.23465512,-0.08315230,0.09167871,0.00021926,0
 .00148192,-0.00036398,0.00041393,0.00054478,-0.00025704,0.00000099,0.0
 0000152,0.00000543,-0.00000340,-0.00000012,-0.00000217,0.00000539,0.00
 000641,-0.00000073,0.00000183,0.00000027,-0.00000066,-0.00000309,0.000
 00304,-0.00000616,-0.00000943,-0.00000414,0.00000143,-0.00000170,-0.00
 000357,-0.00000114,0.00001495,-0.00000773,0.00001698,0.00000079,0.0000
 0434,-0.00000109,0.00000043,-0.00004635,0.00001139,0.00022544,-0.00046
 895,0.00019745,0.25229327,0.00001301,-0.00001230,0.00001331,0.00001664
 ,0.00001403,-0.00004160,-0.00001951,0.00000480,-0.00000544,0.00001205,
 -0.00000402,0.00001282,-0.00000989,-0.00003597,0.00006712,0.00007500,0
 .00002968,-0.00006703,-0.00107996,0.00012723,0.00021055,-0.00073505,0.
 00246738,-0.00108273,-0.02873821,-0.01334668,0.01358238,-0.08057558,-0
 .08233120,0.03947373,0.00400280,-0.00256304,0.00055122,-0.00003050,-0.
 00222755,0.00120195,-0.00000193,0.00000496,0.00000530,0.00000032,0.000
 00218,0.00000047,0.00000743,0.00000754,-0.00000125,0.00000242,0.000000
 46,-0.00000075,-0.00000397,0.00000016,-0.00000407,0.00002523,0.0000197
 4,-0.00000207,-0.00000217,-0.00000482,-0.00000366,-0.00002140,0.000022
 10,-0.00004344,-0.00000628,-0.00000206,-0.00000228,0.00007127,-0.00002
 227,-0.00004070,0.00088517,-0.00017308,-0.00010655,0.08930317,0.090845
 20,-0.00000763,0.00001799,-0.00001922,-0.00000143,-0.00000844,0.000033
 81,0.00001274,0.00000166,0.00000223,-0.00001150,-0.00000372,-0.0000095
 1,0.00000937,0.00003347,-0.00004187,0.00000398,0.00002236,0.00002297,0
 .00043028,-0.00007556,-0.00028880,-0.00016684,-0.00142657,0.00018555,0
 .01076086,0.00464854,-0.00647316,0.09053200,0.04021059,-0.09039302,-0.
 00145882,0.00116276,0.00098550,-0.00004332,0.00104127,-0.00004944,-0.0
 0000093,-0.00000669,-0.00000269,-0.00000377,-0.00000339,0.00000204,-0.
 00000757,-0.00000829,0.00000151,-0.00000024,-0.00000444,0.00000080,0.0
 0000498,0.00000374,0.00000108,-0.00001683,-0.00000136,0.00001021,-0.00
 000009,-0.00001096,0.00000077,0.00000113,-0.00000543,-0.00000120,0.000
 01045,0.,-0.00001306,-0.00007022,-0.00002242,0.00004237,-0.00040037,0.
 00028348,0.00015630,-0.09989016,-0.04632021,0.09463484,-0.00001491,0.0
 0000426,-0.00001205,0.00000550,0.00000090,0.00003333,0.00000976,-0.000
 02700,0.00001493,-0.00001256,0.00002969,-0.00003374,-0.00000624,-0.000
 01379,-0.00003065,-0.00003011,-0.00008217,0.00011108,-0.00016661,0.000
 38633,0.00061393,0.00167232,0.00015342,-0.00102997,-0.00524182,0.00458
 776,-0.00302882,-0.17679541,-0.00685273,-0.12693484,-0.00014884,-0.000
 04927,0.00038962,0.00023115,0.00005433,0.00012473,-0.00000119,0.000000
 75,-0.00000773,0.00000622,0.00000307,0.00000255,-0.00000283,-0.0000047
 5,0.00000037,-0.00000332,0.00000246,0.00000013,-0.00000054,-0.00000930
 ,0.00001175,0.00001768,0.00000611,-0.00000510,0.00000388,0.00001015,0.
 00000317,0.00000576,0.00000983,-0.00002008,-0.00001226,-0.00001961,0.0
 0000294,0.00009656,0.00023526,-0.00013527,-0.00000346,-0.00033774,-0.0
 0044511,-0.01814986,-0.00040194,-0.01921723,0.19103278,0.00001860,-0.0
 0001677,0.00002912,-0.00002800,-0.00000017,-0.00004674,-0.00001158,0.0
 0002783,-0.00001685,0.00001819,-0.00002871,0.00004499,-0.00001178,0.00
 000872,0.00000659,-0.00013624,0.00023952,-0.00018518,0.00069332,-0.001
 22452,-0.00262100,-0.00128678,-0.00266036,0.00183622,0.02599015,-0.001
 04572,0.02342342,-0.00472510,-0.04434229,-0.00128613,0.00096431,0.0006
 7395,-0.00018906,-0.00059463,0.00036545,-0.00041355,0.00000588,0.00000
 274,0.00000754,-0.00000500,-0.00000138,-0.00000526,0.00000711,0.000009
 23,-0.00000264,0.00000139,0.00000144,-0.00000009,0.00000046,0.00000621
 ,-0.00001341,-0.00003337,-0.00000578,0.00000385,-0.00001484,0.00000386
 ,0.00000167,-0.00001661,-0.00002369,0.00001765,0.00003359,0.00006044,0
 .00000220,-0.00027073,-0.00071891,0.00050153,0.00022106,0.00027899,0.0
 0063437,-0.00734953,-0.00101306,-0.00885896,0.00240820,0.05036129,-0.0
 0001860,0.00000965,-0.00001771,0.00002217,-0.00000057,0.00003815,0.000
 01242,-0.00003070,0.00002251,-0.00001785,0.00003564,-0.00004740,0.0000
 2152,-0.00000885,-0.00000140,0.00016525,-0.00005434,0.00001619,-0.0005
 8655,0.00024015,0.00082262,0.00120851,0.00017162,-0.00059200,-0.008348
 52,0.00145026,-0.00720109,-0.12794334,-0.00216768,-0.16979099,-0.00087
 993,-0.00003386,0.00011376,0.00060467,-0.00009810,0.00023265,-0.000004
 10,-0.00000025,-0.00000810,0.00000844,0.00000318,0.00000212,-0.0000057
 1,-0.00000849,0.00000142,-0.00000294,0.00000091,0.,-0.00000074,-0.0000
 1112,0.00001521,0.00002987,0.00000480,-0.00000411,0.00000325,0.0000044
 4,0.00000314,-0.00002655,0.00005528,-0.00004896,-0.00002014,-0.0000254
 4,0.00000755,0.00016355,0.00023961,-0.00023033,-0.00004050,0.00001562,
 -0.00004027,0.01016283,-0.00028291,0.01020758,0.14255189,0.00129673,0.
 18417063,-0.00000319,0.00001135,-0.00002377,0.00000984,0.00000071,0.00
 002969,0.00000910,-0.00000286,0.00000667,-0.00001072,0.00000209,-0.000
 01741,0.00000617,-0.00000268,-0.00002591,0.00015931,0.00025219,-0.0000
 1873,-0.00043726,-0.00019720,-0.00067074,0.00133564,0.00084195,-0.0003
 8375,-0.00418349,0.00652346,0.00253096,-0.06827862,0.04523326,0.058861
 80,-0.00004637,-0.00037821,-0.00020202,-0.00000060,-0.00005781,-0.0000
 6140,-0.00000292,-0.00000397,-0.00000269,-0.00000565,-0.00000198,0.000
 00695,-0.00000695,-0.00000846,0.00000165,-0.00000082,-0.00000453,0.000
 00012,0.00000235,0.00000294,0.00000392,-0.00000856,0.00000711,0.000013
 83,0.00000443,-0.00001294,-0.00000224,-0.00004878,0.00000397,-0.000085
 71,-0.00000166,-0.00000646,-0.00003551,-0.00010647,-0.00008814,0.00008
 172,0.00030411,0.00010338,0.00052374,-0.00762191,0.01738390,0.01942832
 ,0.00700613,-0.01500594,-0.01756678,0.07150721,0.00002593,-0.00002210,
 0.00004742,-0.00003707,-0.00000361,-0.00008592,-0.00002867,0.00003875,
 -0.00003686,0.00003497,-0.00004661,0.00008046,-0.00007404,0.00003120,0
 .00004347,-0.00063827,-0.00077977,0.00010794,0.00212578,0.00101505,0.0
 0162578,-0.00222241,-0.00221545,0.00137328,0.01225359,-0.02202343,-0.0
 2141738,0.04672999,-0.14295309,-0.11538271,0.00124825,0.00030411,-0.00
 069094,-0.00063400,0.00066093,0.00045184,0.00000704,0.00000467,0.00001
 364,-0.00000281,-0.00000125,-0.00001067,0.00001727,0.00002495,-0.00000
 406,0.00000727,0.00000308,0.00000024,0.00000009,0.00000998,-0.00002473
 ,-0.00004218,0.00000419,-0.00001573,-0.00000359,-0.00000284,-0.0000025
 4,0.00023506,-0.00014027,0.00028852,0.00001245,0.00003828,-0.00001228,
 -0.00009212,0.00010693,-0.00007778,-0.00017749,-0.00025286,-0.00058805
 ,-0.00307702,0.00792217,0.00933130,-0.00021983,-0.00068682,-0.00118667
 ,-0.05465293,0.15896501,0.00000098,0.00000168,0.00000259,-0.00000371,0
 .00000189,0.00000242,0.00000039,0.00000403,-0.00000594,0.00000035,-0.0
 0000362,0.00000764,0.00002384,-0.00000394,-0.00001300,0.00012484,0.000
 25760,-0.00004820,-0.00071984,-0.00038301,-0.00093451,-0.00057606,0.00
 159253,-0.00067346,-0.00427021,0.00836616,0.01256899,0.05824893,-0.113
 43242,-0.17965030,0.00004303,-0.00024150,0.00039235,-0.00002371,-0.000
 21780,0.00006728,0.00000149,-0.00000147,-0.00000018,-0.00000209,-0.000
 00140,-0.00000067,-0.00000060,-0.00000351,0.00000034,-0.00000214,0.000
 00046,0.00000045,0.00000068,0.00000162,-0.00000223,0.00000479,-0.00000
 697,0.00000416,-0.00000259,0.00000609,0.00000152,-0.00006453,0.0000362
 3,-0.00008781,0.00000054,0.00001006,-0.00000903,0.00002094,-0.00013139
 ,0.00007302,0.00000665,0.00014531,0.00022363,0.00230410,-0.00717126,-0
 .00926527,0.00729011,-0.01392572,-0.01766859,-0.06238723,0.12534864,0.
 19512318,-0.00002889,0.00002477,-0.00007475,0.00002647,-0.00001429,0.0
 0008773,0.00001611,-0.00004882,0.00003830,-0.00002901,0.00005066,-0.00
 008674,-0.00003211,-0.00002693,-0.00019395,0.00020621,-0.00001542,0.00
 031229,0.00022484,0.00359290,0.00295095,-0.00036747,-0.00165024,0.0012
 4893,-0.01101769,0.00889638,0.02004863,-0.00002425,0.00069502,-0.00036
 108,-0.07834477,0.03731401,0.06804233,-0.00801902,0.01227584,0.0078754
 1,-0.00001466,-0.00000606,-0.00001394,-0.00000116,0.00000080,0.0000147
 0,-0.00001142,-0.00001308,0.00000768,0.00000169,-0.00000570,-0.0000013
 3,-0.00000693,-0.00000922,0.00002456,0.00004258,0.00001285,0.00001848,
 0.00008702,-0.00005326,-0.00001837,-0.00000727,-0.00000858,-0.00004274
 ,-0.00014013,-0.00012179,-0.00022890,-0.00157258,0.00074854,-0.0000121
 3,-0.00101149,-0.00042871,-0.00135922,-0.00003221,-0.00019557,-0.00034
 273,0.00011412,-0.00013669,-0.00002979,0.00027789,-0.00073473,-0.00001
 539,0.09126868,0.00003184,-0.00002581,0.00006983,0.00000962,0.00005913
 ,-0.00010989,-0.00003512,0.00003141,-0.00005036,0.00002640,-0.00003560
 ,0.00007706,0.00000071,-0.00013265,0.00018490,-0.00015437,-0.00017164,
 -0.00007192,-0.00522442,-0.00494944,-0.00169226,-0.00228720,-0.0013011
 5,0.00145265,-0.00535614,0.01189060,0.01473771,0.00044078,0.00081104,-
 0.00060036,0.03349258,-0.09229402,-0.08340142,0.02525125,-0.02290625,-
 0.01144211,0.00000967,0.00000957,0.00001384,0.00000306,0.00000117,-0.0
 0000783,0.00001583,0.00001398,-0.00000758,-0.00000147,0.00000591,0.000
 00268,0.00000548,0.00000909,-0.00002139,0.00008203,0.00004386,-0.00001
 061,-0.00005362,0.00006788,0.00002729,-0.00002134,0.00005728,-0.000037
 68,-0.00000525,0.00005826,0.00010715,0.00258651,0.00001366,-0.00095078
 ,-0.00084366,-0.00003562,-0.00165698,0.00001398,0.00012779,-0.00022585
 ,-0.00014708,-0.00005130,-0.00001745,0.00017512,-0.00005233,-0.0002592
 3,-0.04966976,0.10930920,0.00001943,-0.00000867,0.00004177,-0.00003150
 ,-0.00000706,-0.00007724,-0.00001293,0.00003877,-0.00003438,0.00002138
 ,-0.00004396,0.00006880,0.00004967,-0.00000540,0.00002562,0.00008651,-
 0.00011408,-0.00021745,-0.00017162,0.00166699,-0.00008162,0.00064085,0
 .00187237,-0.00070359,0.00561840,-0.00591963,-0.00902026,0.00015358,-0
 .00051832,0.00016421,0.07158989,-0.08848405,-0.21018161,-0.00616315,0.
 00591928,0.01554050,0.00000542,0.00000060,0.00001054,-0.00000436,-0.00
 000316,-0.00000926,0.00000806,0.00001094,-0.00000327,0.00000212,0.0000
 0187,0.00000221,0.00000471,0.00001160,-0.00002183,-0.00003758,-0.00001
 540,-0.00000338,0.00001795,-0.00000645,0.00000452,-0.00000452,-0.00005
 981,0.00003708,-0.00011987,0.00009398,-0.00008574,-0.00078237,-0.00018
 732,0.00029894,0.00048509,0.00012232,0.00078095,-0.00003068,0.00027247
 ,0.00025998,0.00000219,-0.00006714,-0.00005942,-0.00002495,0.00077534,
 0.00001996,-0.07798280,0.09464747,0.22203779,-0.00006845,0.00005452,-0
 .00010421,-0.00007957,-0.00001527,0.00025562,0.00003866,-0.00010655,0.
 00006363,-0.00004813,0.00010947,-0.00014409,-0.00014982,0.00011964,-0.
 00054965,-0.00105519,0.00050334,0.00082928,-0.00069008,0.00011721,-0.0
 0443581,-0.00007496,-0.00251355,0.00082076,-0.01995999,-0.00665511,-0.
 01184338,-0.00027768,0.00069129,-0.00019755,-0.17286376,-0.03936237,-0
 .10903933,-0.01159365,0.00897278,-0.00808073,0.00000235,-0.00001711,-0
 .00004214,0.00000303,0.00000585,0.00001945,-0.00001614,-0.00002844,0.0
 0000281,-0.00001522,0.00000007,-0.00000079,-0.00000428,-0.00003090,0.0
 0004669,0.00000566,-0.00000716,0.00000118,0.00001485,0.00002079,0.0000
 2205,0.00005426,0.00006808,-0.00006856,0.00005313,-0.00006927,0.000071
 55,-0.00008921,0.00019355,0.00017980,-0.00004735,0.00076566,0.00144020
 ,0.00020553,0.00002354,0.00044559,0.00038810,-0.00073544,0.00053768,0.
 00014179,-0.00006054,-0.00000354,0.00839548,0.00165457,0.00666110,0.19
 773066,0.00004886,-0.00003760,0.00009644,0.00016815,0.00005186,-0.0002
 3531,-0.00001305,0.00004642,-0.00002024,0.00000962,-0.00003675,0.00004
 641,0.00030632,-0.00019803,0.00071835,0.00244811,0.00001971,-0.0011230
 0,-0.00191601,-0.00091172,0.00568174,-0.00125584,-0.00222251,0.0014423
 3,-0.01277327,-0.00116048,-0.01199320,0.00015286,0.00082922,-0.0004010
 8,-0.04527644,-0.06023027,-0.03810946,0.03235382,-0.00436502,0.0189449
 0,-0.00001711,0.00002285,0.00003214,0.00001751,0.00000186,-0.00001458,
 0.00000351,0.00000412,-0.00000099,0.00000512,0.00000157,0.00000123,0.0
 0000375,0.00000980,-0.00001548,0.00008871,0.00003210,-0.00001714,-0.00
 002882,-0.00002068,-0.00001108,-0.00023167,0.00013836,-0.00025458,-0.0
 0008724,0.00002914,-0.00000343,-0.00027809,-0.00019034,-0.00029018,0.0
 0011694,0.00112282,0.00113601,0.00017045,0.00014063,0.00022514,0.00027
 270,-0.00022019,0.00039852,-0.00011731,0.00005114,0.00001095,-0.010472
 93,-0.00055401,-0.00999357,0.03630135,0.06764599,-0.00004566,0.0000348
 8,-0.00004803,-0.00004706,-0.00004369,0.00014561,0.00002806,-0.0000501
 1,0.00003279,-0.00002534,0.00005281,-0.00006457,-0.00003938,0.00008153
 ,-0.00029247,-0.00079498,-0.00049961,0.00041417,0.00277993,0.00030917,
 -0.00258466,0.00155556,0.00098933,-0.00027765,0.01198023,0.00301621,0.
 01181029,-0.00045067,-0.00065822,0.00027483,-0.10697903,-0.03608606,-0
 .14377243,-0.01056000,0.01113476,0.00024650,0.00000466,-0.00001087,-0.
 00002079,0.00000371,0.00000309,0.00000374,-0.00000799,-0.00001432,0.00
 000039,-0.00000755,0.00000171,0.00000066,0.00000191,-0.00001915,0.0000
 2260,-0.00005351,-0.00001955,0.00001175,0.00000402,0.00001794,0.000029
 10,0.00012310,-0.00007671,0.00014230,-0.00001133,0.00002509,-0.0000712
 2,-0.00031074,0.00016190,-0.00001928,-0.00009450,-0.00100133,-0.001191
 09,-0.00002706,-0.00021539,0.00000974,-0.00025213,-0.00017417,0.000056
 85,0.00001946,0.00004846,-0.00012832,-0.01990612,-0.01075686,-0.018793
 80,0.12311241,0.03374915,0.15406300\\0.00000113,-0.00000211,-0.0000013
 3,0.00000393,0.00000088,-0.00000334,-0.00000101,0.00000279,-0.00000520
 ,0.00000244,0.00000215,0.00000495,0.00000229,-0.00000377,0.00000085,-0
 .00000286,0.00000340,-0.00000239,0.00000042,-0.00000550,0.00000128,0.0
 0000267,0.00000138,0.00000355,-0.00000370,-0.00000249,-0.00000194,0.00
 000007,-0.00000095,-0.00000209,-0.00000469,0.00000639,0.00000154,0.000
 00225,-0.00000247,0.00000014,-0.00000042,0.00000122,0.00000051,0.00000
 047,0.00000032,-0.00000172,-0.00000085,0.00000074,0.00000082,-0.000001
 11,0.00000125,-0.00000049,0.00000148,0.00000113,0.00000203,-0.00000044
 ,-0.00000010,-0.00000066,0.00000052,-0.00000078,0.00000067,0.00000065,
 -0.00000002,0.00000137,-0.00000048,0.00000086,-0.00000032,-0.00000015,
 -0.00000172,0.00000143,-0.00000065,-0.00000097,0.00000024,-0.00000098,
 -0.00000171,-0.00000159,-0.00000175,0.00000031,-0.00000005,0.00000027,
 -0.00000070,-0.00000025,-0.00000070,0.00000202,0.00000022,0.00000118,-
 0.00000157,0.00000175\\\@


 AND HERE I AM, FOR ALL MY LORE,
 THE WRETCHED FOOL I WAS BEFORE.
 CALLED MASTER OF ARTS, AND DOCTOR TO BOOT,
 FOR TEN YEARS ALMOST I CONFUTE
 AND UP AND DOWN, WHEREVER IT GOES
 I DRAG MY STUDENTS BY THE NOSE --
 AND SEE THAT FOR ALL OUR SCIENCE AND ART
 WE CAN KNOW NOTHING.  IT BURNS MY HEART.

                                       -- FAUST
 Job cpu time:       0 days  4 hours 10 minutes 32.4 seconds.
 Elapsed time:       0 days  1 hours  2 minutes 39.0 seconds.
 File lengths (MBytes):  RWF=    353 Int=      0 D2E=      0 Chk=     15 Scr=      1
 Normal termination of Gaussian 16 at Mon May 29 12:18:40 2023.
### All Done ###
