### Starting Gaussian ###
 Entering Gaussian System, Link 0=g16
 Initial command:
 /cluster/software/gaussian/gaussian-16-A.03/avx2/g16/l1.exe "/local/scratch/cz9n3/Gau-12248.inp" -scrdir="/local/scratch/cz9n3/"
 Entering Link 1 = /cluster/software/gaussian/gaussian-16-A.03/avx2/g16/l1.exe PID=     12255.
  
 Copyright (c) 1988,1990,1992,1993,1995,1998,2003,2009,2016,
            Gaussian, Inc.  All Rights Reserved.
  
 This is part of the Gaussian(R) 16 program.  It is based on
 the Gaussian(R) 09 system (copyright 2009, Gaussian, Inc.),
 the Gaussian(R) 03 system (copyright 2003, Gaussian, Inc.),
 the Gaussian(R) 98 system (copyright 1998, Gaussian, Inc.),
 the Gaussian(R) 94 system (copyright 1995, Gaussian, Inc.),
 the Gaussian 92(TM) system (copyright 1992, Gaussian, Inc.),
 the Gaussian 90(TM) system (copyright 1990, Gaussian, Inc.),
 the Gaussian 88(TM) system (copyright 1988, Gaussian, Inc.),
 the Gaussian 86(TM) system (copyright 1986, Carnegie Mellon
 University), and the Gaussian 82(TM) system (copyright 1983,
 Carnegie Mellon University). Gaussian is a federally registered
 trademark of Gaussian, Inc.
  
 This software contains proprietary and confidential information,
 including trade secrets, belonging to Gaussian, Inc.
  
 This software is provided under written license and may be
 used, copied, transmitted, or stored only in accord with that
 written license.
  
 The following legend is applicable only to US Government
 contracts under FAR:
  
                    RESTRICTED RIGHTS LEGEND
  
 Use, reproduction and disclosure by the US Government is
 subject to restrictions as set forth in subparagraphs (a)
 and (c) of the Commercial Computer Software - Restricted
 Rights clause in FAR 52.227-19.
  
 Gaussian, Inc.
 340 Quinnipiac St., Bldg. 40, Wallingford CT 06492
  
  
 ---------------------------------------------------------------
 Warning -- This program may not be used in any manner that
 competes with the business of Gaussian, Inc. or will provide
 assistance to any competitor of Gaussian, Inc.  The licensee
 of this program is prohibited from giving any competitor of
 Gaussian, Inc. access to this program.  By using this program,
 the user acknowledges that Gaussian, Inc. is engaged in the
 business of creating and licensing software in the field of
 computational chemistry and represents and warrants to the
 licensee that it is not a competitor of Gaussian, Inc. and that
 it will not use this program in any manner prohibited above.
 ---------------------------------------------------------------
  

 Cite this work as:
 Gaussian 16, Revision A.03,
 M. J. Frisch, G. W. Trucks, H. B. Schlegel, G. E. Scuseria, 
 M. A. Robb, J. R. Cheeseman, G. Scalmani, V. Barone, 
 G. A. Petersson, H. Nakatsuji, X. Li, M. Caricato, A. V. Marenich, 
 J. Bloino, B. G. Janesko, R. Gomperts, B. Mennucci, H. P. Hratchian, 
 J. V. Ortiz, A. F. Izmaylov, J. L. Sonnenberg, D. Williams-Young, 
 F. Ding, F. Lipparini, F. Egidi, J. Goings, B. Peng, A. Petrone, 
 T. Henderson, D. Ranasinghe, V. G. Zakrzewski, J. Gao, N. Rega, 
 G. Zheng, W. Liang, M. Hada, M. Ehara, K. Toyota, R. Fukuda, 
 J. Hasegawa, M. Ishida, T. Nakajima, Y. Honda, O. Kitao, H. Nakai, 
 T. Vreven, K. Throssell, J. A. Montgomery, Jr., J. E. Peralta, 
 F. Ogliaro, M. J. Bearpark, J. J. Heyd, E. N. Brothers, K. N. Kudin, 
 V. N. Staroverov, T. A. Keith, R. Kobayashi, J. Normand, 
 K. Raghavachari, A. P. Rendell, J. C. Burant, S. S. Iyengar, 
 J. Tomasi, M. Cossi, J. M. Millam, M. Klene, C. Adamo, R. Cammi, 
 J. W. Ochterski, R. L. Martin, K. Morokuma, O. Farkas, 
 J. B. Foresman, and D. J. Fox, Gaussian, Inc., Wallingford CT, 2016.
 
 ******************************************
 Gaussian 16:  ES64L-G16RevA.03 25-Dec-2016
                25-May-2023 
 ******************************************
 %chk=CdCqCrCCqCCCCrCqCCrCCO.chk
 %NProcShared=20
 Will use up to   20 processors via shared memory.
 ----------------------------------------------------------------
 # opt freq b3lyp/6-31+g(2df,p) Geom=AllCheckpoint TD(NStates=10)
 ----------------------------------------------------------------
 1/18=20,19=15,26=3,29=7,38=1/1,3;
 2/9=110,12=2,40=1/2;
 3/5=1,6=6,7=114,11=9,14=-4,25=1,30=1,71=1,74=-5/1,2,3,8;
 4//1;
 5/5=2,38=5/2;
 8/6=1,10=2,108=10/1;
 9/15=2,41=10,42=1,70=2/14;
 10/5=4/2;
 6/7=2,8=2,9=2,10=2/1;
 7/12=6,13=5/1,2,3,16;
 1/18=20,19=15,26=3/3(2);
 2/9=110/2;
 99//99;
 2/9=110/2;
 3/5=1,6=6,7=114,11=9,14=-2,25=1,30=1,71=1,74=-5/1,2,3,8;
 4/5=5,16=3,69=1/1;
 5/5=2,38=5/2;
 8/6=1,10=2,108=10/1;
 9/15=2,41=10,42=1,49=4,70=2/14;
 10/5=4/2;
 7/12=6,13=5/1,2,3,16;
 1/18=20,19=15,26=3/3(-8);
 2/9=110/2;
 6/7=2,8=2,9=2,10=2/1;
 99//99;
 Structure from the checkpoint file:  "CdCqCrCCqCCCCrCqCCrCCO.chk"
 -------------------
 Title Card Required
 -------------------
 Charge =  0 Multiplicity = 1
 Redundant internal coordinates found in file.  (old form).
 C,0,1.0686149174,-0.5489811939,0.1173535262
 C,0,2.0425741962,0.3559594591,0.2244635762
 C,0,2.2945305577,1.0968066051,1.5142644985
 C,0,2.9173340333,0.7318477658,-0.9517439725
 C,0,4.4002093232,0.2890490788,-0.8401671016
 C,0,4.4967105735,-1.258786538,-0.7444320654
 C,0,4.7009364329,-1.8087879416,0.6729351713
 C,0,4.7842889181,-3.3381790257,0.7203859211
 C,0,5.0015234222,-3.8866256663,2.1333350459
 C,0,5.2963764658,0.834691121,-1.9937206828
 C,0,5.0573020721,2.3249879596,-2.3550992937
 C,0,4.0797161789,2.5714036608,-3.510858789
 C,0,6.7866417641,0.6197829512,-1.6396569638
 C,0,7.7128406413,0.565070963,-2.8566811678
 O,0,9.0742278259,0.3688460766,-2.5036795339
 H,0,0.4304463542,-0.8042835967,0.9577681658
 H,0,0.8677425731,-1.0633962538,-0.8171949057
 H,0,1.6046016127,0.7805851759,2.3006684721
 H,0,2.1763807426,2.1786391555,1.3707202059
 H,0,3.316578096,0.9424930968,1.8796164975
 H,0,2.8748421588,1.8217478513,-1.0610775179
 H,0,2.4923606256,0.3026737084,-1.8667426182
 H,0,4.8045294743,0.7196636428,0.0874774468
 H,0,5.3154516686,-1.6229745064,-1.375882837
 H,0,3.5843735996,-1.6996931883,-1.1655073326
 H,0,3.8799437554,-1.474330423,1.3184034769
 H,0,5.6207119736,-1.382226718,1.0983509763
 H,0,5.5984271087,-3.6777665948,0.0660098311
 H,0,3.8621073331,-3.7615772806,0.3007633561
 H,0,5.9340574101,-3.5074281847,2.5663877254
 H,0,5.0550375898,-4.979937485,2.1354070802
 H,0,4.1847062012,-3.5921615587,2.8018345353
 H,0,5.0717995124,0.2338772706,-2.8886508834
 H,0,6.0158970641,2.7790944273,-2.6309088406
 H,0,4.731016304,2.8704564912,-1.4599838253
 H,0,4.4377676611,2.0897992977,-4.4276742173
 H,0,3.9796533459,3.642063223,-3.7177204599
 H,0,3.0806238137,2.1789191966,-3.3048418093
 H,0,6.9335148755,-0.3072627286,-1.0772837513
 H,0,7.1101557394,1.4351547856,-0.974759992
 H,0,7.5927064381,1.463666436,-3.482626715
 H,0,7.446164867,-0.2942040244,-3.4826225087
 H,0,9.3509447786,1.1248735087,-1.9762477239
 Recover connectivity data from disk.

 GradGradGradGradGradGradGradGradGradGradGradGradGradGradGradGradGradGrad
 Berny optimization.
 Initialization pass.
                           ----------------------------
                           !    Initial Parameters    !
                           ! (Angstroms and Degrees)  !
 --------------------------                            --------------------------
 ! Name  Definition              Value          Derivative Info.                !
 --------------------------------------------------------------------------------
 ! R1    R(1,2)                  1.3338         estimate D2E/DX2                !
 ! R2    R(1,16)                 1.0857         estimate D2E/DX2                !
 ! R3    R(1,17)                 1.0855         estimate D2E/DX2                !
 ! R4    R(2,3)                  1.5086         estimate D2E/DX2                !
 ! R5    R(2,4)                  1.5133         estimate D2E/DX2                !
 ! R6    R(3,18)                 1.0929         estimate D2E/DX2                !
 ! R7    R(3,19)                 1.0977         estimate D2E/DX2                !
 ! R8    R(3,20)                 1.0963         estimate D2E/DX2                !
 ! R9    R(4,5)                  1.5516         estimate D2E/DX2                !
 ! R10   R(4,21)                 1.0962         estimate D2E/DX2                !
 ! R11   R(4,22)                 1.0964         estimate D2E/DX2                !
 ! R12   R(5,6)                  1.5538         estimate D2E/DX2                !
 ! R13   R(5,10)                 1.5593         estimate D2E/DX2                !
 ! R14   R(5,23)                 1.0997         estimate D2E/DX2                !
 ! R15   R(6,7)                  1.534          estimate D2E/DX2                !
 ! R16   R(6,24)                 1.0962         estimate D2E/DX2                !
 ! R17   R(6,25)                 1.0973         estimate D2E/DX2                !
 ! R18   R(7,8)                  1.5324         estimate D2E/DX2                !
 ! R19   R(7,26)                 1.0966         estimate D2E/DX2                !
 ! R20   R(7,27)                 1.0995         estimate D2E/DX2                !
 ! R21   R(8,9)                  1.5311         estimate D2E/DX2                !
 ! R22   R(8,28)                 1.0983         estimate D2E/DX2                !
 ! R23   R(8,29)                 1.0981         estimate D2E/DX2                !
 ! R24   R(9,30)                 1.0959         estimate D2E/DX2                !
 ! R25   R(9,31)                 1.0946         estimate D2E/DX2                !
 ! R26   R(9,32)                 1.0958         estimate D2E/DX2                !
 ! R27   R(10,11)                1.552          estimate D2E/DX2                !
 ! R28   R(10,13)                1.5468         estimate D2E/DX2                !
 ! R29   R(10,33)                1.1011         estimate D2E/DX2                !
 ! R30   R(11,12)                1.5337         estimate D2E/DX2                !
 ! R31   R(11,34)                1.096          estimate D2E/DX2                !
 ! R32   R(11,35)                1.0978         estimate D2E/DX2                !
 ! R33   R(12,36)                1.0958         estimate D2E/DX2                !
 ! R34   R(12,37)                1.095          estimate D2E/DX2                !
 ! R35   R(12,38)                1.093          estimate D2E/DX2                !
 ! R36   R(13,14)                1.5304         estimate D2E/DX2                !
 ! R37   R(13,39)                1.0942         estimate D2E/DX2                !
 ! R38   R(13,40)                1.1007         estimate D2E/DX2                !
 ! R39   R(14,15)                1.42           estimate D2E/DX2                !
 ! R40   R(14,41)                1.1017         estimate D2E/DX2                !
 ! R41   R(14,42)                1.096          estimate D2E/DX2                !
 ! R42   R(15,43)                0.9625         estimate D2E/DX2                !
 ! A1    A(2,1,16)             121.7762         estimate D2E/DX2                !
 ! A2    A(2,1,17)             121.721          estimate D2E/DX2                !
 ! A3    A(16,1,17)            116.5012         estimate D2E/DX2                !
 ! A4    A(1,2,3)              121.5873         estimate D2E/DX2                !
 ! A5    A(1,2,4)              121.8856         estimate D2E/DX2                !
 ! A6    A(3,2,4)              116.4876         estimate D2E/DX2                !
 ! A7    A(2,3,18)             111.572          estimate D2E/DX2                !
 ! A8    A(2,3,19)             110.7447         estimate D2E/DX2                !
 ! A9    A(2,3,20)             111.808          estimate D2E/DX2                !
 ! A10   A(18,3,19)            108.1382         estimate D2E/DX2                !
 ! A11   A(18,3,20)            107.9387         estimate D2E/DX2                !
 ! A12   A(19,3,20)            106.4184         estimate D2E/DX2                !
 ! A13   A(2,4,5)              115.1936         estimate D2E/DX2                !
 ! A14   A(2,4,21)             107.583          estimate D2E/DX2                !
 ! A15   A(2,4,22)             109.11           estimate D2E/DX2                !
 ! A16   A(5,4,21)             109.1452         estimate D2E/DX2                !
 ! A17   A(5,4,22)             108.5876         estimate D2E/DX2                !
 ! A18   A(21,4,22)            106.9142         estimate D2E/DX2                !
 ! A19   A(4,5,6)              110.3697         estimate D2E/DX2                !
 ! A20   A(4,5,10)             113.3408         estimate D2E/DX2                !
 ! A21   A(4,5,23)             107.4745         estimate D2E/DX2                !
 ! A22   A(6,5,10)             111.0059         estimate D2E/DX2                !
 ! A23   A(6,5,23)             108.3761         estimate D2E/DX2                !
 ! A24   A(10,5,23)            106.0037         estimate D2E/DX2                !
 ! A25   A(5,6,7)              114.984          estimate D2E/DX2                !
 ! A26   A(5,6,24)             109.9892         estimate D2E/DX2                !
 ! A27   A(5,6,25)             108.9649         estimate D2E/DX2                !
 ! A28   A(7,6,24)             108.2812         estimate D2E/DX2                !
 ! A29   A(7,6,25)             108.7349         estimate D2E/DX2                !
 ! A30   A(24,6,25)            105.4531         estimate D2E/DX2                !
 ! A31   A(6,7,8)              113.1844         estimate D2E/DX2                !
 ! A32   A(6,7,26)             109.5624         estimate D2E/DX2                !
 ! A33   A(6,7,27)             109.2548         estimate D2E/DX2                !
 ! A34   A(8,7,26)             109.0804         estimate D2E/DX2                !
 ! A35   A(8,7,27)             109.2513         estimate D2E/DX2                !
 ! A36   A(26,7,27)            106.2735         estimate D2E/DX2                !
 ! A37   A(7,8,9)              113.1901         estimate D2E/DX2                !
 ! A38   A(7,8,28)             109.2959         estimate D2E/DX2                !
 ! A39   A(7,8,29)             109.1057         estimate D2E/DX2                !
 ! A40   A(9,8,28)             109.5046         estimate D2E/DX2                !
 ! A41   A(9,8,29)             109.4924         estimate D2E/DX2                !
 ! A42   A(28,8,29)            105.9989         estimate D2E/DX2                !
 ! A43   A(8,9,30)             111.1891         estimate D2E/DX2                !
 ! A44   A(8,9,31)             111.4967         estimate D2E/DX2                !
 ! A45   A(8,9,32)             111.1586         estimate D2E/DX2                !
 ! A46   A(30,9,31)            107.6534         estimate D2E/DX2                !
 ! A47   A(30,9,32)            107.4723         estimate D2E/DX2                !
 ! A48   A(31,9,32)            107.679          estimate D2E/DX2                !
 ! A49   A(5,10,11)            114.8175         estimate D2E/DX2                !
 ! A50   A(5,10,13)            109.6191         estimate D2E/DX2                !
 ! A51   A(5,10,33)            107.0449         estimate D2E/DX2                !
 ! A52   A(11,10,13)           109.5807         estimate D2E/DX2                !
 ! A53   A(11,10,33)           107.6559         estimate D2E/DX2                !
 ! A54   A(13,10,33)           107.8639         estimate D2E/DX2                !
 ! A55   A(10,11,12)           115.3368         estimate D2E/DX2                !
 ! A56   A(10,11,34)           108.7673         estimate D2E/DX2                !
 ! A57   A(10,11,35)           109.4532         estimate D2E/DX2                !
 ! A58   A(12,11,34)           107.5352         estimate D2E/DX2                !
 ! A59   A(12,11,35)           110.1916         estimate D2E/DX2                !
 ! A60   A(34,11,35)           105.0268         estimate D2E/DX2                !
 ! A61   A(11,12,36)           110.5865         estimate D2E/DX2                !
 ! A62   A(11,12,37)           110.9587         estimate D2E/DX2                !
 ! A63   A(11,12,38)           112.5139         estimate D2E/DX2                !
 ! A64   A(36,12,37)           107.5496         estimate D2E/DX2                !
 ! A65   A(36,12,38)           107.3714         estimate D2E/DX2                !
 ! A66   A(37,12,38)           107.6481         estimate D2E/DX2                !
 ! A67   A(10,13,14)           113.9565         estimate D2E/DX2                !
 ! A68   A(10,13,39)           111.3889         estimate D2E/DX2                !
 ! A69   A(10,13,40)           108.574          estimate D2E/DX2                !
 ! A70   A(14,13,39)           107.2898         estimate D2E/DX2                !
 ! A71   A(14,13,40)           109.207          estimate D2E/DX2                !
 ! A72   A(39,13,40)           106.1225         estimate D2E/DX2                !
 ! A73   A(13,14,15)           112.7974         estimate D2E/DX2                !
 ! A74   A(13,14,41)           110.8967         estimate D2E/DX2                !
 ! A75   A(13,14,42)           109.5691         estimate D2E/DX2                !
 ! A76   A(15,14,41)           111.0076         estimate D2E/DX2                !
 ! A77   A(15,14,42)           105.4797         estimate D2E/DX2                !
 ! A78   A(41,14,42)           106.7653         estimate D2E/DX2                !
 ! A79   A(14,15,43)           107.657          estimate D2E/DX2                !
 ! D1    D(16,1,2,3)            -1.2454         estimate D2E/DX2                !
 ! D2    D(16,1,2,4)          -178.8782         estimate D2E/DX2                !
 ! D3    D(17,1,2,3)           178.2827         estimate D2E/DX2                !
 ! D4    D(17,1,2,4)             0.6499         estimate D2E/DX2                !
 ! D5    D(1,2,3,18)             0.8652         estimate D2E/DX2                !
 ! D6    D(1,2,3,19)          -119.6464         estimate D2E/DX2                !
 ! D7    D(1,2,3,20)           121.8576         estimate D2E/DX2                !
 ! D8    D(4,2,3,18)           178.6195         estimate D2E/DX2                !
 ! D9    D(4,2,3,19)            58.1079         estimate D2E/DX2                !
 ! D10   D(4,2,3,20)           -60.3881         estimate D2E/DX2                !
 ! D11   D(1,2,4,5)           -111.7873         estimate D2E/DX2                !
 ! D12   D(1,2,4,21)           126.256          estimate D2E/DX2                !
 ! D13   D(1,2,4,22)            10.611          estimate D2E/DX2                !
 ! D14   D(3,2,4,5)             70.4656         estimate D2E/DX2                !
 ! D15   D(3,2,4,21)           -51.4911         estimate D2E/DX2                !
 ! D16   D(3,2,4,22)          -167.1361         estimate D2E/DX2                !
 ! D17   D(2,4,5,6)             61.2821         estimate D2E/DX2                !
 ! D18   D(2,4,5,10)          -173.5009         estimate D2E/DX2                !
 ! D19   D(2,4,5,23)           -56.7158         estimate D2E/DX2                !
 ! D20   D(21,4,5,6)          -177.6064         estimate D2E/DX2                !
 ! D21   D(21,4,5,10)          -52.3894         estimate D2E/DX2                !
 ! D22   D(21,4,5,23)           64.3957         estimate D2E/DX2                !
 ! D23   D(22,4,5,6)           -61.3957         estimate D2E/DX2                !
 ! D24   D(22,4,5,10)           63.8213         estimate D2E/DX2                !
 ! D25   D(22,4,5,23)         -179.3937         estimate D2E/DX2                !
 ! D26   D(4,5,6,7)           -100.098          estimate D2E/DX2                !
 ! D27   D(4,5,6,24)           137.3716         estimate D2E/DX2                !
 ! D28   D(4,5,6,25)            22.2332         estimate D2E/DX2                !
 ! D29   D(10,5,6,7)           133.3691         estimate D2E/DX2                !
 ! D30   D(10,5,6,24)           10.8387         estimate D2E/DX2                !
 ! D31   D(10,5,6,25)         -104.2997         estimate D2E/DX2                !
 ! D32   D(23,5,6,7)            17.3449         estimate D2E/DX2                !
 ! D33   D(23,5,6,24)         -105.1855         estimate D2E/DX2                !
 ! D34   D(23,5,6,25)          139.6761         estimate D2E/DX2                !
 ! D35   D(4,5,10,11)           43.5211         estimate D2E/DX2                !
 ! D36   D(4,5,10,13)          167.3578         estimate D2E/DX2                !
 ! D37   D(4,5,10,33)          -75.9043         estimate D2E/DX2                !
 ! D38   D(6,5,10,11)          168.3956         estimate D2E/DX2                !
 ! D39   D(6,5,10,13)          -67.7677         estimate D2E/DX2                !
 ! D40   D(6,5,10,33)           48.9702         estimate D2E/DX2                !
 ! D41   D(23,5,10,11)         -74.1242         estimate D2E/DX2                !
 ! D42   D(23,5,10,13)          49.7126         estimate D2E/DX2                !
 ! D43   D(23,5,10,33)         166.4505         estimate D2E/DX2                !
 ! D44   D(5,6,7,8)            179.7498         estimate D2E/DX2                !
 ! D45   D(5,6,7,26)            57.7724         estimate D2E/DX2                !
 ! D46   D(5,6,7,27)           -58.2763         estimate D2E/DX2                !
 ! D47   D(24,6,7,8)           -56.8068         estimate D2E/DX2                !
 ! D48   D(24,6,7,26)         -178.7841         estimate D2E/DX2                !
 ! D49   D(24,6,7,27)           65.1671         estimate D2E/DX2                !
 ! D50   D(25,6,7,8)            57.2948         estimate D2E/DX2                !
 ! D51   D(25,6,7,26)          -64.6826         estimate D2E/DX2                !
 ! D52   D(25,6,7,27)          179.2687         estimate D2E/DX2                !
 ! D53   D(6,7,8,9)            179.4498         estimate D2E/DX2                !
 ! D54   D(6,7,8,28)            57.1169         estimate D2E/DX2                !
 ! D55   D(6,7,8,29)           -58.3711         estimate D2E/DX2                !
 ! D56   D(26,7,8,9)           -58.3036         estimate D2E/DX2                !
 ! D57   D(26,7,8,28)          179.3635         estimate D2E/DX2                !
 ! D58   D(26,7,8,29)           63.8754         estimate D2E/DX2                !
 ! D59   D(27,7,8,9)            57.4739         estimate D2E/DX2                !
 ! D60   D(27,7,8,28)          -64.8589         estimate D2E/DX2                !
 ! D61   D(27,7,8,29)          179.653          estimate D2E/DX2                !
 ! D62   D(7,8,9,30)           -59.9518         estimate D2E/DX2                !
 ! D63   D(7,8,9,31)           179.8999         estimate D2E/DX2                !
 ! D64   D(7,8,9,32)            59.7399         estimate D2E/DX2                !
 ! D65   D(28,8,9,30)           62.2647         estimate D2E/DX2                !
 ! D66   D(28,8,9,31)          -57.8836         estimate D2E/DX2                !
 ! D67   D(28,8,9,32)         -178.0436         estimate D2E/DX2                !
 ! D68   D(29,8,9,30)          178.0852         estimate D2E/DX2                !
 ! D69   D(29,8,9,31)           57.9369         estimate D2E/DX2                !
 ! D70   D(29,8,9,32)          -62.2231         estimate D2E/DX2                !
 ! D71   D(5,10,11,12)         -94.7379         estimate D2E/DX2                !
 ! D72   D(5,10,11,34)         144.4007         estimate D2E/DX2                !
 ! D73   D(5,10,11,35)          30.1694         estimate D2E/DX2                !
 ! D74   D(13,10,11,12)        141.405          estimate D2E/DX2                !
 ! D75   D(13,10,11,34)         20.5436         estimate D2E/DX2                !
 ! D76   D(13,10,11,35)        -93.6877         estimate D2E/DX2                !
 ! D77   D(33,10,11,12)         24.3467         estimate D2E/DX2                !
 ! D78   D(33,10,11,34)        -96.5147         estimate D2E/DX2                !
 ! D79   D(33,10,11,35)        149.254          estimate D2E/DX2                !
 ! D80   D(5,10,13,14)         156.1491         estimate D2E/DX2                !
 ! D81   D(5,10,13,39)          34.595          estimate D2E/DX2                !
 ! D82   D(5,10,13,40)         -81.9074         estimate D2E/DX2                !
 ! D83   D(11,10,13,14)        -76.9995         estimate D2E/DX2                !
 ! D84   D(11,10,13,39)        161.4464         estimate D2E/DX2                !
 ! D85   D(11,10,13,40)         44.944          estimate D2E/DX2                !
 ! D86   D(33,10,13,14)         39.9281         estimate D2E/DX2                !
 ! D87   D(33,10,13,39)        -81.626          estimate D2E/DX2                !
 ! D88   D(33,10,13,40)        161.8716         estimate D2E/DX2                !
 ! D89   D(10,11,12,36)        -59.6099         estimate D2E/DX2                !
 ! D90   D(10,11,12,37)       -178.8711         estimate D2E/DX2                !
 ! D91   D(10,11,12,38)         60.4517         estimate D2E/DX2                !
 ! D92   D(34,11,12,36)         61.9186         estimate D2E/DX2                !
 ! D93   D(34,11,12,37)        -57.3426         estimate D2E/DX2                !
 ! D94   D(34,11,12,38)       -178.0198         estimate D2E/DX2                !
 ! D95   D(35,11,12,36)        175.867          estimate D2E/DX2                !
 ! D96   D(35,11,12,37)         56.6059         estimate D2E/DX2                !
 ! D97   D(35,11,12,38)        -64.0714         estimate D2E/DX2                !
 ! D98   D(10,13,14,15)        179.9255         estimate D2E/DX2                !
 ! D99   D(10,13,14,41)         54.7052         estimate D2E/DX2                !
 ! D100  D(10,13,14,42)        -62.902          estimate D2E/DX2                !
 ! D101  D(39,13,14,15)        -56.2767         estimate D2E/DX2                !
 ! D102  D(39,13,14,41)        178.5031         estimate D2E/DX2                !
 ! D103  D(39,13,14,42)         60.8958         estimate D2E/DX2                !
 ! D104  D(40,13,14,15)         58.3318         estimate D2E/DX2                !
 ! D105  D(40,13,14,41)        -66.8884         estimate D2E/DX2                !
 ! D106  D(40,13,14,42)        175.5044         estimate D2E/DX2                !
 ! D107  D(13,14,15,43)        -62.3688         estimate D2E/DX2                !
 ! D108  D(41,14,15,43)         62.7912         estimate D2E/DX2                !
 ! D109  D(42,14,15,43)        178.0667         estimate D2E/DX2                !
 --------------------------------------------------------------------------------
 Trust Radius=3.00D-01 FncErr=1.00D-07 GrdErr=1.00D-06 EigMax=2.50D+02 EigMin=1.00D-04
 Number of steps in this run=    240 maximum allowed number of steps=    258.
 GradGradGradGradGradGradGradGradGradGradGradGradGradGradGradGradGradGrad

                          Input orientation:                          
 ---------------------------------------------------------------------
 Center     Atomic      Atomic             Coordinates (Angstroms)
 Number     Number       Type             X           Y           Z
 ---------------------------------------------------------------------
      1          6           0        1.068615   -0.548981    0.117354
      2          6           0        2.042574    0.355959    0.224464
      3          6           0        2.294531    1.096807    1.514264
      4          6           0        2.917334    0.731848   -0.951744
      5          6           0        4.400209    0.289049   -0.840167
      6          6           0        4.496711   -1.258787   -0.744432
      7          6           0        4.700936   -1.808788    0.672935
      8          6           0        4.784289   -3.338179    0.720386
      9          6           0        5.001523   -3.886626    2.133335
     10          6           0        5.296376    0.834691   -1.993721
     11          6           0        5.057302    2.324988   -2.355099
     12          6           0        4.079716    2.571404   -3.510859
     13          6           0        6.786642    0.619783   -1.639657
     14          6           0        7.712841    0.565071   -2.856681
     15          8           0        9.074228    0.368846   -2.503680
     16          1           0        0.430446   -0.804284    0.957768
     17          1           0        0.867743   -1.063396   -0.817195
     18          1           0        1.604602    0.780585    2.300668
     19          1           0        2.176381    2.178639    1.370720
     20          1           0        3.316578    0.942493    1.879616
     21          1           0        2.874842    1.821748   -1.061078
     22          1           0        2.492361    0.302674   -1.866743
     23          1           0        4.804529    0.719664    0.087477
     24          1           0        5.315452   -1.622975   -1.375883
     25          1           0        3.584374   -1.699693   -1.165507
     26          1           0        3.879944   -1.474330    1.318403
     27          1           0        5.620712   -1.382227    1.098351
     28          1           0        5.598427   -3.677767    0.066010
     29          1           0        3.862107   -3.761577    0.300763
     30          1           0        5.934057   -3.507428    2.566388
     31          1           0        5.055038   -4.979937    2.135407
     32          1           0        4.184706   -3.592162    2.801835
     33          1           0        5.071800    0.233877   -2.888651
     34          1           0        6.015897    2.779094   -2.630909
     35          1           0        4.731016    2.870456   -1.459984
     36          1           0        4.437768    2.089799   -4.427674
     37          1           0        3.979653    3.642063   -3.717720
     38          1           0        3.080624    2.178919   -3.304842
     39          1           0        6.933515   -0.307263   -1.077284
     40          1           0        7.110156    1.435155   -0.974760
     41          1           0        7.592706    1.463666   -3.482627
     42          1           0        7.446165   -0.294204   -3.482623
     43          1           0        9.350945    1.124874   -1.976248
 ---------------------------------------------------------------------
                    Distance matrix (angstroms):
                    1          2          3          4          5
     1  C    0.000000
     2  C    1.333787   0.000000
     3  C    2.482508   1.508616   0.000000
     4  C    2.490232   1.513262   2.569490   0.000000
     5  C    3.566323   2.587732   3.260323   1.551592   0.000000
     6  C    3.605321   3.093372   3.937020   2.549516   1.553793
     7  C    3.884526   3.457477   3.865372   3.503662   2.604004
     8  C    4.685030   4.627051   5.147644   4.779818   3.967320
     9  C    5.538215   5.513502   5.704880   5.932272   5.161352
    10  C    4.923937   3.966958   4.624472   2.599257   1.559335
    11  C    5.502940   4.429425   4.910531   3.014459   2.621419
    12  C    5.653977   4.796955   5.532919   3.359191   3.527670
    13  C    6.094992   5.103991   5.509431   3.931580   2.538430
    14  C    7.364220   6.456710   6.981833   5.162701   3.887936
    15  O    8.473610   7.542353   7.914423   6.359844   4.961864
    16  H    1.085696   2.117276   2.720044   3.491496   4.492991
    17  H    1.085520   2.116566   3.483949   2.727972   3.782586
    18  H    2.611875   2.163967   1.092899   3.507681   4.233424
    19  H    3.199685   2.157306   1.097691   2.834794   3.661146
    20  H    3.222329   2.169479   1.096301   2.867119   2.999745
    21  H    3.204920   2.119864   2.737643   1.096194   2.173640
    22  H    2.586311   2.139694   3.478648   1.096365   2.166548
    23  H    3.945556   2.789165   2.911710   2.154446   1.099740
    24  H    4.628049   4.145964   4.987597   3.387632   2.186434
    25  H    3.049412   2.921450   4.082313   2.530421   2.174058
    26  H    3.194114   2.814710   3.026986   3.308687   2.835421
    27  H    4.730565   4.072842   4.169181   3.997556   2.835603
    28  H    5.505555   5.379604   5.984123   5.260112   4.241758
    29  H    4.261222   4.502292   5.247264   4.759437   4.242505
    30  H    6.198605   5.962719   5.962558   6.280870   5.326401
    31  H    6.292653   6.418601   6.703211   6.835552   6.086465
    32  H    5.116386   5.178729   5.216994   5.864524   5.326764
    33  H    5.066993   4.345410   5.276697   2.939610   2.156470
    34  H    6.565412   5.460039   5.819031   4.075771   3.466631
    35  H    5.252974   4.048182   4.234200   2.849807   2.675308
    36  H    6.242726   5.512308   6.394227   4.029621   4.014264
    37  H    6.383321   5.485578   6.057362   4.153132   4.438455
    38  H    4.816746   4.105694   5.001269   2.767264   3.374542
    39  H    5.990212   5.104479   5.496154   4.150328   2.613321
    40  H    6.452110   5.318194   5.431387   4.251461   2.945417
    41  H    7.718444   6.765612   7.292063   5.366566   4.307477
    42  H    7.327884   6.585134   7.310481   5.288519   4.074383
    43  H    8.705283   7.671156   7.872575   6.526517   5.147724
                    6          7          8          9         10
     6  C    0.000000
     7  C    1.533995   0.000000
     8  C    2.559739   1.532396   0.000000
     9  C    3.929621   2.557446   1.531147   0.000000
    10  C    2.565704   3.801787   5.004144   6.277767   0.000000
    11  C    3.968873   5.136545   6.450163   7.663765   1.552010
    12  C    4.743138   6.089017   7.302261   8.626285   2.607324
    13  C    3.094226   3.949203   5.024409   6.142462   1.546751
    14  C    4.258115   5.212002   6.050387   7.215893   2.580057
    15  O    5.166992   5.827405   6.522286   7.496524   3.840473
    16  H    4.431542   4.396276   5.043106   5.637157   5.922398
    17  H    3.634953   4.179650   4.783108   5.810714   4.959813
    18  H    4.668615   4.352202   5.438007   5.774940   5.663383
    19  H    4.655502   4.770730   6.136726   6.734274   4.781217
    20  H    3.622703   3.307881   4.671418   5.120918   4.351317
    21  H    3.495771   4.418395   5.783117   6.878414   2.776316
    22  H    2.777617   3.973165   5.020157   6.312428   2.856864
    23  H    2.168200   2.597414   4.106954   5.044030   2.141619
    24  H    1.096221   2.147047   2.760145   4.187753   2.534208
    25  H    1.097298   2.153714   2.771466   4.203968   3.168595
    26  H    2.163828   1.096595   2.156246   2.782305   4.278788
    27  H    2.162051   1.099509   2.160604   2.779676   3.818485
    28  H    2.778859   2.160308   1.098339   2.161886   4.969507
    29  H    2.785519   2.157668   1.098075   2.161533   5.333617
    30  H    4.252515   2.826858   2.181361   1.095876   6.328920
    31  H    4.738372   3.510043   2.184253   1.094623   7.135674
    32  H    4.256524   2.824735   2.180925   1.095806   6.620437
    33  H    2.675154   4.122489   5.086000   6.496447   1.101050
    34  H    4.708631   5.804582   7.083013   8.255834   2.168968
    35  H    4.197328   5.142526   6.580578   7.657890   2.179185
    36  H    4.978230   6.425298   7.489029   8.892824   2.869954
    37  H    5.755530   7.036326   8.310716   9.589589   3.547855
    38  H    4.514291   5.860881   7.038701   8.369854   2.904401
    39  H    2.637082   3.209712   4.127619   5.181940   2.196392
    40  H    3.760381   4.363760   5.573858   6.513673   2.165325
    41  H    4.949207   6.028266   6.972105   8.177951   2.808128
    42  H    4.138525   5.205661   5.832379   7.100757   2.848302
    43  H    5.546422   6.103042   6.931451   7.805207   4.064977
                   11         12         13         14         15
    11  C    0.000000
    12  C    1.533680   0.000000
    13  C    2.531837   3.825920   0.000000
    14  C    3.225024   4.201537   1.530355   0.000000
    15  O    4.470376   5.550749   2.458161   1.420031   0.000000
    16  H    6.494246   6.684389   7.012546   8.334172   9.384712
    17  H    5.603455   5.548366   6.208293   7.325761   8.499526
    18  H    5.998541   6.565598   6.511955   7.997205   8.890816
    19  H    4.711991   5.254214   5.722492   7.150309   8.115825
    20  H    4.782701   5.682689   4.952855   6.473182   7.258987
    21  H    2.586672   2.831101   4.132995   5.311277   6.528737
    22  H    3.302601   3.220241   4.311957   5.319985   6.612945
    23  H    2.933793   4.111243   2.630920   4.141285   5.006745
    24  H    4.075772   4.866002   2.695169   3.567602   4.400872
    25  H    4.447775   4.897786   3.982375   5.003345   6.017313
    26  H    5.414390   6.303146   4.645893   6.023420   6.707176
    27  H    5.097763   6.265036   3.586659   4.879677   5.288445
    28  H    6.495202   7.358845   4.773896   5.569070   5.921112
    29  H    6.747472   7.394759   5.613773   6.596779   7.217444
    30  H    7.681589   8.793390   5.954123   7.011348   7.112788
    31  H    8.574765   9.479152   6.971831   7.920352   8.141529
    32  H    7.897344   8.823302   6.651120   7.858061   8.230764
    33  H    2.158155   2.614460   2.156291   2.661918   4.023164
    34  H    1.095987   2.136877   2.497850   2.798659   3.896007
    35  H    1.097830   2.172490   3.053426   4.019557   5.119653
    36  H    2.175937   1.095762   3.930801   3.939406   5.306618
    37  H    2.180080   1.095042   4.618626   4.913854   6.175964
    38  H    2.197863   1.093011   4.351817   4.925727   6.312014
    39  H    3.475878   4.727914   1.094189   2.129453   2.659771
    40  H    2.628944   4.111742   1.100718   2.159144   2.707801
    41  H    2.905420   3.683610   2.181380   1.101687   2.086115
    42  H    3.719965   4.421027   2.160293   1.096026   2.012102
    43  H    4.474279   5.677441   2.635158   1.942145   0.962463
                   16         17         18         19         20
    16  H    0.000000
    17  H    1.846310   0.000000
    18  H    2.386175   3.696526   0.000000
    19  H    3.480897   4.124354   1.773778   0.000000
    20  H    3.497255   4.158507   1.770413   1.757010   0.000000
    21  H    4.116655   3.523065   3.741506   2.555163   3.100952
    22  H    3.668066   2.367928   4.287637   3.755031   3.888947
    23  H    4.713006   4.415430   3.891203   3.268407   2.339960
    24  H    5.475350   4.517452   5.750177   5.643568   4.601673
    25  H    3.906061   2.811811   4.699537   4.843176   4.040500
    26  H    3.532429   3.715239   3.350622   4.031011   2.544283
    27  H    5.224236   5.134363   4.717252   4.961589   3.365075
    28  H    5.979980   5.476711   6.389150   6.907254   5.462857
    29  H    4.577504   4.182850   5.452265   6.266790   4.991859
    30  H    6.339115   6.564257   6.099332   6.919618   5.208133
    31  H    6.341117   6.449077   6.716877   7.753492   6.177609
    32  H    5.026660   5.522162   5.101864   6.275635   4.708208
    33  H    6.116770   4.862915   6.264933   5.505251   5.130235
    34  H    7.544300   6.675162   6.911875   5.578124   5.568147
    35  H    6.151759   5.550969   5.318321   3.875262   4.107385
    36  H    7.310084   5.976896   7.416972   6.224399   6.508094
    37  H    7.363903   6.343373   7.074598   5.593356   6.249602
    38  H    5.838903   4.647348   5.962862   4.762199   5.335076
    39  H    6.832157   6.118250   6.402444   5.899386   4.836050
    40  H    7.305359   6.725720   6.439567   5.513273   4.772988
    41  H    8.726894   7.662618   8.352874   7.307718   6.878266
    42  H    8.318507   7.139454   8.290084   7.578952   6.880154
    43  H    9.586730   8.837231   8.855302   7.986675   7.163416
                   21         22         23         24         25
    21  H    0.000000
    22  H    1.761526   0.000000
    23  H    2.501492   3.055975   0.000000
    24  H    4.233413   3.452377   2.808989   0.000000
    25  H    3.593729   2.386147   2.985304   1.745501   0.000000
    26  H    4.187635   3.902344   2.680233   3.056461   2.511566
    27  H    4.740083   4.627878   2.471025   2.504591   3.061456
    28  H    6.239623   5.406208   4.468571   2.526124   3.079906
    29  H    5.831194   4.805458   4.584231   3.081716   2.545280
    30  H    7.135644   6.783421   5.028830   4.413087   4.766126
    31  H    7.825196   7.105667   6.061536   4.864789   4.880460
    32  H    6.778514   6.311053   5.132616   4.754956   4.436399
    33  H    3.269247   2.775344   3.027336   2.407433   2.986696
    34  H    3.639658   4.374005   3.619156   4.630759   5.302758
    35  H    2.168939   3.430822   2.650651   4.532059   4.720993
    36  H    3.721365   3.679239   4.732693   4.885535   5.072501
    37  H    3.404689   4.097521   4.868303   5.915166   5.933330
    38  H    2.281314   2.436079   4.075427   4.813495   4.458043
    39  H    4.583206   4.551826   2.635114   2.106748   3.628139
    40  H    4.253797   4.837580   2.637459   3.568475   4.721737
    41  H    5.315107   5.474716   4.590546   4.376255   5.607372
    42  H    5.589108   5.244760   4.555412   3.277792   4.717823
    43  H    6.577467   6.908558   5.009296   4.918975   6.472157
                   26         27         28         29         30
    26  H    0.000000
    27  H    1.757037   0.000000
    28  H    3.062157   2.517087   0.000000
    29  H    2.503479   3.064334   1.754121   0.000000
    30  H    3.148068   2.601884   2.528548   3.080685   0.000000
    31  H    3.786505   3.786687   2.504661   2.504676   1.768249
    32  H    2.603585   3.138117   3.080693   2.527475   1.767157
    33  H    4.694444   4.336967   4.930346   5.253511   6.670705
    34  H    6.184738   5.601798   7.009901   7.484243   8.157141
    35  H    5.226943   5.042018   6.779401   6.916582   7.637826
    36  H    6.784659   6.632592   7.403050   7.545072   9.082111
    37  H    7.179831   7.150602   8.397437   8.424721   9.717250
    38  H    5.946389   6.206603   7.211293   6.992897   8.657249
    39  H    4.052858   2.759055   3.801299   4.823365   4.951395
    40  H    4.915076   3.801825   5.432356   6.259617   6.192904
    41  H    6.742872   5.742232   6.557767   7.452153   8.003341
    42  H    6.095940   5.049890   5.239792   6.259565   7.014400
    43  H    6.895103   5.445489   6.427873   7.693472   7.332726
                   31         32         33         34         35
    31  H    0.000000
    32  H    1.768481   0.000000
    33  H    7.240532   6.914270   0.000000
    34  H    9.156615   8.570931   2.726881   0.000000
    35  H    8.640631   7.760605   3.018074   1.740785   0.000000
    36  H    9.666242   9.198615   2.492997   2.488772   3.082630
    37  H   10.476376   9.740670   3.673673   2.464176   2.501459
    38  H    9.205642   8.474424   2.814460   3.070867   2.570121
    39  H    5.973604   5.778760   2.653275   3.575105   3.885275
    40  H    7.419573   6.935044   3.043180   2.397166   2.820609
    41  H    8.917516   8.756159   2.867082   2.223084   3.776164
    42  H    7.696483   7.810764   2.503854   3.495175   4.634455
    43  H    8.522279   8.471748   4.465136   3.779890   4.965615
                   36         37         38         39         40
    36  H    0.000000
    37  H    1.767322   0.000000
    38  H    1.763671   1.766214   0.000000
    39  H    4.816615   5.594138   5.097831   0.000000
    40  H    4.415069   4.711085   4.713766   1.754347   0.000000
    41  H    3.352431   4.225498   4.571880   3.058823   2.554029
    42  H    3.953106   5.250350   5.020547   2.459397   3.064793
    43  H    5.574933   6.182212   6.495622   2.950105   2.473942
                   41         42         43
    41  H    0.000000
    42  H    1.763968   0.000000
    43  H    2.339949   2.812674   0.000000
 Stoichiometry    C14H28O
 Framework group  C1[X(C14H28O)]
 Deg. of freedom   123
 Full point group                 C1      NOp   1
 Largest Abelian subgroup         C1      NOp   1
 Largest concise Abelian subgroup C1      NOp   1
                         Standard orientation:                         
 ---------------------------------------------------------------------
 Center     Atomic      Atomic             Coordinates (Angstroms)
 Number     Number       Type             X           Y           Z
 ---------------------------------------------------------------------
      1          6           0       -2.933783    2.241200   -0.778355
      2          6           0       -1.977399    2.087922    0.138609
      3          6           0       -2.277195    2.171938    1.614748
      4          6           0       -0.529300    1.873635   -0.244864
      5          6           0        0.038393    0.466388    0.078892
      6          6           0       -0.749618   -0.626016   -0.695682
      7          6           0       -1.811578   -1.365560    0.128002
      8          6           0       -2.567162   -2.428360   -0.676848
      9          6           0       -3.617953   -3.175839    0.148696
     10          6           0        1.570418    0.342747   -0.184050
     11          6           0        2.415504    1.546928    0.310431
     12          6           0        2.707306    2.621237   -0.744504
     13          6           0        2.103323   -0.961467    0.454289
     14          6           0        3.389458   -1.486947   -0.187361
     15          8           0        3.857507   -2.683119    0.418108
     16          1           0       -3.969397    2.412693   -0.501175
     17          1           0       -2.715892    2.208461   -1.841278
     18          1           0       -3.339360    2.351112    1.799497
     19          1           0       -1.707135    2.985590    2.081576
     20          1           0       -1.993244    1.253049    2.140951
     21          1           0        0.067080    2.630756    0.277382
     22          1           0       -0.411116    2.059541   -1.318869
     23          1           0       -0.099132    0.294702    1.156408
     24          1           0       -0.055455   -1.367941   -1.107246
     25          1           0       -1.235435   -0.166081   -1.565454
     26          1           0       -2.531020   -0.643550    0.532508
     27          1           0       -1.331456   -1.841043    0.995365
     28          1           0       -1.848633   -3.147160   -1.093250
     29          1           0       -3.050773   -1.949979   -1.538846
     30          1           0       -3.159236   -3.692799    0.999152
     31          1           0       -4.141350   -3.925906   -0.452681
     32          1           0       -4.369867   -2.486650    0.549240
     33          1           0        1.705573    0.265063   -1.274009
     34          1           0        3.378646    1.174619    0.677764
     35          1           0        1.931714    1.997846    1.186702
     36          1           0        3.255711    2.191726   -1.590356
     37          1           0        3.322553    3.424502   -0.325752
     38          1           0        1.796221    3.075004   -1.142868
     39          1           0        1.361614   -1.764103    0.400519
     40          1           0        2.280769   -0.780510    1.525432
     41          1           0        4.172808   -0.712302   -0.188803
     42          1           0        3.198063   -1.744975   -1.235245
     43          1           0        4.065226   -2.483564    1.336457
 ---------------------------------------------------------------------
 Rotational constants (GHZ):           0.5363008           0.3533582           0.2343020
 Standard basis: 6-31+G(2df,p) (6D, 7F)
 There are   665 symmetry adapted cartesian basis functions of A   symmetry.
 There are   620 symmetry adapted basis functions of A   symmetry.
   620 basis functions,   916 primitive gaussians,   665 cartesian basis functions
    60 alpha electrons       60 beta electrons
       nuclear repulsion energy      1064.6361739777 Hartrees.
 NAtoms=   43 NActive=   43 NUniq=   43 SFac= 1.00D+00 NAtFMM=   60 NAOKFM=F Big=F
 Integral buffers will be    131072 words long.
 Regular integral format.
 Two-electron integral symmetry is turned on.
 One-electron integrals computed using PRISM.
 PrsmSu:  requested number of processors reduced to:  12 ShMem   1 Linda.
 NBasis=   620 RedAO= T EigKep=  2.15D-06  NBF=   620
 NBsUse=   620 1.00D-06 EigRej= -1.00D+00 NBFU=   620
 ExpMin= 4.38D-02 ExpMax= 5.48D+03 ExpMxC= 8.25D+02 IAcc=3 IRadAn=         5 AccDes= 0.00D+00
 Harris functional with IExCor=  402 and IRadAn=       5 diagonalized for initial guess.
 HarFok:  IExCor=  402 AccDes= 0.00D+00 IRadAn=         5 IDoV= 1 UseB2=F ITyADJ=14
 ICtDFT=  3500011 ScaDFX=  1.000000  1.000000  1.000000  1.000000
 FoFCou: FMM=F IPFlag=           0 FMFlag=      100000 FMFlg1=           0
         NFxFlg=           0 DoJE=T BraDBF=F KetDBF=T FulRan=T
         wScrn=  0.000000 ICntrl=       500 IOpCl=  0 I1Cent=   200000004 NGrid=           0
         NMat0=    1 NMatS0=      1 NMatT0=    0 NMatD0=    1 NMtDS0=    0 NMtDT0=    0
 Petite list used in FoFCou.
 Requested convergence on RMS density matrix=1.00D-08 within 128 cycles.
 Requested convergence on MAX density matrix=1.00D-06.
 Requested convergence on             energy=1.00D-06.
 No special actions if energy rises.
 SCF Done:  E(RB3LYP) =  -625.631125887     A.U. after   14 cycles
            NFock= 14  Conv=0.23D-08     -V/T= 2.0089
 DoSCS=F DFT=T ScalE2(SS,OS)=  1.000000  1.000000
 ExpMin= 4.38D-02 ExpMax= 5.48D+03 ExpMxC= 8.25D+02 IAcc=3 IRadAn=         5 AccDes= 0.00D+00
 HarFok:  IExCor=  205 AccDes= 0.00D+00 IRadAn=         5 IDoV=-2 UseB2=F ITyADJ=14
 ICtDFT= 12500011 ScaDFX=  1.000000  1.000000  1.000000  1.000000
 Range of M.O.s used for correlation:    16   620
 NBasis=   620 NAE=    60 NBE=    60 NFC=    15 NFV=     0
 NROrb=    605 NOA=    45 NOB=    45 NVA=   560 NVB=   560

 **** Warning!!: The largest alpha MO coefficient is  0.11515913D+03

 Orbital symmetries:
       Occupied  (A) (A) (A) (A) (A) (A) (A) (A) (A) (A) (A) (A)
                 (A) (A) (A) (A) (A) (A) (A) (A) (A) (A) (A) (A)
                 (A) (A) (A) (A) (A) (A) (A) (A) (A) (A) (A) (A)
                 (A) (A) (A) (A) (A) (A) (A) (A) (A) (A) (A) (A)
                 (A) (A) (A) (A) (A) (A) (A) (A) (A) (A) (A) (A)
       Virtual   (A) (A) (A) (A) (A) (A) (A) (A) (A) (A) (A) (A)
                 (A) (A) (A) (A) (A) (A) (A) (A) (A) (A) (A) (A)
                 (A) (A) (A) (A) (A) (A) (A) (A) (A) (A) (A) (A)
                 (A) (A) (A) (A) (A) (A) (A) (A) (A) (A) (A) (A)
                 (A) (A) (A) (A) (A) (A) (A) (A) (A) (A) (A) (A)
                 (A) (A) (A) (A) (A) (A) (A) (A) (A) (A) (A) (A)
                 (A) (A) (A) (A) (A) (A) (A) (A) (A) (A) (A) (A)
                 (A) (A) (A) (A) (A) (A) (A) (A) (A) (A) (A) (A)
                 (A) (A) (A) (A) (A) (A) (A) (A) (A) (A) (A) (A)
                 (A) (A) (A) (A) (A) (A) (A) (A) (A) (A) (A) (A)
                 (A) (A) (A) (A) (A) (A) (A) (A) (A) (A) (A) (A)
                 (A) (A) (A) (A) (A) (A) (A) (A) (A) (A) (A) (A)
                 (A) (A) (A) (A) (A) (A) (A) (A) (A) (A) (A) (A)
                 (A) (A) (A) (A) (A) (A) (A) (A) (A) (A) (A) (A)
                 (A) (A) (A) (A) (A) (A) (A) (A) (A) (A) (A) (A)
                 (A) (A) (A) (A) (A) (A) (A) (A) (A) (A) (A) (A)
                 (A) (A) (A) (A) (A) (A) (A) (A) (A) (A) (A) (A)
                 (A) (A) (A) (A) (A) (A) (A) (A) (A) (A) (A) (A)
                 (A) (A) (A) (A) (A) (A) (A) (A) (A) (A) (A) (A)
                 (A) (A) (A) (A) (A) (A) (A) (A) (A) (A) (A) (A)
                 (A) (A) (A) (A) (A) (A) (A) (A) (A) (A) (A) (A)
                 (A) (A) (A) (A) (A) (A) (A) (A) (A) (A) (A) (A)
                 (A) (A) (A) (A) (A) (A) (A) (A) (A) (A) (A) (A)
                 (A) (A) (A) (A) (A) (A) (A) (A) (A) (A) (A) (A)
                 (A) (A) (A) (A) (A) (A) (A) (A) (A) (A) (A) (A)
                 (A) (A) (A) (A) (A) (A) (A) (A) (A) (A) (A) (A)
                 (A) (A) (A) (A) (A) (A) (A) (A) (A) (A) (A) (A)
                 (A) (A) (A) (A) (A) (A) (A) (A) (A) (A) (A) (A)
                 (A) (A) (A) (A) (A) (A) (A) (A) (A) (A) (A) (A)
                 (A) (A) (A) (A) (A) (A) (A) (A) (A) (A) (A) (A)
                 (A) (A) (A) (A) (A) (A) (A) (A) (A) (A) (A) (A)
                 (A) (A) (A) (A) (A) (A) (A) (A) (A) (A) (A) (A)
                 (A) (A) (A) (A) (A) (A) (A) (A) (A) (A) (A) (A)
                 (A) (A) (A) (A) (A) (A) (A) (A) (A) (A) (A) (A)
                 (A) (A) (A) (A) (A) (A) (A) (A) (A) (A) (A) (A)
                 (A) (A) (A) (A) (A) (A) (A) (A) (A) (A) (A) (A)
                 (A) (A) (A) (A) (A) (A) (A) (A) (A) (A) (A) (A)
                 (A) (A) (A) (A) (A) (A) (A) (A) (A) (A) (A) (A)
                 (A) (A) (A) (A) (A) (A) (A) (A) (A) (A) (A) (A)
                 (A) (A) (A) (A) (A) (A) (A) (A) (A) (A) (A) (A)
                 (A) (A) (A) (A) (A) (A) (A) (A) (A) (A) (A) (A)
                 (A) (A) (A) (A) (A) (A) (A) (A) (A) (A) (A) (A)
                 (A) (A) (A) (A) (A) (A) (A) (A) (A) (A) (A) (A)
                 (A) (A) (A) (A) (A) (A) (A) (A) (A) (A) (A) (A)
                 (A) (A) (A) (A) (A) (A) (A) (A) (A) (A) (A) (A)
                 (A) (A) (A) (A) (A) (A) (A) (A) (A) (A) (A) (A)
                 (A) (A) (A) (A) (A) (A) (A) (A)
    40 initial guesses have been made.
 Convergence on wavefunction:    0.000001000000000
 Iteration     1 Dimension    40 NMult     0 NNew     40
 CISAX will form     2 AO SS matrices at one time.
 New state      1 was old state      3
 New state      3 was old state      4
 New state      4 was old state      5
 New state      5 was old state      8
 New state      6 was old state      7
 New state      7 was old state      9
 New state      8 was old state      6
 New state      9 was old state     10
 New state     10 was old state     14
 Iteration     2 Dimension    60 NMult    40 NNew     20
 Iteration     3 Dimension    80 NMult    60 NNew     20
 Iteration     4 Dimension   100 NMult    80 NNew     20
 Iteration     5 Dimension   120 NMult   100 NNew     20
 Iteration     6 Dimension   140 NMult   120 NNew     20
 Iteration     7 Dimension   160 NMult   140 NNew     20
 Iteration     8 Dimension   180 NMult   160 NNew     20
 Iteration     9 Dimension   200 NMult   180 NNew     20
 Iteration    10 Dimension   220 NMult   200 NNew     20
slurmstepd: error: *** JOB 27500957 ON lewis4-r630-hpc4-node236 CANCELLED AT 2023-05-26T02:07:33 DUE TO TIME LIMIT ***
