### Starting Gaussian ###
 Entering Gaussian System, Link 0=g16
 Initial command:
 /cluster/software/gaussian/gaussian-16-A.03/avx2/g16/l1.exe "/local/scratch/yxie/Gau-16267.inp" -scrdir="/local/scratch/yxie/"
 Entering Link 1 = /cluster/software/gaussian/gaussian-16-A.03/avx2/g16/l1.exe PID=     16268.
  
 Copyright (c) 1988,1990,1992,1993,1995,1998,2003,2009,2016,
            Gaussian, Inc.  All Rights Reserved.
  
 This is part of the Gaussian(R) 16 program.  It is based on
 the Gaussian(R) 09 system (copyright 2009, Gaussian, Inc.),
 the Gaussian(R) 03 system (copyright 2003, Gaussian, Inc.),
 the Gaussian(R) 98 system (copyright 1998, Gaussian, Inc.),
 the Gaussian(R) 94 system (copyright 1995, Gaussian, Inc.),
 the Gaussian 92(TM) system (copyright 1992, Gaussian, Inc.),
 the Gaussian 90(TM) system (copyright 1990, Gaussian, Inc.),
 the Gaussian 88(TM) system (copyright 1988, Gaussian, Inc.),
 the Gaussian 86(TM) system (copyright 1986, Carnegie Mellon
 University), and the Gaussian 82(TM) system (copyright 1983,
 Carnegie Mellon University). Gaussian is a federally registered
 trademark of Gaussian, Inc.
  
 This software contains proprietary and confidential information,
 including trade secrets, belonging to Gaussian, Inc.
  
 This software is provided under written license and may be
 used, copied, transmitted, or stored only in accord with that
 written license.
  
 The following legend is applicable only to US Government
 contracts under FAR:
  
                    RESTRICTED RIGHTS LEGEND
  
 Use, reproduction and disclosure by the US Government is
 subject to restrictions as set forth in subparagraphs (a)
 and (c) of the Commercial Computer Software - Restricted
 Rights clause in FAR 52.227-19.
  
 Gaussian, Inc.
 340 Quinnipiac St., Bldg. 40, Wallingford CT 06492
  
  
 ---------------------------------------------------------------
 Warning -- This program may not be used in any manner that
 competes with the business of Gaussian, Inc. or will provide
 assistance to any competitor of Gaussian, Inc.  The licensee
 of this program is prohibited from giving any competitor of
 Gaussian, Inc. access to this program.  By using this program,
 the user acknowledges that Gaussian, Inc. is engaged in the
 business of creating and licensing software in the field of
 computational chemistry and represents and warrants to the
 licensee that it is not a competitor of Gaussian, Inc. and that
 it will not use this program in any manner prohibited above.
 ---------------------------------------------------------------
  

 Cite this work as:
 Gaussian 16, Revision A.03,
 M. J. Frisch, G. W. Trucks, H. B. Schlegel, G. E. Scuseria, 
 M. A. Robb, J. R. Cheeseman, G. Scalmani, V. Barone, 
 G. A. Petersson, H. Nakatsuji, X. Li, M. Caricato, A. V. Marenich, 
 J. Bloino, B. G. Janesko, R. Gomperts, B. Mennucci, H. P. Hratchian, 
 J. V. Ortiz, A. F. Izmaylov, J. L. Sonnenberg, D. Williams-Young, 
 F. Ding, F. Lipparini, F. Egidi, J. Goings, B. Peng, A. Petrone, 
 T. Henderson, D. Ranasinghe, V. G. Zakrzewski, J. Gao, N. Rega, 
 G. Zheng, W. Liang, M. Hada, M. Ehara, K. Toyota, R. Fukuda, 
 J. Hasegawa, M. Ishida, T. Nakajima, Y. Honda, O. Kitao, H. Nakai, 
 T. Vreven, K. Throssell, J. A. Montgomery, Jr., J. E. Peralta, 
 F. Ogliaro, M. J. Bearpark, J. J. Heyd, E. N. Brothers, K. N. Kudin, 
 V. N. Staroverov, T. A. Keith, R. Kobayashi, J. Normand, 
 K. Raghavachari, A. P. Rendell, J. C. Burant, S. S. Iyengar, 
 J. Tomasi, M. Cossi, J. M. Millam, M. Klene, C. Adamo, R. Cammi, 
 J. W. Ochterski, R. L. Martin, K. Morokuma, O. Farkas, 
 J. B. Foresman, and D. J. Fox, Gaussian, Inc., Wallingford CT, 2016.
 
 ******************************************
 Gaussian 16:  ES64L-G16RevA.03 25-Dec-2016
                23-May-2023 
 ******************************************
 %chk=CdCqNrOC1OCqOCrCCC1CC.chk
 %NProcShared=20
 Will use up to   20 processors via shared memory.
 -----------------------------
 # opt freq b3lyp/6-31g(2df,p)
 -----------------------------
 1/18=20,19=15,26=3,38=1/1,3;
 2/9=110,12=2,17=6,18=5,40=1/2;
 3/5=1,6=6,7=104,11=2,25=1,30=1,71=1,74=-5/1,2,3;
 4//1;
 5/5=2,38=5/2;
 6/7=2,8=2,9=2,10=2,28=1/1;
 7//1,2,3,16;
 1/18=20,19=15,26=3/3(2);
 2/9=110/2;
 99//99;
 2/9=110/2;
 3/5=1,6=6,7=104,11=2,25=1,30=1,71=1,74=-5/1,2,3;
 4/5=5,16=3,69=1/1;
 5/5=2,38=5/2;
 7//1,2,3,16;
 1/18=20,19=15,26=3/3(-5);
 2/9=110/2;
 6/7=2,8=2,9=2,10=2,19=2,28=1/1;
 99/9=1/99;
 -------------------
 Title Card Required
 -------------------
 Symbolic Z-matrix:
 Charge =  0 Multiplicity = 1
 C                     0.83587   0.02625   0.00499 
 C                     2.15067  -0.19837  -0.16685 
 N                     2.52339  -1.51584  -0.0235 
 O                     2.9708    0.90063  -0.40051 
 C                     4.42762   0.99768  -0.36301 
 O                     4.8999    2.17689   0.34143 
 C                     6.34714   2.29484   0.3758 
 O                     6.86849   2.4838   -0.94415 
 C                     8.28623   2.61712  -0.97952 
 C                     7.00743   1.08262   1.053 
 C                     6.59736  -0.14893   0.28297 
 C                     5.08449  -0.21595   0.28059 
 C                     4.55102  -0.39135   1.7413 
 C                     4.91641  -1.74669   2.30791 
 H                     0.18623  -0.80077   0.27235 
 H                     0.40214   1.00066  -0.13095 
 H                     2.04347  -1.95097   0.76323 
 H                     3.49254  -1.72795   0.09334 
 H                     4.7334    1.12161  -1.41005 
 H                     6.57176   3.18914   0.96864 
 H                     8.59445   2.8022   -2.00942 
 H                     8.78578   1.69113  -0.67838 
 H                     8.61259   3.44241  -0.34087 
 H                     6.70557   1.01571   2.10006 
 H                     8.09663   1.12464   1.09128 
 H                     7.01723  -1.06086   0.71455 
 H                     6.96372  -0.11641  -0.75217 
 H                     4.89981  -1.04662  -0.40012 
 H                     3.47096  -0.26211   1.83535 
 H                     4.90096   0.40361   2.40529 
 H                     4.60201  -2.55335   1.63952 
 H                     4.42195  -1.89207   3.2702 
 H                     5.99362  -1.82795   2.45766 
 

 GradGradGradGradGradGradGradGradGradGradGradGradGradGradGradGradGradGrad
 Berny optimization.
 Initialization pass.
                           ----------------------------
                           !    Initial Parameters    !
                           ! (Angstroms and Degrees)  !
 --------------------------                            --------------------------
 ! Name  Definition              Value          Derivative Info.                !
 --------------------------------------------------------------------------------
 ! R1    R(1,2)                  1.3449         estimate D2E/DX2                !
 ! R2    R(1,15)                 1.0851         estimate D2E/DX2                !
 ! R3    R(1,16)                 1.0752         estimate D2E/DX2                !
 ! R4    R(2,3)                  1.3767         estimate D2E/DX2                !
 ! R5    R(2,4)                  1.391          estimate D2E/DX2                !
 ! R6    R(3,17)                 1.0191         estimate D2E/DX2                !
 ! R7    R(3,18)                 0.9989         estimate D2E/DX2                !
 ! R8    R(4,5)                  1.4605         estimate D2E/DX2                !
 ! R9    R(5,6)                  1.4525         estimate D2E/DX2                !
 ! R10   R(5,12)                 1.5227         estimate D2E/DX2                !
 ! R11   R(5,19)                 1.0978         estimate D2E/DX2                !
 ! R12   R(6,7)                  1.4524         estimate D2E/DX2                !
 ! R13   R(7,8)                  1.4317         estimate D2E/DX2                !
 ! R14   R(7,10)                 1.5376         estimate D2E/DX2                !
 ! R15   R(7,20)                 1.0962         estimate D2E/DX2                !
 ! R16   R(8,9)                  1.4244         estimate D2E/DX2                !
 ! R17   R(9,21)                 1.0908         estimate D2E/DX2                !
 ! R18   R(9,22)                 1.0944         estimate D2E/DX2                !
 ! R19   R(9,23)                 1.0934         estimate D2E/DX2                !
 ! R20   R(10,11)                1.5092         estimate D2E/DX2                !
 ! R21   R(10,24)                1.0918         estimate D2E/DX2                !
 ! R22   R(10,25)                1.0907         estimate D2E/DX2                !
 ! R23   R(11,12)                1.5144         estimate D2E/DX2                !
 ! R24   R(11,26)                1.0928         estimate D2E/DX2                !
 ! R25   R(11,27)                1.0985         estimate D2E/DX2                !
 ! R26   R(12,13)                1.5649         estimate D2E/DX2                !
 ! R27   R(12,28)                1.0897         estimate D2E/DX2                !
 ! R28   R(13,14)                1.5138         estimate D2E/DX2                !
 ! R29   R(13,29)                1.0918         estimate D2E/DX2                !
 ! R30   R(13,30)                1.0933         estimate D2E/DX2                !
 ! R31   R(14,31)                1.0938         estimate D2E/DX2                !
 ! R32   R(14,32)                1.0916         estimate D2E/DX2                !
 ! R33   R(14,33)                1.0906         estimate D2E/DX2                !
 ! A1    A(2,1,15)             119.3067         estimate D2E/DX2                !
 ! A2    A(2,1,16)             121.9769         estimate D2E/DX2                !
 ! A3    A(15,1,16)            118.708          estimate D2E/DX2                !
 ! A4    A(1,2,3)              114.2816         estimate D2E/DX2                !
 ! A5    A(1,2,4)              117.7687         estimate D2E/DX2                !
 ! A6    A(3,2,4)              127.8757         estimate D2E/DX2                !
 ! A7    A(2,3,17)             111.1921         estimate D2E/DX2                !
 ! A8    A(2,3,18)             118.5581         estimate D2E/DX2                !
 ! A9    A(17,3,18)            106.0167         estimate D2E/DX2                !
 ! A10   A(2,4,5)              129.5138         estimate D2E/DX2                !
 ! A11   A(4,5,6)              112.9991         estimate D2E/DX2                !
 ! A12   A(4,5,12)             112.8414         estimate D2E/DX2                !
 ! A13   A(4,5,19)             105.1202         estimate D2E/DX2                !
 ! A14   A(6,5,12)             107.5662         estimate D2E/DX2                !
 ! A15   A(6,5,19)             106.2806         estimate D2E/DX2                !
 ! A16   A(12,5,19)            111.8976         estimate D2E/DX2                !
 ! A17   A(5,6,7)              113.6647         estimate D2E/DX2                !
 ! A18   A(6,7,8)              110.5939         estimate D2E/DX2                !
 ! A19   A(6,7,10)             111.9811         estimate D2E/DX2                !
 ! A20   A(6,7,20)             106.4524         estimate D2E/DX2                !
 ! A21   A(8,7,10)             110.7161         estimate D2E/DX2                !
 ! A22   A(8,7,20)             108.4396         estimate D2E/DX2                !
 ! A23   A(10,7,20)            108.4817         estimate D2E/DX2                !
 ! A24   A(7,8,9)              113.4333         estimate D2E/DX2                !
 ! A25   A(8,9,21)             108.696          estimate D2E/DX2                !
 ! A26   A(8,9,22)             111.6104         estimate D2E/DX2                !
 ! A27   A(8,9,23)             110.6847         estimate D2E/DX2                !
 ! A28   A(21,9,22)            105.9249         estimate D2E/DX2                !
 ! A29   A(21,9,23)            109.82           estimate D2E/DX2                !
 ! A30   A(22,9,23)            109.9794         estimate D2E/DX2                !
 ! A31   A(7,10,11)            107.5746         estimate D2E/DX2                !
 ! A32   A(7,10,24)            110.6092         estimate D2E/DX2                !
 ! A33   A(7,10,25)            114.4528         estimate D2E/DX2                !
 ! A34   A(11,10,24)           111.3576         estimate D2E/DX2                !
 ! A35   A(11,10,25)           108.7041         estimate D2E/DX2                !
 ! A36   A(24,10,25)           104.1709         estimate D2E/DX2                !
 ! A37   A(10,11,12)           107.9601         estimate D2E/DX2                !
 ! A38   A(10,11,26)           112.0282         estimate D2E/DX2                !
 ! A39   A(10,11,27)           111.4688         estimate D2E/DX2                !
 ! A40   A(12,11,26)           110.3365         estimate D2E/DX2                !
 ! A41   A(12,11,27)           109.4509         estimate D2E/DX2                !
 ! A42   A(26,11,27)           105.5876         estimate D2E/DX2                !
 ! A43   A(5,12,11)            113.3505         estimate D2E/DX2                !
 ! A44   A(5,12,13)            109.6819         estimate D2E/DX2                !
 ! A45   A(5,12,28)            105.6893         estimate D2E/DX2                !
 ! A46   A(11,12,13)           110.1237         estimate D2E/DX2                !
 ! A47   A(11,12,28)           101.7725         estimate D2E/DX2                !
 ! A48   A(13,12,28)           116.0945         estimate D2E/DX2                !
 ! A49   A(12,13,14)           111.558          estimate D2E/DX2                !
 ! A50   A(12,13,29)           113.8506         estimate D2E/DX2                !
 ! A51   A(12,13,30)           112.1029         estimate D2E/DX2                !
 ! A52   A(14,13,29)           108.2109         estimate D2E/DX2                !
 ! A53   A(14,13,30)           110.2695         estimate D2E/DX2                !
 ! A54   A(29,13,30)           100.2675         estimate D2E/DX2                !
 ! A55   A(13,14,31)           111.2358         estimate D2E/DX2                !
 ! A56   A(13,14,32)           109.8686         estimate D2E/DX2                !
 ! A57   A(13,14,33)           110.8867         estimate D2E/DX2                !
 ! A58   A(31,14,32)           108.0758         estimate D2E/DX2                !
 ! A59   A(31,14,33)           108.2328         estimate D2E/DX2                !
 ! A60   A(32,14,33)           108.4474         estimate D2E/DX2                !
 ! D1    D(15,1,2,3)             2.2935         estimate D2E/DX2                !
 ! D2    D(15,1,2,4)          -174.8252         estimate D2E/DX2                !
 ! D3    D(16,1,2,3)          -176.6408         estimate D2E/DX2                !
 ! D4    D(16,1,2,4)             6.2406         estimate D2E/DX2                !
 ! D5    D(1,2,3,17)           -41.5167         estimate D2E/DX2                !
 ! D6    D(1,2,3,18)          -164.7429         estimate D2E/DX2                !
 ! D7    D(4,2,3,17)           135.253          estimate D2E/DX2                !
 ! D8    D(4,2,3,18)            12.0268         estimate D2E/DX2                !
 ! D9    D(1,2,4,5)            166.7083         estimate D2E/DX2                !
 ! D10   D(3,2,4,5)             -9.9638         estimate D2E/DX2                !
 ! D11   D(2,4,5,6)           -135.1003         estimate D2E/DX2                !
 ! D12   D(2,4,5,12)           -12.7867         estimate D2E/DX2                !
 ! D13   D(2,4,5,19)           109.422          estimate D2E/DX2                !
 ! D14   D(4,5,6,7)           -179.4146         estimate D2E/DX2                !
 ! D15   D(12,5,6,7)            55.3668         estimate D2E/DX2                !
 ! D16   D(19,5,6,7)           -64.6323         estimate D2E/DX2                !
 ! D17   D(4,5,12,11)          178.0331         estimate D2E/DX2                !
 ! D18   D(4,5,12,13)          -58.4341         estimate D2E/DX2                !
 ! D19   D(4,5,12,28)           67.418          estimate D2E/DX2                !
 ! D20   D(6,5,12,11)          -56.654          estimate D2E/DX2                !
 ! D21   D(6,5,12,13)           66.8788         estimate D2E/DX2                !
 ! D22   D(6,5,12,28)         -167.2691         estimate D2E/DX2                !
 ! D23   D(19,5,12,11)          59.7158         estimate D2E/DX2                !
 ! D24   D(19,5,12,13)        -176.7515         estimate D2E/DX2                !
 ! D25   D(19,5,12,28)         -50.8994         estimate D2E/DX2                !
 ! D26   D(5,6,7,8)             64.9696         estimate D2E/DX2                !
 ! D27   D(5,6,7,10)           -59.0294         estimate D2E/DX2                !
 ! D28   D(5,6,7,20)          -177.4309         estimate D2E/DX2                !
 ! D29   D(6,7,8,9)            179.5577         estimate D2E/DX2                !
 ! D30   D(10,7,8,9)           -55.72           estimate D2E/DX2                !
 ! D31   D(20,7,8,9)            63.1848         estimate D2E/DX2                !
 ! D32   D(6,7,10,11)           58.4857         estimate D2E/DX2                !
 ! D33   D(6,7,10,24)          -63.3339         estimate D2E/DX2                !
 ! D34   D(6,7,10,25)          179.3865         estimate D2E/DX2                !
 ! D35   D(8,7,10,11)          -65.4451         estimate D2E/DX2                !
 ! D36   D(8,7,10,24)          172.7353         estimate D2E/DX2                !
 ! D37   D(8,7,10,25)           55.4558         estimate D2E/DX2                !
 ! D38   D(20,7,10,11)         175.6757         estimate D2E/DX2                !
 ! D39   D(20,7,10,24)          53.8561         estimate D2E/DX2                !
 ! D40   D(20,7,10,25)         -63.4234         estimate D2E/DX2                !
 ! D41   D(7,8,9,21)          -177.4377         estimate D2E/DX2                !
 ! D42   D(7,8,9,22)            66.0995         estimate D2E/DX2                !
 ! D43   D(7,8,9,23)           -56.748          estimate D2E/DX2                !
 ! D44   D(7,10,11,12)         -57.45           estimate D2E/DX2                !
 ! D45   D(7,10,11,26)        -179.1355         estimate D2E/DX2                !
 ! D46   D(7,10,11,27)          62.7909         estimate D2E/DX2                !
 ! D47   D(24,10,11,12)         63.9028         estimate D2E/DX2                !
 ! D48   D(24,10,11,26)        -57.7827         estimate D2E/DX2                !
 ! D49   D(24,10,11,27)       -175.8563         estimate D2E/DX2                !
 ! D50   D(25,10,11,12)        178.1023         estimate D2E/DX2                !
 ! D51   D(25,10,11,26)         56.4168         estimate D2E/DX2                !
 ! D52   D(25,10,11,27)        -61.6568         estimate D2E/DX2                !
 ! D53   D(10,11,12,5)          59.7683         estimate D2E/DX2                !
 ! D54   D(10,11,12,13)        -63.522          estimate D2E/DX2                !
 ! D55   D(10,11,12,28)        172.7755         estimate D2E/DX2                !
 ! D56   D(26,11,12,5)        -177.5053         estimate D2E/DX2                !
 ! D57   D(26,11,12,13)         59.2044         estimate D2E/DX2                !
 ! D58   D(26,11,12,28)        -64.4982         estimate D2E/DX2                !
 ! D59   D(27,11,12,5)         -61.732          estimate D2E/DX2                !
 ! D60   D(27,11,12,13)        174.9777         estimate D2E/DX2                !
 ! D61   D(27,11,12,28)         51.2751         estimate D2E/DX2                !
 ! D62   D(5,12,13,14)         166.6913         estimate D2E/DX2                !
 ! D63   D(5,12,13,29)          43.867          estimate D2E/DX2                !
 ! D64   D(5,12,13,30)         -69.0807         estimate D2E/DX2                !
 ! D65   D(11,12,13,14)        -67.9016         estimate D2E/DX2                !
 ! D66   D(11,12,13,29)        169.2741         estimate D2E/DX2                !
 ! D67   D(11,12,13,30)         56.3264         estimate D2E/DX2                !
 ! D68   D(28,12,13,14)         47.0224         estimate D2E/DX2                !
 ! D69   D(28,12,13,29)        -75.8019         estimate D2E/DX2                !
 ! D70   D(28,12,13,30)        171.2504         estimate D2E/DX2                !
 ! D71   D(12,13,14,31)        -52.9066         estimate D2E/DX2                !
 ! D72   D(12,13,14,32)       -172.5351         estimate D2E/DX2                !
 ! D73   D(12,13,14,33)         67.5954         estimate D2E/DX2                !
 ! D74   D(29,13,14,31)         73.0852         estimate D2E/DX2                !
 ! D75   D(29,13,14,32)        -46.5433         estimate D2E/DX2                !
 ! D76   D(29,13,14,33)       -166.4128         estimate D2E/DX2                !
 ! D77   D(30,13,14,31)       -178.1594         estimate D2E/DX2                !
 ! D78   D(30,13,14,32)         62.2121         estimate D2E/DX2                !
 ! D79   D(30,13,14,33)        -57.6574         estimate D2E/DX2                !
 --------------------------------------------------------------------------------
 Trust Radius=3.00D-01 FncErr=1.00D-07 GrdErr=1.00D-06 EigMax=2.50D+02 EigMin=1.00D-04
 Number of steps in this run=    182 maximum allowed number of steps=    198.
 GradGradGradGradGradGradGradGradGradGradGradGradGradGradGradGradGradGrad

                          Input orientation:                          
 ---------------------------------------------------------------------
 Center     Atomic      Atomic             Coordinates (Angstroms)
 Number     Number       Type             X           Y           Z
 ---------------------------------------------------------------------
      1          6           0        0.835870    0.026250    0.004990
      2          6           0        2.150670   -0.198370   -0.166850
      3          7           0        2.523390   -1.515840   -0.023500
      4          8           0        2.970800    0.900630   -0.400510
      5          6           0        4.427620    0.997680   -0.363010
      6          8           0        4.899900    2.176890    0.341430
      7          6           0        6.347140    2.294840    0.375800
      8          8           0        6.868490    2.483800   -0.944150
      9          6           0        8.286230    2.617120   -0.979520
     10          6           0        7.007430    1.082620    1.053000
     11          6           0        6.597360   -0.148930    0.282970
     12          6           0        5.084490   -0.215950    0.280590
     13          6           0        4.551020   -0.391350    1.741300
     14          6           0        4.916410   -1.746690    2.307910
     15          1           0        0.186230   -0.800770    0.272350
     16          1           0        0.402140    1.000660   -0.130950
     17          1           0        2.043470   -1.950970    0.763230
     18          1           0        3.492540   -1.727950    0.093340
     19          1           0        4.733400    1.121610   -1.410050
     20          1           0        6.571760    3.189140    0.968640
     21          1           0        8.594450    2.802200   -2.009420
     22          1           0        8.785780    1.691130   -0.678380
     23          1           0        8.612590    3.442410   -0.340870
     24          1           0        6.705570    1.015710    2.100060
     25          1           0        8.096630    1.124640    1.091280
     26          1           0        7.017230   -1.060860    0.714550
     27          1           0        6.963720   -0.116410   -0.752170
     28          1           0        4.899810   -1.046620   -0.400120
     29          1           0        3.470960   -0.262110    1.835350
     30          1           0        4.900960    0.403610    2.405290
     31          1           0        4.602010   -2.553350    1.639520
     32          1           0        4.421950   -1.892070    3.270200
     33          1           0        5.993620   -1.827950    2.457660
 ---------------------------------------------------------------------
                    Distance matrix (angstroms):
                    1          2          3          4          5
     1  C    0.000000
     2  C    1.344873   0.000000
     3  N    2.286171   1.376661   0.000000
     4  O    2.342413   1.391047   2.486290   0.000000
     5  C    3.738953   2.579441   3.171615   1.460531   0.000000
     6  O    4.610291   3.668579   4.406498   2.429144   1.452522
     7  C    5.971440   4.911306   5.413112   3.734455   2.431670
     8  O    6.582775   5.482340   5.977007   4.241929   2.916183
     9  C    7.949197   6.799449   7.155813   5.615638   4.229839
    10  C    6.348417   5.168857   5.293152   4.294205   2.944099
    11  C    5.770852   4.469657   4.308085   3.836751   2.537671
    12  C    4.264433   2.967796   2.888151   2.485625   1.522694
    13  C    4.122075   3.072451   2.913809   2.958658   2.524431
    14  C    5.009747   4.021324   3.348927   4.257845   3.860608
    15  H    1.085115   2.101144   2.461944   3.331866   4.650537
    16  H    1.075210   2.120453   3.293026   2.584702   4.032164
    17  H    2.437750   1.986995   1.019120   3.216497   3.955645
    18  H    3.184795   2.051324   0.998946   2.724983   2.917480
    19  H    4.288693   3.155691   3.709826   2.043223   1.097795
    20  H    6.620644   5.684241   6.285736   4.480933   3.342622
    21  H    8.482883   7.343077   7.710196   6.150610   4.830055
    22  H    8.151067   6.917843   7.066191   5.875040   4.424239
    23  H    8.501008   7.419028   7.858965   6.188214   4.846769
    24  H    6.310446   5.230677   5.329998   4.496065   3.355010
    25  H    7.423282   6.219943   6.267047   5.343197   3.948761
    26  H    6.316209   5.020375   4.576715   4.632969   3.479196
    27  H    6.176098   4.849203   4.712313   4.135389   2.797221
    28  H    4.222650   2.886471   2.451404   2.740960   2.098453
    29  H    3.221346   2.399173   2.434143   2.569279   2.708331
    30  H    4.735905   3.813447   3.903351   3.441665   2.870619
    31  H    4.848694   3.849412   2.857048   4.330421   4.080484
    32  H    5.215507   4.454284   3.820280   4.835196   4.642295
    33  H    6.004668   4.930705   4.277390   4.975111   4.288673
                    6          7          8          9         10
     6  O    0.000000
     7  C    1.452445   0.000000
     8  O    2.371130   1.431705   0.000000
     9  C    3.661413   2.387640   1.424434   0.000000
    10  C    2.479000   1.537550   2.443608   2.849764   0.000000
    11  C    2.879970   2.458300   2.917294   3.478102   1.509245
    12  C    2.400720   2.812013   3.459956   4.457051   2.445526
    13  C    2.945710   3.508027   4.566048   5.514123   2.946234
    14  C    4.388826   4.702553   5.681862   6.419168   3.735259
    15  H    5.575833   6.895674   7.544592   8.880267   7.119364
    16  H    4.672955   6.105303   6.683912   8.092706   6.711059
    17  H    5.037493   6.057935   6.772234   7.929481   5.824735
    18  H    4.158123   4.940786   5.496568   6.558211   4.601598
    19  H    2.051590   2.677664   2.575118   3.878725   3.352514
    20  H    2.052598   1.096214   2.060174   2.657431   2.152754
    21  H    4.423484   3.316186   2.053075   1.090847   3.854089
    22  H    4.046732   2.724468   2.091641   1.094392   2.555482
    23  H    3.981349   2.638711   2.079607   1.093384   3.176165
    24  H    2.775169   2.176630   3.383644   3.814028   1.091756
    25  H    3.447983   2.223060   2.738361   2.559621   1.090682
    26  H    3.886558   3.438676   3.916379   4.243556   2.170058
    27  H    3.273307   2.732511   2.609026   3.045145   2.167538
    28  H    3.307705   3.723194   4.078668   5.022602   3.329757
    29  H    3.197247   4.115907   5.177727   6.276965   3.863546
    30  H    2.721037   3.128421   4.406485   5.274146   2.593638
    31  H    4.914158   5.305414   6.097964   6.867795   4.398901
    32  H    5.036126   5.441886   6.549393   7.302436   4.522108
    33  H    4.659764   4.632118   5.561375   6.068683   3.387078
                   11         12         13         14         15
    11  C    0.000000
    12  C    1.514356   0.000000
    13  C    2.524480   1.564937   0.000000
    14  C    3.078768   2.545868   1.513771   0.000000
    15  H    6.444191   4.933055   4.623508   5.235730   0.000000
    16  H    6.314558   4.855297   4.759855   5.820189   1.858606
    17  H    4.920967   3.534266   3.110762   3.268264   2.239032
    18  H    3.488434   2.203522   2.371213   2.632884   3.438516
    19  H    2.820450   2.184169   3.500474   4.699347   5.215627
    20  H    3.407860   3.778892   4.183336   5.375523   7.561693
    21  H    4.237050   5.164610   6.373067   7.270469   9.427939
    22  H    3.016487   4.272719   5.303279   5.975664   9.003650
    23  H    4.165099   5.120283   5.960663   6.899604   9.454320
    24  H    2.160998   2.730450   2.598194   3.297749   7.010130
    25  H    2.126771   3.395201   3.910512   4.454046   8.182437
    26  H    1.092780   2.153527   2.754025   2.724446   6.850237
    27  H    1.098541   2.146627   3.480532   4.026584   6.888567
    28  H    2.038170   1.089718   2.266432   2.797106   4.767651
    29  H    3.492430   2.241180   1.091823   2.125233   3.677305
    30  H    2.772601   2.220785   1.093299   2.152559   5.313063
    31  H    3.406301   2.746437   2.164995   1.093752   4.943663
    32  H    4.085889   3.490860   2.146242   1.091617   5.302769
    33  H    2.812985   2.857393   2.158260   1.090601   6.289392
                   16         17         18         19         20
    16  H    0.000000
    17  H    3.493657   0.000000
    18  H    4.128703   1.611923   0.000000
    19  H    4.517802   4.625972   3.452522   0.000000
    20  H    6.637978   6.853345   5.867326   3.648618   0.000000
    21  H    8.595821   8.555440   7.139562   4.253391   3.620751
    22  H    8.429819   7.797556   6.348547   4.157100   3.139840
    23  H    8.568413   8.570935   7.289449   4.645145   2.438022
    24  H    6.686618   5.685374   4.677409   4.027597   2.453939
    25  H    7.791944   6.797628   5.507340   4.191417   2.569519
    26  H    6.980269   5.053014   3.640652   3.806965   4.280830
    27  H    6.684915   5.465428   3.919316   2.634355   3.747196
    28  H    4.949024   3.214018   1.639549   2.397681   4.755059
    29  H    3.857276   2.457523   2.276785   3.747140   4.719881
    30  H    5.198881   4.050390   3.445622   3.885926   3.551720
    31  H    5.779659   2.770717   2.074339   4.777287   6.107879
    32  H    6.007877   3.456231   3.314088   5.575303   5.978090
    33  H    6.779866   4.299990   3.443169   5.024663   5.265227
                   21         22         23         24         25
    21  H    0.000000
    22  H    1.744348   0.000000
    23  H    1.787248   1.791895   0.000000
    24  H    4.862843   3.535986   3.934938   0.000000
    25  H    3.560389   1.981801   2.772963   1.721787   0.000000
    26  H    4.983058   3.555485   4.892701   2.515733   2.466463
    27  H    3.571868   2.567596   3.943747   3.079538   2.494393
    28  H    5.572578   4.761666   5.825773   3.710104   4.142258
    29  H    7.100873   6.195264   6.700430   3.487922   4.886056
    30  H    6.235765   5.124310   5.527377   1.929883   3.529704
    31  H    7.611587   6.394701   7.480363   4.168363   5.102994
    32  H    8.204896   6.890110   7.684918   3.878058   5.229867
    33  H    6.939554   5.478579   6.516707   2.953160   3.873943
                   26         27         28         29         30
    26  H    0.000000
    27  H    1.745313   0.000000
    28  H    2.392939   2.291060   0.000000
    29  H    3.803975   4.349237   2.766658   0.000000
    30  H    3.079265   3.807224   3.158084   1.677175   0.000000
    31  H    2.986031   4.151690   2.553243   2.562695   3.069102
    32  H    3.736005   5.078683   3.796628   2.370643   2.499533
    33  H    2.162091   3.764767   3.158133   3.033634   2.485258
                   31         32         33
    31  H    0.000000
    32  H    1.768850   0.000000
    33  H    1.769784   1.770446   0.000000
 Stoichiometry    C10H19NO3
 Framework group  C1[X(C10H19NO3)]
 Deg. of freedom    93
 Full point group                 C1      NOp   1
 Largest Abelian subgroup         C1      NOp   1
 Largest concise Abelian subgroup C1      NOp   1
                         Standard orientation:                         
 ---------------------------------------------------------------------
 Center     Atomic      Atomic             Coordinates (Angstroms)
 Number     Number       Type             X           Y           Z
 ---------------------------------------------------------------------
      1          6           0        3.762021   -1.585949    0.303093
      2          6           0        2.700782   -0.955287   -0.230498
      3          7           0        3.015418    0.183516   -0.937130
      4          8           0        1.437600   -1.473250    0.036142
      5          6           0        0.123189   -0.873361   -0.177416
      6          8           0       -0.769690   -1.044739    0.955375
      7          6           0       -2.085984   -0.465041    0.753094
      8          8           0       -2.777904   -1.142393   -0.301524
      9          6           0       -4.083476   -0.627309   -0.544797
     10          6           0       -2.012988    1.045133    0.473620
     11          6           0       -1.156954    1.240560   -0.753912
     12          6           0        0.196100    0.616400   -0.483835
     13          6           0        0.907854    1.362422    0.693402
     14          6           0        1.293962    2.773666    0.305053
     15          1           0        4.751150   -1.156427    0.182224
     16          1           0        3.664059   -2.515687    0.834194
     17          1           0        3.728423    0.730284   -0.456222
     18          1           0        2.282334    0.823695   -1.162192
     19          1           0       -0.319222   -1.440726   -1.006586
     20          1           0       -2.639946   -0.619354    1.686368
     21          1           0       -4.555085   -1.224755   -1.326200
     22          1           0       -4.047561    0.396418   -0.930007
     23          1           0       -4.688513   -0.663035    0.365227
     24          1           0       -1.601017    1.575742    1.334239
     25          1           0       -2.980103    1.520316    0.304870
     26          1           0       -1.043574    2.296690   -1.010629
     27          1           0       -1.607646    0.768694   -1.637660
     28          1           0        0.675239    0.693464   -1.459526
     29          1           0        1.800570    0.853840    1.062835
     30          1           0        0.299412    1.372559    1.601696
     31          1           0        1.876412    2.784522   -0.620650
     32          1           0        1.901922    3.222123    1.093025
     33          1           0        0.408146    3.392659    0.158130
 ---------------------------------------------------------------------
 Rotational constants (GHZ):           1.2021095           0.4476078           0.3648169
 Standard basis: 6-31G(2df,p) (6D, 7F)
 There are   529 symmetry adapted cartesian basis functions of A   symmetry.
 There are   487 symmetry adapted basis functions of A   symmetry.
   487 basis functions,   749 primitive gaussians,   529 cartesian basis functions
    55 alpha electrons       55 beta electrons
       nuclear repulsion energy      1023.1723035522 Hartrees.
 NAtoms=   33 NActive=   33 NUniq=   33 SFac= 1.00D+00 NAtFMM=   60 NAOKFM=F Big=F
 Integral buffers will be    131072 words long.
 Raffenetti 2 integral format.
 Two-electron integral symmetry is turned on.
 One-electron integrals computed using PRISM.
 PrsmSu:  requested number of processors reduced to:  12 ShMem   1 Linda.
 NBasis=   487 RedAO= T EigKep=  3.58D-04  NBF=   487
 NBsUse=   487 1.00D-06 EigRej= -1.00D+00 NBFU=   487
 ExpMin= 1.61D-01 ExpMax= 5.48D+03 ExpMxC= 8.25D+02 IAcc=3 IRadAn=         5 AccDes= 0.00D+00
 Harris functional with IExCor=  402 and IRadAn=       5 diagonalized for initial guess.
 HarFok:  IExCor=  402 AccDes= 0.00D+00 IRadAn=         5 IDoV= 1 UseB2=F ITyADJ=14
 ICtDFT=  3500011 ScaDFX=  1.000000  1.000000  1.000000  1.000000
 FoFCou: FMM=F IPFlag=           0 FMFlag=      100000 FMFlg1=           0
         NFxFlg=           0 DoJE=T BraDBF=F KetDBF=T FulRan=T
         wScrn=  0.000000 ICntrl=       500 IOpCl=  0 I1Cent=   200000004 NGrid=           0
         NMat0=    1 NMatS0=      1 NMatT0=    0 NMatD0=    1 NMtDS0=    0 NMtDT0=    0
 Petite list used in FoFCou.
 Requested convergence on RMS density matrix=1.00D-08 within 128 cycles.
 Requested convergence on MAX density matrix=1.00D-06.
 Requested convergence on             energy=1.00D-06.
 No special actions if energy rises.
 Integral accuracy reduced to 1.0D-05 until final iterations.
 EnCoef did     1 forward-backward iterations
 Initial convergence to 1.0D-05 achieved.  Increase integral accuracy.
 SCF Done:  E(RB3LYP) =  -672.875039944     A.U. after   13 cycles
            NFock= 13  Conv=0.36D-08     -V/T= 2.0074

 **********************************************************************

            Population analysis using the SCF density.

 **********************************************************************

 Orbital symmetries:
       Occupied  (A) (A) (A) (A) (A) (A) (A) (A) (A) (A) (A) (A)
                 (A) (A) (A) (A) (A) (A) (A) (A) (A) (A) (A) (A)
                 (A) (A) (A) (A) (A) (A) (A) (A) (A) (A) (A) (A)
                 (A) (A) (A) (A) (A) (A) (A) (A) (A) (A) (A) (A)
                 (A) (A) (A) (A) (A) (A) (A)
       Virtual   (A) (A) (A) (A) (A) (A) (A) (A) (A) (A) (A) (A)
                 (A) (A) (A) (A) (A) (A) (A) (A) (A) (A) (A) (A)
                 (A) (A) (A) (A) (A) (A) (A) (A) (A) (A) (A) (A)
                 (A) (A) (A) (A) (A) (A) (A) (A) (A) (A) (A) (A)
                 (A) (A) (A) (A) (A) (A) (A) (A) (A) (A) (A) (A)
                 (A) (A) (A) (A) (A) (A) (A) (A) (A) (A) (A) (A)
                 (A) (A) (A) (A) (A) (A) (A) (A) (A) (A) (A) (A)
                 (A) (A) (A) (A) (A) (A) (A) (A) (A) (A) (A) (A)
                 (A) (A) (A) (A) (A) (A) (A) (A) (A) (A) (A) (A)
                 (A) (A) (A) (A) (A) (A) (A) (A) (A) (A) (A) (A)
                 (A) (A) (A) (A) (A) (A) (A) (A) (A) (A) (A) (A)
                 (A) (A) (A) (A) (A) (A) (A) (A) (A) (A) (A) (A)
                 (A) (A) (A) (A) (A) (A) (A) (A) (A) (A) (A) (A)
                 (A) (A) (A) (A) (A) (A) (A) (A) (A) (A) (A) (A)
                 (A) (A) (A) (A) (A) (A) (A) (A) (A) (A) (A) (A)
                 (A) (A) (A) (A) (A) (A) (A) (A) (A) (A) (A) (A)
                 (A) (A) (A) (A) (A) (A) (A) (A) (A) (A) (A) (A)
                 (A) (A) (A) (A) (A) (A) (A) (A) (A) (A) (A) (A)
                 (A) (A) (A) (A) (A) (A) (A) (A) (A) (A) (A) (A)
                 (A) (A) (A) (A) (A) (A) (A) (A) (A) (A) (A) (A)
                 (A) (A) (A) (A) (A) (A) (A) (A) (A) (A) (A) (A)
                 (A) (A) (A) (A) (A) (A) (A) (A) (A) (A) (A) (A)
                 (A) (A) (A) (A) (A) (A) (A) (A) (A) (A) (A) (A)
                 (A) (A) (A) (A) (A) (A) (A) (A) (A) (A) (A) (A)
                 (A) (A) (A) (A) (A) (A) (A) (A) (A) (A) (A) (A)
                 (A) (A) (A) (A) (A) (A) (A) (A) (A) (A) (A) (A)
                 (A) (A) (A) (A) (A) (A) (A) (A) (A) (A) (A) (A)
                 (A) (A) (A) (A) (A) (A) (A) (A) (A) (A) (A) (A)
                 (A) (A) (A) (A) (A) (A) (A) (A) (A) (A) (A) (A)
                 (A) (A) (A) (A) (A) (A) (A) (A) (A) (A) (A) (A)
                 (A) (A) (A) (A) (A) (A) (A) (A) (A) (A) (A) (A)
                 (A) (A) (A) (A) (A) (A) (A) (A) (A) (A) (A) (A)
                 (A) (A) (A) (A) (A) (A) (A) (A) (A) (A) (A) (A)
                 (A) (A) (A) (A) (A) (A) (A) (A) (A) (A) (A) (A)
                 (A) (A) (A) (A) (A) (A) (A) (A) (A) (A) (A) (A)
                 (A) (A) (A) (A) (A) (A) (A) (A) (A) (A) (A) (A)
 The electronic state is 1-A.
 Alpha  occ. eigenvalues --  -19.16477 -19.15538 -19.15218 -14.32322 -10.29305
 Alpha  occ. eigenvalues --  -10.29180 -10.25928 -10.23555 -10.19825 -10.19032
 Alpha  occ. eigenvalues --  -10.18779 -10.18516 -10.18439 -10.12870  -1.06802
 Alpha  occ. eigenvalues --   -1.04265  -1.00236  -0.90609  -0.83526  -0.78091
 Alpha  occ. eigenvalues --   -0.75136  -0.71433  -0.70074  -0.65050  -0.64916
 Alpha  occ. eigenvalues --   -0.61548  -0.57303  -0.55174  -0.53116  -0.51266
 Alpha  occ. eigenvalues --   -0.50468  -0.49006  -0.48368  -0.47410  -0.46375
 Alpha  occ. eigenvalues --   -0.44441  -0.43355  -0.42933  -0.40876  -0.40588
 Alpha  occ. eigenvalues --   -0.39916  -0.38381  -0.37946  -0.36788  -0.36493
 Alpha  occ. eigenvalues --   -0.36244  -0.33911  -0.33743  -0.32835  -0.31740
 Alpha  occ. eigenvalues --   -0.31088  -0.29330  -0.26699  -0.25813  -0.17898
 Alpha virt. eigenvalues --    0.04474   0.06313   0.08458   0.09040   0.09425
 Alpha virt. eigenvalues --    0.10154   0.11085   0.12150   0.12908   0.13823
 Alpha virt. eigenvalues --    0.14145   0.14653   0.15840   0.16438   0.16739
 Alpha virt. eigenvalues --    0.17861   0.18001   0.19015   0.19570   0.19636
 Alpha virt. eigenvalues --    0.20518   0.21012   0.22120   0.22969   0.23180
 Alpha virt. eigenvalues --    0.24040   0.24816   0.25211   0.28065   0.28289
 Alpha virt. eigenvalues --    0.29117   0.30572   0.32445   0.40011   0.40718
 Alpha virt. eigenvalues --    0.41990   0.43675   0.43871   0.46305   0.46642
 Alpha virt. eigenvalues --    0.47868   0.49084   0.49303   0.50631   0.51063
 Alpha virt. eigenvalues --    0.52012   0.52831   0.54418   0.54969   0.55861
 Alpha virt. eigenvalues --    0.57030   0.57373   0.57865   0.58531   0.59874
 Alpha virt. eigenvalues --    0.60149   0.61662   0.63542   0.64822   0.66122
 Alpha virt. eigenvalues --    0.67422   0.68512   0.69228   0.69856   0.70788
 Alpha virt. eigenvalues --    0.71096   0.72062   0.72813   0.73039   0.73333
 Alpha virt. eigenvalues --    0.74470   0.74998   0.75809   0.76486   0.77264
 Alpha virt. eigenvalues --    0.78195   0.78930   0.79857   0.81212   0.82050
 Alpha virt. eigenvalues --    0.82259   0.83139   0.84409   0.85815   0.86594
 Alpha virt. eigenvalues --    0.87363   0.87978   0.88844   0.89220   0.90816
 Alpha virt. eigenvalues --    0.92450   0.92714   0.93719   0.94922   0.96446
 Alpha virt. eigenvalues --    0.97417   0.98606   0.99342   1.01804   1.02366
 Alpha virt. eigenvalues --    1.02494   1.03851   1.05891   1.07835   1.10048
 Alpha virt. eigenvalues --    1.11471   1.12099   1.15742   1.17017   1.19483
 Alpha virt. eigenvalues --    1.20869   1.20999   1.23901   1.25048   1.27386
 Alpha virt. eigenvalues --    1.27817   1.29105   1.30968   1.32861   1.33285
 Alpha virt. eigenvalues --    1.33829   1.34683   1.36182   1.38815   1.39306
 Alpha virt. eigenvalues --    1.40409   1.41667   1.43091   1.44330   1.45351
 Alpha virt. eigenvalues --    1.45919   1.47093   1.48444   1.49445   1.49884
 Alpha virt. eigenvalues --    1.51092   1.53023   1.54005   1.55802   1.56990
 Alpha virt. eigenvalues --    1.57847   1.59267   1.60757   1.62225   1.62427
 Alpha virt. eigenvalues --    1.64206   1.65120   1.65720   1.66649   1.68897
 Alpha virt. eigenvalues --    1.72205   1.73358   1.74112   1.75556   1.76423
 Alpha virt. eigenvalues --    1.77258   1.79365   1.80776   1.81557   1.83718
 Alpha virt. eigenvalues --    1.85380   1.86364   1.87115   1.89174   1.90058
 Alpha virt. eigenvalues --    1.90696   1.93250   1.94526   1.96161   1.96880
 Alpha virt. eigenvalues --    1.97478   1.98966   2.02721   2.03915   2.04893
 Alpha virt. eigenvalues --    2.07266   2.09708   2.16503   2.17289   2.18724
 Alpha virt. eigenvalues --    2.20346   2.22788   2.24024   2.25165   2.25668
 Alpha virt. eigenvalues --    2.29277   2.30117   2.30551   2.32545   2.34263
 Alpha virt. eigenvalues --    2.35475   2.36411   2.39962   2.40676   2.43193
 Alpha virt. eigenvalues --    2.45415   2.45633   2.49468   2.52413   2.53362
 Alpha virt. eigenvalues --    2.54928   2.55725   2.61318   2.62804   2.64879
 Alpha virt. eigenvalues --    2.67707   2.68621   2.72400   2.72899   2.75110
 Alpha virt. eigenvalues --    2.76071   2.77015   2.78039   2.79294   2.79684
 Alpha virt. eigenvalues --    2.81096   2.82240   2.83900   2.84311   2.84396
 Alpha virt. eigenvalues --    2.86540   2.87602   2.88875   2.89085   2.90772
 Alpha virt. eigenvalues --    2.92263   2.93144   2.94255   2.95912   2.96494
 Alpha virt. eigenvalues --    2.97299   2.98488   2.99814   3.01012   3.04680
 Alpha virt. eigenvalues --    3.05352   3.06361   3.07302   3.08767   3.10670
 Alpha virt. eigenvalues --    3.13892   3.14735   3.15648   3.17592   3.17904
 Alpha virt. eigenvalues --    3.20097   3.23367   3.23622   3.26115   3.27510
 Alpha virt. eigenvalues --    3.28837   3.29649   3.32143   3.32440   3.34583
 Alpha virt. eigenvalues --    3.35462   3.36725   3.38619   3.39214   3.41886
 Alpha virt. eigenvalues --    3.43362   3.44174   3.44314   3.45539   3.47262
 Alpha virt. eigenvalues --    3.47562   3.49174   3.50053   3.52116   3.54062
 Alpha virt. eigenvalues --    3.55911   3.56275   3.59500   3.61209   3.61750
 Alpha virt. eigenvalues --    3.63752   3.65584   3.66650   3.67411   3.71561
 Alpha virt. eigenvalues --    3.73773   3.74455   3.76472   3.77973   3.79913
 Alpha virt. eigenvalues --    3.81119   3.82532   3.84672   3.87512   3.89815
 Alpha virt. eigenvalues --    3.90161   3.92453   3.94326   3.97332   3.98347
 Alpha virt. eigenvalues --    4.03845   4.04897   4.06455   4.11642   4.12759
 Alpha virt. eigenvalues --    4.14417   4.15505   4.18627   4.20060   4.21457
 Alpha virt. eigenvalues --    4.21611   4.24803   4.27325   4.28283   4.30542
 Alpha virt. eigenvalues --    4.32624   4.32978   4.36121   4.36607   4.37068
 Alpha virt. eigenvalues --    4.38891   4.40541   4.40991   4.41693   4.43418
 Alpha virt. eigenvalues --    4.44877   4.46107   4.46763   4.47158   4.48569
 Alpha virt. eigenvalues --    4.49210   4.51446   4.51990   4.54932   4.55715
 Alpha virt. eigenvalues --    4.56340   4.57922   4.58638   4.58792   4.61071
 Alpha virt. eigenvalues --    4.61612   4.63397   4.63904   4.64450   4.65501
 Alpha virt. eigenvalues --    4.67907   4.68931   4.69918   4.70770   4.70913
 Alpha virt. eigenvalues --    4.72334   4.72827   4.73308   4.74016   4.75722
 Alpha virt. eigenvalues --    4.76201   4.77923   4.79211   4.79602   4.82186
 Alpha virt. eigenvalues --    4.82642   4.83658   4.84377   4.85289   4.86450
 Alpha virt. eigenvalues --    4.86702   4.88226   4.90200   4.92538   4.93492
 Alpha virt. eigenvalues --    4.94327   4.95483   4.96349   5.00665   5.01130
 Alpha virt. eigenvalues --    5.02607   5.04161   5.06255   5.09616   5.13612
 Alpha virt. eigenvalues --    5.15549   5.17145   5.24927   5.25855   5.29786
 Alpha virt. eigenvalues --    5.32551   5.35767   5.36288   5.39175   5.40280
 Alpha virt. eigenvalues --    5.41870   5.44395   5.46973   5.48882   5.51152
 Alpha virt. eigenvalues --    5.53305   5.58525   5.63850   5.68588   5.72412
 Alpha virt. eigenvalues --    5.77281   5.80550   5.84397   5.84715   5.86991
 Alpha virt. eigenvalues --    5.90417   5.92701   5.95728   5.98853   6.04755
 Alpha virt. eigenvalues --    6.05719   6.12826   6.16481   6.19015   6.20960
 Alpha virt. eigenvalues --    6.30948   6.51043   6.62910   7.16966   7.22300
 Alpha virt. eigenvalues --    7.31060   7.35735  10.36129  11.17280  11.21247
 Alpha virt. eigenvalues --   11.41702  11.49350  11.55333  11.94540  12.16945
 Alpha virt. eigenvalues --   12.55056  12.69303  12.98274  13.59605  13.67740
 Alpha virt. eigenvalues --   13.69562  14.56776
          Condensed to atoms (all electrons):
               1          2          3          4          5          6
     1  C    5.197546   0.584744  -0.043651  -0.026267   0.003698   0.000009
     2  C    0.584744   4.338897   0.377198   0.400435  -0.060729   0.000980
     3  N   -0.043651   0.377198   6.598689  -0.035312  -0.002170  -0.000045
     4  O   -0.026267   0.400435  -0.035312   7.706139   0.381946  -0.020201
     5  C    0.003698  -0.060729  -0.002170   0.381946   4.575334   0.327004
     6  O    0.000009   0.000980  -0.000045  -0.020201   0.327004   7.786563
     7  C   -0.000000  -0.000064   0.000004   0.000212  -0.064847   0.395457
     8  O    0.000000   0.000002  -0.000000   0.000037   0.002604  -0.035975
     9  C   -0.000000  -0.000000  -0.000000   0.000000   0.000220   0.002468
    10  C    0.000000  -0.000007  -0.000012   0.000018  -0.019187  -0.030472
    11  C   -0.000022  -0.000063   0.000755   0.001906  -0.012043  -0.011309
    12  C   -0.000115  -0.001209  -0.002533  -0.037288   0.288798  -0.044229
    13  C   -0.001361  -0.000645  -0.010032  -0.001371  -0.013019   0.000116
    14  C   -0.000098  -0.000795  -0.001164   0.000315   0.001488   0.000364
    15  H    0.366186  -0.012145  -0.010716   0.001879  -0.000146   0.000000
    16  H    0.354152   0.001390   0.003197  -0.003787  -0.000087   0.000002
    17  H   -0.009997  -0.028556   0.347024   0.001775   0.000037   0.000004
    18  H    0.008899  -0.051141   0.346016  -0.003219   0.000352   0.000017
    19  H   -0.000171   0.003371   0.000030  -0.032068   0.372121  -0.046262
    20  H    0.000000   0.000003  -0.000000  -0.000006   0.004194  -0.021082
    21  H   -0.000000  -0.000000   0.000000  -0.000000  -0.000021  -0.000062
    22  H    0.000000   0.000000  -0.000000  -0.000000  -0.000116  -0.000055
    23  H    0.000000   0.000000  -0.000000   0.000000   0.000068  -0.000034
    24  H   -0.000000  -0.000001   0.000001   0.000014  -0.000141  -0.001915
    25  H   -0.000000  -0.000000   0.000000   0.000002   0.000592   0.001901
    26  H    0.000000   0.000001   0.000021  -0.000036   0.002842  -0.000063
    27  H    0.000000   0.000037  -0.000010   0.000040  -0.002465  -0.000360
    28  H    0.000067   0.001004  -0.014388  -0.000042  -0.025133   0.002907
    29  H    0.004564   0.011733  -0.003849  -0.003576  -0.000672   0.000603
    30  H   -0.000072  -0.000240   0.000753  -0.000040   0.000324   0.004562
    31  H   -0.000035  -0.000192  -0.000710   0.000027   0.000456  -0.000007
    32  H    0.000002   0.000020   0.000024  -0.000000  -0.000111   0.000001
    33  H   -0.000000  -0.000004   0.000183  -0.000005   0.000075  -0.000001
               7          8          9         10         11         12
     1  C   -0.000000   0.000000  -0.000000   0.000000  -0.000022  -0.000115
     2  C   -0.000064   0.000002  -0.000000  -0.000007  -0.000063  -0.001209
     3  N    0.000004  -0.000000  -0.000000  -0.000012   0.000755  -0.002533
     4  O    0.000212   0.000037   0.000000   0.000018   0.001906  -0.037288
     5  C   -0.064847   0.002604   0.000220  -0.019187  -0.012043   0.288798
     6  O    0.395457  -0.035975   0.002468  -0.030472  -0.011309  -0.044229
     7  C    4.536999   0.330744  -0.073189   0.325334  -0.006299  -0.005450
     8  O    0.330744   7.760110   0.358285  -0.055512   0.002869  -0.005863
     9  C   -0.073189   0.358285   4.827219  -0.002213  -0.000901   0.000052
    10  C    0.325334  -0.055512  -0.002213   5.103401   0.366466  -0.007444
    11  C   -0.006299   0.002869  -0.000901   0.366466   4.956271   0.379448
    12  C   -0.005450  -0.005863   0.000052  -0.007444   0.379448   4.961751
    13  C   -0.001451   0.000095  -0.000001  -0.004751  -0.045153   0.384273
    14  C    0.000148  -0.000000  -0.000000  -0.001390  -0.001283  -0.039001
    15  H   -0.000000  -0.000000   0.000000  -0.000000   0.000000   0.000014
    16  H    0.000000  -0.000000   0.000000  -0.000000  -0.000000   0.000062
    17  H   -0.000000   0.000000  -0.000000   0.000001  -0.000027   0.000511
    18  H    0.000003  -0.000000   0.000000   0.000080  -0.001938   0.003843
    19  H   -0.002787   0.011666  -0.000294  -0.000420  -0.004787  -0.063312
    20  H    0.370924  -0.035444  -0.004630  -0.080618   0.006067  -0.000320
    21  H    0.003818  -0.017419   0.384381   0.000118  -0.000025   0.000007
    22  H   -0.006188  -0.034520   0.370707   0.005451  -0.000255   0.000240
    23  H   -0.006628  -0.030359   0.374093  -0.003568   0.000494  -0.000045
    24  H   -0.019344   0.002011   0.000020   0.362187  -0.031104  -0.007561
    25  H   -0.019261  -0.003683  -0.000702   0.362418  -0.037682   0.003225
    26  H    0.002525   0.000277   0.000001  -0.034404   0.372340  -0.027713
    27  H   -0.006396   0.008854   0.000346  -0.033128   0.359148  -0.021428
    28  H    0.000341  -0.000029  -0.000006   0.004783  -0.042792   0.351031
    29  H    0.000217   0.000001  -0.000000   0.000043   0.004233  -0.029353
    30  H   -0.000374   0.000030  -0.000002  -0.000017  -0.009395  -0.025856
    31  H   -0.000011   0.000000   0.000000   0.000061  -0.000487  -0.006543
    32  H   -0.000000   0.000000   0.000000   0.000021   0.000066   0.003227
    33  H    0.000030   0.000000   0.000000   0.000661   0.000062  -0.004094
              13         14         15         16         17         18
     1  C   -0.001361  -0.000098   0.366186   0.354152  -0.009997   0.008899
     2  C   -0.000645  -0.000795  -0.012145   0.001390  -0.028556  -0.051141
     3  N   -0.010032  -0.001164  -0.010716   0.003197   0.347024   0.346016
     4  O   -0.001371   0.000315   0.001879  -0.003787   0.001775  -0.003219
     5  C   -0.013019   0.001488  -0.000146  -0.000087   0.000037   0.000352
     6  O    0.000116   0.000364   0.000000   0.000002   0.000004   0.000017
     7  C   -0.001451   0.000148  -0.000000   0.000000  -0.000000   0.000003
     8  O    0.000095  -0.000000  -0.000000  -0.000000   0.000000  -0.000000
     9  C   -0.000001  -0.000000   0.000000   0.000000  -0.000000   0.000000
    10  C   -0.004751  -0.001390  -0.000000  -0.000000   0.000001   0.000080
    11  C   -0.045153  -0.001283   0.000000  -0.000000  -0.000027  -0.001938
    12  C    0.384273  -0.039001   0.000014   0.000062   0.000511   0.003843
    13  C    4.891963   0.389315   0.000043  -0.000010   0.000712  -0.000708
    14  C    0.389315   5.000399  -0.000003   0.000000   0.000202   0.003852
    15  H    0.000043  -0.000003   0.607373  -0.039120   0.001815   0.000138
    16  H   -0.000010   0.000000  -0.039120   0.588074  -0.000038  -0.000330
    17  H    0.000712   0.000202   0.001815  -0.000038   0.463732  -0.034900
    18  H   -0.000708   0.003852   0.000138  -0.000330  -0.034900   0.478845
    19  H    0.006838  -0.000095   0.000006  -0.000006  -0.000000   0.000067
    20  H   -0.000126  -0.000001   0.000000   0.000000   0.000000   0.000000
    21  H    0.000000   0.000000   0.000000  -0.000000  -0.000000  -0.000000
    22  H   -0.000000   0.000000   0.000000   0.000000   0.000000   0.000000
    23  H   -0.000000  -0.000000  -0.000000   0.000000   0.000000  -0.000000
    24  H   -0.000158   0.000868  -0.000000  -0.000000   0.000000  -0.000002
    25  H    0.000302  -0.000005  -0.000000  -0.000000  -0.000000  -0.000001
    26  H   -0.008804   0.001486   0.000000   0.000000  -0.000002  -0.000129
    27  H    0.004869   0.000079   0.000000   0.000000  -0.000000   0.000047
    28  H   -0.047975  -0.006097   0.000003   0.000006   0.000412   0.008284
    29  H    0.367450  -0.036590  -0.000047   0.000008  -0.000247  -0.004898
    30  H    0.364828  -0.037411  -0.000001   0.000001   0.000058   0.000125
    31  H   -0.032806   0.372088  -0.000003  -0.000000   0.001075   0.006916
    32  H   -0.023204   0.376232   0.000000  -0.000000   0.000154  -0.000192
    33  H   -0.028769   0.376669   0.000000  -0.000000   0.000002  -0.000373
              19         20         21         22         23         24
     1  C   -0.000171   0.000000  -0.000000   0.000000   0.000000  -0.000000
     2  C    0.003371   0.000003  -0.000000   0.000000   0.000000  -0.000001
     3  N    0.000030  -0.000000   0.000000  -0.000000  -0.000000   0.000001
     4  O   -0.032068  -0.000006  -0.000000  -0.000000   0.000000   0.000014
     5  C    0.372121   0.004194  -0.000021  -0.000116   0.000068  -0.000141
     6  O   -0.046262  -0.021082  -0.000062  -0.000055  -0.000034  -0.001915
     7  C   -0.002787   0.370924   0.003818  -0.006188  -0.006628  -0.019344
     8  O    0.011666  -0.035444  -0.017419  -0.034520  -0.030359   0.002011
     9  C   -0.000294  -0.004630   0.384381   0.370707   0.374093   0.000020
    10  C   -0.000420  -0.080618   0.000118   0.005451  -0.003568   0.362187
    11  C   -0.004787   0.006067  -0.000025  -0.000255   0.000494  -0.031104
    12  C   -0.063312  -0.000320   0.000007   0.000240  -0.000045  -0.007561
    13  C    0.006838  -0.000126   0.000000  -0.000000  -0.000000  -0.000158
    14  C   -0.000095  -0.000001   0.000000   0.000000  -0.000000   0.000868
    15  H    0.000006   0.000000   0.000000   0.000000  -0.000000  -0.000000
    16  H   -0.000006   0.000000  -0.000000   0.000000   0.000000  -0.000000
    17  H   -0.000000   0.000000  -0.000000   0.000000   0.000000   0.000000
    18  H    0.000067   0.000000  -0.000000   0.000000  -0.000000  -0.000002
    19  H    0.648808   0.000103   0.000014   0.000005   0.000027  -0.000076
    20  H    0.000103   0.663773  -0.000229  -0.001568   0.011806  -0.000420
    21  H    0.000014  -0.000229   0.564459  -0.038126  -0.032787  -0.000008
    22  H    0.000005  -0.001568  -0.038126   0.637423  -0.050531  -0.000337
    23  H    0.000027   0.011806  -0.032787  -0.050531   0.622693   0.000030
    24  H   -0.000076  -0.000420  -0.000008  -0.000337   0.000030   0.615672
    25  H    0.000047  -0.000606   0.000081   0.002285   0.000946  -0.037142
    26  H   -0.000247  -0.000194   0.000001  -0.000240   0.000003  -0.003450
    27  H    0.003695   0.000332  -0.000075  -0.000969   0.000196   0.005829
    28  H   -0.003018   0.000020  -0.000001   0.000010   0.000000   0.000008
    29  H    0.000064   0.000010   0.000000  -0.000000  -0.000000  -0.000251
    30  H    0.000117  -0.000074   0.000000   0.000001  -0.000000   0.003467
    31  H   -0.000006  -0.000000   0.000000  -0.000000   0.000000  -0.000021
    32  H    0.000003  -0.000000   0.000000   0.000000  -0.000000  -0.000088
    33  H    0.000001   0.000001  -0.000000  -0.000000  -0.000000   0.000246
              25         26         27         28         29         30
     1  C   -0.000000   0.000000   0.000000   0.000067   0.004564  -0.000072
     2  C   -0.000000   0.000001   0.000037   0.001004   0.011733  -0.000240
     3  N    0.000000   0.000021  -0.000010  -0.014388  -0.003849   0.000753
     4  O    0.000002  -0.000036   0.000040  -0.000042  -0.003576  -0.000040
     5  C    0.000592   0.002842  -0.002465  -0.025133  -0.000672   0.000324
     6  O    0.001901  -0.000063  -0.000360   0.002907   0.000603   0.004562
     7  C   -0.019261   0.002525  -0.006396   0.000341   0.000217  -0.000374
     8  O   -0.003683   0.000277   0.008854  -0.000029   0.000001   0.000030
     9  C   -0.000702   0.000001   0.000346  -0.000006  -0.000000  -0.000002
    10  C    0.362418  -0.034404  -0.033128   0.004783   0.000043  -0.000017
    11  C   -0.037682   0.372340   0.359148  -0.042792   0.004233  -0.009395
    12  C    0.003225  -0.027713  -0.021428   0.351031  -0.029353  -0.025856
    13  C    0.000302  -0.008804   0.004869  -0.047975   0.367450   0.364828
    14  C   -0.000005   0.001486   0.000079  -0.006097  -0.036590  -0.037411
    15  H   -0.000000   0.000000   0.000000   0.000003  -0.000047  -0.000001
    16  H   -0.000000   0.000000   0.000000   0.000006   0.000008   0.000001
    17  H   -0.000000  -0.000002  -0.000000   0.000412  -0.000247   0.000058
    18  H   -0.000001  -0.000129   0.000047   0.008284  -0.004898   0.000125
    19  H    0.000047  -0.000247   0.003695  -0.003018   0.000064   0.000117
    20  H   -0.000606  -0.000194   0.000332   0.000020   0.000010  -0.000074
    21  H    0.000081   0.000001  -0.000075  -0.000001   0.000000   0.000000
    22  H    0.002285  -0.000240  -0.000969   0.000010  -0.000000   0.000001
    23  H    0.000946   0.000003   0.000196   0.000000  -0.000000  -0.000000
    24  H   -0.037142  -0.003450   0.005829   0.000008  -0.000251   0.003467
    25  H    0.631679  -0.002096  -0.003600  -0.000206  -0.000005  -0.000001
    26  H   -0.002096   0.636739  -0.039634  -0.003581   0.000069   0.000130
    27  H   -0.003600  -0.039634   0.620890  -0.005156  -0.000149   0.000001
    28  H   -0.000206  -0.003581  -0.005156   0.678084   0.000436   0.004567
    29  H   -0.000005   0.000069  -0.000149   0.000436   0.599497  -0.035798
    30  H   -0.000001   0.000130   0.000001   0.004567  -0.035798   0.616751
    31  H    0.000005   0.000940  -0.000074   0.001754  -0.003029   0.005835
    32  H    0.000002  -0.000189  -0.000000   0.000016  -0.004624  -0.000585
    33  H   -0.000087   0.004074  -0.000088   0.000121   0.005386  -0.005448
              31         32         33
     1  C   -0.000035   0.000002  -0.000000
     2  C   -0.000192   0.000020  -0.000004
     3  N   -0.000710   0.000024   0.000183
     4  O    0.000027  -0.000000  -0.000005
     5  C    0.000456  -0.000111   0.000075
     6  O   -0.000007   0.000001  -0.000001
     7  C   -0.000011  -0.000000   0.000030
     8  O    0.000000   0.000000   0.000000
     9  C    0.000000   0.000000   0.000000
    10  C    0.000061   0.000021   0.000661
    11  C   -0.000487   0.000066   0.000062
    12  C   -0.006543   0.003227  -0.004094
    13  C   -0.032806  -0.023204  -0.028769
    14  C    0.372088   0.376232   0.376669
    15  H   -0.000003   0.000000   0.000000
    16  H   -0.000000  -0.000000  -0.000000
    17  H    0.001075   0.000154   0.000002
    18  H    0.006916  -0.000192  -0.000373
    19  H   -0.000006   0.000003   0.000001
    20  H   -0.000000  -0.000000   0.000001
    21  H    0.000000   0.000000  -0.000000
    22  H   -0.000000   0.000000  -0.000000
    23  H    0.000000  -0.000000  -0.000000
    24  H   -0.000021  -0.000088   0.000246
    25  H    0.000005   0.000002  -0.000087
    26  H    0.000940  -0.000189   0.004074
    27  H   -0.000074  -0.000000  -0.000088
    28  H    0.001754   0.000016   0.000121
    29  H   -0.003029  -0.004624   0.005386
    30  H    0.005835  -0.000585  -0.005448
    31  H    0.610846  -0.031153  -0.033114
    32  H   -0.031153   0.592506  -0.029956
    33  H   -0.033114  -0.029956   0.594231
 Mulliken charges:
               1
     1  C   -0.438076
     2  C    0.435975
     3  N   -0.549305
     4  O   -0.331525
     5  C    0.238731
     6  O   -0.310887
     7  C    0.245533
     8  O   -0.258780
     9  C   -0.235854
    10  C   -0.257901
    11  C   -0.244561
    12  C   -0.047124
    13  C   -0.190459
    14  C   -0.399573
    15  H    0.084724
    16  H    0.096485
    17  H    0.256254
    18  H    0.240350
    19  H    0.106567
    20  H    0.088085
    21  H    0.135874
    22  H    0.116782
    23  H    0.113596
    24  H    0.111669
    25  H    0.101591
    26  H    0.099334
    27  H    0.109171
    28  H    0.094570
    29  H    0.128776
    30  H    0.113765
    31  H    0.108186
    32  H    0.117832
    33  H    0.120195
 Sum of Mulliken charges =  -0.00000
 Mulliken charges with hydrogens summed into heavy atoms:
               1
     1  C   -0.256867
     2  C    0.435975
     3  N   -0.052702
     4  O   -0.331525
     5  C    0.345297
     6  O   -0.310887
     7  C    0.333618
     8  O   -0.258780
     9  C    0.130398
    10  C   -0.044640
    11  C   -0.036056
    12  C    0.047445
    13  C    0.052081
    14  C   -0.053358
 Electronic spatial extent (au):  <R**2>=           3213.3626
 Charge=             -0.0000 electrons
 Dipole moment (field-independent basis, Debye):
    X=             -2.9432    Y=              4.4258    Z=             -0.5075  Tot=              5.3393
 Quadrupole moment (field-independent basis, Debye-Ang):
   XX=            -80.0184   YY=            -89.8404   ZZ=            -86.9364
   XY=              5.0983   XZ=              1.9606   YZ=              0.8693
 Traceless Quadrupole moment (field-independent basis, Debye-Ang):
   XX=              5.5800   YY=             -4.2420   ZZ=             -1.3380
   XY=              5.0983   XZ=              1.9606   YZ=              0.8693
 Octapole moment (field-independent basis, Debye-Ang**2):
  XXX=            -56.5021  YYY=             -2.9943  ZZZ=              1.8811  XYY=             -3.8239
  XXY=             19.7927  XXZ=              8.0131  XZZ=            -16.3902  YZZ=             -0.6587
  YYZ=             -0.0335  XYZ=             -3.2127
 Hexadecapole moment (field-independent basis, Debye-Ang**3):
 XXXX=          -2699.5775 YYYY=          -1039.3078 ZZZZ=           -322.1543 XXXY=            119.6279
 XXXZ=             51.6093 YYYX=             14.8055 YYYZ=             -4.8944 ZZZX=              6.1060
 ZZZY=              2.2176 XXYY=           -669.1325 XXZZ=           -553.5804 YYZZ=           -219.7881
 XXYZ=             -9.2347 YYXZ=              9.3437 ZZXY=             17.4444
 N-N= 1.023172303552D+03 E-N=-3.614727016932D+03  KE= 6.679234923185D+02
 PrsmSu:  requested number of processors reduced to:  13 ShMem   1 Linda.
 Calling FoFJK, ICntrl=      2127 FMM=F ISym2X=0 I1Cent= 0 IOpClX= 0 NMat=1 NMatS=1 NMatT=0.
 ***** Axes restored to original set *****
 -------------------------------------------------------------------
 Center     Atomic                   Forces (Hartrees/Bohr)
 Number     Number              X              Y              Z
 -------------------------------------------------------------------
      1        6           0.000524413    0.013390829   -0.004458596
      2        6          -0.026240104    0.025811951    0.017539828
      3        7           0.019935922   -0.031249665    0.003157624
      4        8           0.020452894    0.003269731    0.000654910
      5        6           0.006718532   -0.011606528   -0.006477337
      6        8           0.004790328   -0.000772563   -0.006568351
      7        6          -0.001174223   -0.002780406    0.001891198
      8        8          -0.005739598   -0.002566938    0.002622736
      9        6          -0.007491762   -0.003613772   -0.002731772
     10        6           0.006745731   -0.002551882   -0.000104156
     11        6           0.005279501    0.001028575   -0.001968835
     12        6          -0.010219209   -0.002749556    0.007668698
     13        6          -0.006809625   -0.001163094   -0.001594982
     14        6           0.001367128   -0.001773527    0.006507686
     15        1           0.000461662    0.001612228   -0.006253418
     16        1          -0.000342717    0.004176083    0.003462479
     17        1          -0.002098772    0.003140250   -0.009721990
     18        1           0.002244845    0.001437933   -0.004316105
     19        1          -0.001286202   -0.001442538    0.001232236
     20        1          -0.008213561    0.004334847   -0.000470768
     21        1          -0.004945521    0.004271471   -0.001729140
     22        1           0.002106108    0.000906680    0.001898776
     23        1           0.003396825    0.002106249    0.001808369
     24        1          -0.002376830    0.002685423   -0.001274058
     25        1           0.000850373    0.009460659   -0.001330091
     26        1          -0.000440392   -0.000354544    0.001197852
     27        1           0.000344219    0.003102831    0.002093338
     28        1          -0.008259404   -0.007026160    0.005130547
     29        1           0.000403491   -0.000473905   -0.008070618
     30        1           0.006552250   -0.000794760   -0.004776478
     31        1           0.000829489   -0.002923372    0.000980371
     32        1           0.001153837   -0.002851659    0.002191725
     33        1           0.001480374   -0.004040869    0.001808322
 -------------------------------------------------------------------
 Cartesian Forces:  Max     0.031249665 RMS     0.007295184

 GradGradGradGradGradGradGradGradGradGradGradGradGradGradGradGradGradGrad
 Berny optimization.
 FormGI is forming the generalized inverse of G from B-inverse, IUseBI=4.
 Internal  Forces:  Max     0.065280843 RMS     0.010643782
 Search for a local minimum.
 Step number   1 out of a maximum of  182
 All quantities printed in internal units (Hartrees-Bohrs-Radians)
 Mixed Optimization -- RFO/linear search
 Second derivative matrix not updated -- first step.
 ITU=  0
     Eigenvalues ---    0.00230   0.00584   0.00662   0.00834   0.00891
     Eigenvalues ---    0.01218   0.01272   0.01369   0.01810   0.02001
     Eigenvalues ---    0.02244   0.02818   0.02819   0.02909   0.03151
     Eigenvalues ---    0.03394   0.04272   0.04451   0.04637   0.04653
     Eigenvalues ---    0.04898   0.05140   0.05163   0.05420   0.05662
     Eigenvalues ---    0.05762   0.05796   0.06256   0.06882   0.07583
     Eigenvalues ---    0.07710   0.07775   0.08481   0.08868   0.09179
     Eigenvalues ---    0.10009   0.10244   0.10401   0.12270   0.12296
     Eigenvalues ---    0.14127   0.16000   0.16000   0.16000   0.16000
     Eigenvalues ---    0.16000   0.16000   0.16000   0.16000   0.16000
     Eigenvalues ---    0.16000   0.16351   0.18689   0.19668   0.20457
     Eigenvalues ---    0.21631   0.24972   0.24989   0.25000   0.25000
     Eigenvalues ---    0.26419   0.27382   0.29546   0.29870   0.30532
     Eigenvalues ---    0.30974   0.33844   0.33927   0.34104   0.34310
     Eigenvalues ---    0.34383   0.34424   0.34434   0.34493   0.34603
     Eigenvalues ---    0.34611   0.34626   0.34715   0.34734   0.34743
     Eigenvalues ---    0.34845   0.35383   0.36579   0.36661   0.36898
     Eigenvalues ---    0.36937   0.40745   0.41800   0.44479   0.47137
     Eigenvalues ---    0.47874   0.49718   0.56127
 RFO step:  Lambda=-7.85301383D-02 EMin= 2.30000000D-03
 Linear search not attempted -- first point.
 Maximum step size (   0.300) exceeded in Quadratic search.
    -- Step size scaled by   0.708
 Iteration  1 RMS(Cart)=  0.24112183 RMS(Int)=  0.01334355
 Iteration  2 RMS(Cart)=  0.06880841 RMS(Int)=  0.00116145
 Iteration  3 RMS(Cart)=  0.00219155 RMS(Int)=  0.00077572
 Iteration  4 RMS(Cart)=  0.00000278 RMS(Int)=  0.00077572
 Iteration  5 RMS(Cart)=  0.00000000 RMS(Int)=  0.00077572
 Variable       Old X    -DE/DX   Delta X   Delta X   Delta X     New X
                                 (Linear)    (Quad)   (Total)
    R1        2.54144   0.00165   0.00000   0.00183   0.00183   2.54327
    R2        2.05057  -0.00305   0.00000  -0.00499  -0.00499   2.04558
    R3        2.03185   0.00349   0.00000   0.00556   0.00556   2.03741
    R4        2.60151   0.02983   0.00000   0.03668   0.03668   2.63820
    R5        2.62870  -0.01132   0.00000  -0.01458  -0.01458   2.61412
    R6        1.92586  -0.00786   0.00000  -0.01063  -0.01063   1.91523
    R7        1.88774   0.00137   0.00000   0.00174   0.00174   1.88947
    R8        2.76000  -0.01633   0.00000  -0.02584  -0.02584   2.73416
    R9        2.74487  -0.01116   0.00000  -0.01900  -0.01919   2.72568
   R10        2.87747   0.01423   0.00000   0.02463   0.02451   2.90198
   R11        2.07453  -0.00170   0.00000  -0.00288  -0.00288   2.07166
   R12        2.74472  -0.02718   0.00000  -0.04812  -0.04844   2.69629
   R13        2.70553  -0.00619   0.00000  -0.00902  -0.00902   2.69651
   R14        2.90555  -0.00378   0.00000  -0.00524  -0.00514   2.90041
   R15        2.07154   0.00160   0.00000   0.00270   0.00270   2.07424
   R16        2.69179  -0.00654   0.00000  -0.00933  -0.00933   2.68246
   R17        2.06140   0.00096   0.00000   0.00160   0.00160   2.06300
   R18        2.06810   0.00072   0.00000   0.00120   0.00120   2.06930
   R19        2.06620   0.00366   0.00000   0.00613   0.00613   2.07232
   R20        2.85206   0.01321   0.00000   0.02533   0.02551   2.87757
   R21        2.06312  -0.00073   0.00000  -0.00122  -0.00122   2.06190
   R22        2.06109   0.00117   0.00000   0.00194   0.00194   2.06303
   R23        2.86172   0.01632   0.00000   0.03700   0.03732   2.89904
   R24        2.06506   0.00060   0.00000   0.00100   0.00100   2.06606
   R25        2.07594  -0.00177   0.00000  -0.00300  -0.00300   2.07294
   R26        2.95730  -0.00288   0.00000  -0.00596  -0.00596   2.95134
   R27        2.05927   0.00355   0.00000   0.00589   0.00589   2.06516
   R28        2.86061   0.01584   0.00000   0.02889   0.02889   2.88951
   R29        2.06325  -0.00115   0.00000  -0.00192  -0.00192   2.06133
   R30        2.06604  -0.00138   0.00000  -0.00231  -0.00231   2.06372
   R31        2.06689   0.00132   0.00000   0.00221   0.00221   2.06910
   R32        2.06286   0.00179   0.00000   0.00298   0.00298   2.06584
   R33        2.06094   0.00201   0.00000   0.00334   0.00334   2.06428
    A1        2.08229   0.00109   0.00000   0.00320   0.00319   2.08548
    A2        2.12890  -0.00100   0.00000  -0.00300  -0.00301   2.12589
    A3        2.07185  -0.00011   0.00000  -0.00036  -0.00038   2.07147
    A4        1.99459   0.02951   0.00000   0.06441   0.06367   2.05826
    A5        2.05545  -0.02334   0.00000  -0.04952  -0.05024   2.00521
    A6        2.23185  -0.00569   0.00000  -0.01153  -0.01225   2.21960
    A7        1.94067  -0.00033   0.00000   0.00287   0.00280   1.94347
    A8        2.06923  -0.00106   0.00000   0.00036   0.00030   2.06953
    A9        1.85034   0.00507   0.00000   0.02105   0.02096   1.87130
   A10        2.26044   0.06528   0.00000   0.14070   0.14070   2.40114
   A11        1.97221  -0.03956   0.00000  -0.11830  -0.11940   1.85280
   A12        1.96945   0.04284   0.00000   0.12553   0.12635   2.09580
   A13        1.83469  -0.01189   0.00000  -0.03583  -0.04018   1.79452
   A14        1.87738   0.00619   0.00000   0.01876   0.01982   1.89720
   A15        1.85495   0.00158   0.00000  -0.00474  -0.00654   1.84841
   A16        1.95298  -0.00232   0.00000   0.00512   0.00466   1.95764
   A17        1.98382   0.00474   0.00000   0.00558   0.00495   1.98877
   A18        1.93023  -0.02074   0.00000  -0.05795  -0.05750   1.87272
   A19        1.95444   0.00849   0.00000   0.00395   0.00366   1.95810
   A20        1.85794  -0.00390   0.00000  -0.01669  -0.01695   1.84099
   A21        1.93236   0.01317   0.00000   0.04564   0.04525   1.97761
   A22        1.89263  -0.00116   0.00000  -0.00020  -0.00206   1.89057
   A23        1.89336   0.00364   0.00000   0.02428   0.02418   1.91754
   A24        1.97978   0.01672   0.00000   0.03604   0.03604   2.01583
   A25        1.89710  -0.00874   0.00000  -0.02667  -0.02665   1.87045
   A26        1.94797   0.00477   0.00000   0.01564   0.01563   1.96360
   A27        1.93181   0.00304   0.00000   0.00827   0.00821   1.94002
   A28        1.84874   0.00432   0.00000   0.01443   0.01450   1.86324
   A29        1.91672  -0.00093   0.00000  -0.00572  -0.00576   1.91096
   A30        1.91950  -0.00260   0.00000  -0.00640  -0.00648   1.91302
   A31        1.87753  -0.00096   0.00000   0.00780   0.00688   1.88441
   A32        1.93049  -0.00174   0.00000  -0.01533  -0.01514   1.91536
   A33        1.99758  -0.00499   0.00000  -0.02211  -0.02208   1.97550
   A34        1.94356  -0.00046   0.00000  -0.00668  -0.00625   1.93731
   A35        1.89724   0.00720   0.00000   0.02995   0.03026   1.92750
   A36        1.81813   0.00116   0.00000   0.00651   0.00607   1.82420
   A37        1.88426   0.00037   0.00000   0.02102   0.02160   1.90586
   A38        1.95526   0.00048   0.00000  -0.00038  -0.00032   1.95494
   A39        1.94550  -0.00248   0.00000  -0.01904  -0.01950   1.92599
   A40        1.92574   0.00049   0.00000  -0.00173  -0.00203   1.92371
   A41        1.91028   0.00015   0.00000  -0.00621  -0.00624   1.90404
   A42        1.84285   0.00100   0.00000   0.00536   0.00542   1.84828
   A43        1.97834  -0.01811   0.00000  -0.05899  -0.05913   1.91921
   A44        1.91431   0.01169   0.00000   0.02890   0.02859   1.94290
   A45        1.84463   0.00297   0.00000   0.01689   0.01776   1.86239
   A46        1.92202   0.00169   0.00000   0.00961   0.01034   1.93236
   A47        1.77627   0.00915   0.00000   0.02740   0.02758   1.80384
   A48        2.02623  -0.00916   0.00000  -0.02882  -0.02928   1.99696
   A49        1.94705   0.01459   0.00000   0.03405   0.03421   1.98127
   A50        1.98707  -0.00852   0.00000  -0.02590  -0.02622   1.96085
   A51        1.95656  -0.00756   0.00000  -0.02573  -0.02580   1.93076
   A52        1.88864  -0.00106   0.00000   0.00665   0.00688   1.89552
   A53        1.92457  -0.00464   0.00000  -0.01012  -0.00985   1.91472
   A54        1.75000   0.00591   0.00000   0.01906   0.01876   1.76875
   A55        1.94143   0.00255   0.00000   0.00765   0.00761   1.94904
   A56        1.91757   0.00307   0.00000   0.00906   0.00902   1.92659
   A57        1.93534   0.00461   0.00000   0.01364   0.01358   1.94892
   A58        1.88628  -0.00287   0.00000  -0.00844  -0.00847   1.87781
   A59        1.88902  -0.00375   0.00000  -0.01104  -0.01109   1.87793
   A60        1.89276  -0.00405   0.00000  -0.01221  -0.01226   1.88050
    D1        0.04003  -0.00045   0.00000  -0.00117  -0.00113   0.03890
    D2       -3.05128  -0.00970   0.00000  -0.06622  -0.06626  -3.11754
    D3       -3.08296   0.00105   0.00000   0.00878   0.00882  -3.07414
    D4        0.10892  -0.00820   0.00000  -0.05627  -0.05631   0.05261
    D5       -0.72460  -0.00085   0.00000  -0.01159  -0.01220  -0.73680
    D6       -2.87531  -0.00680   0.00000  -0.04402  -0.04470  -2.92000
    D7        2.36061   0.00908   0.00000   0.06040   0.06108   2.42169
    D8        0.20991   0.00313   0.00000   0.02797   0.02858   0.23849
    D9        2.90961  -0.00455   0.00000  -0.03757  -0.03898   2.87062
   D10       -0.17390  -0.01627   0.00000  -0.11494  -0.11353  -0.28743
   D11       -2.35795  -0.02413   0.00000  -0.13761  -0.13210  -2.49005
   D12       -0.22317  -0.01331   0.00000  -0.10690  -0.10940  -0.33257
   D13        1.90977   0.00094   0.00000  -0.05113  -0.05414   1.85563
   D14       -3.13138   0.03954   0.00000   0.14672   0.14435  -2.98703
   D15        0.96633   0.00706   0.00000   0.05272   0.05276   1.01910
   D16       -1.12805   0.00571   0.00000   0.03950   0.04044  -1.08761
   D17        3.10726   0.01286   0.00000   0.03274   0.03249   3.13975
   D18       -1.01987   0.01093   0.00000   0.02488   0.02452  -0.99535
   D19        1.17667   0.00872   0.00000   0.01803   0.01806   1.19473
   D20       -0.98880  -0.00396   0.00000  -0.01911  -0.01862  -1.00742
   D21        1.16726  -0.00588   0.00000  -0.02697  -0.02659   1.14067
   D22       -2.91940  -0.00809   0.00000  -0.03382  -0.03305  -2.95245
   D23        1.04224   0.00043   0.00000  -0.01067  -0.01173   1.03050
   D24       -3.08490  -0.00150   0.00000  -0.01852  -0.01970  -3.10459
   D25       -0.88836  -0.00371   0.00000  -0.02538  -0.02616  -0.91452
   D26        1.13393   0.01112   0.00000   0.01692   0.01688   1.15081
   D27       -1.03026   0.00319   0.00000  -0.00237  -0.00187  -1.03213
   D28       -3.09675  -0.00351   0.00000  -0.02366  -0.02265  -3.11940
   D29        3.13387  -0.01131   0.00000  -0.04595  -0.04493   3.08895
   D30       -0.97250  -0.00583   0.00000  -0.04979  -0.05059  -1.02309
   D31        1.10278   0.00566   0.00000   0.00665   0.00644   1.10922
   D32        1.02077  -0.00770   0.00000  -0.03464  -0.03430   0.98646
   D33       -1.10539  -0.00546   0.00000  -0.02212  -0.02188  -1.12727
   D34        3.13089  -0.00244   0.00000  -0.00511  -0.00524   3.12565
   D35       -1.14223   0.00334   0.00000   0.00405   0.00467  -1.13756
   D36        3.01480   0.00558   0.00000   0.01656   0.01710   3.03190
   D37        0.96789   0.00860   0.00000   0.03358   0.03374   1.00162
   D38        3.06612  -0.00526   0.00000  -0.03762  -0.03771   3.02841
   D39        0.93997  -0.00302   0.00000  -0.02510  -0.02529   0.91468
   D40       -1.10695   0.00000   0.00000  -0.00808  -0.00865  -1.11559
[...]
 0145444,0.00023997,0.00022200,0.06253148,0.00000017,0.00007330,0.00012
 809,0.00024893,-0.00033497,0.00035061,0.00000763,0.00040394,-0.0001319
 0,-0.00007623,0.00171732,-0.00027899,-0.00510666,-0.01918489,-0.004539
 35,0.00119566,-0.00231727,0.00394943,0.00162273,0.00040628,-0.00087101
 ,-0.00030090,0.00000853,0.00046233,0.00012021,0.00014293,-0.00007616,-
 0.00085091,0.00181016,0.00024165,-0.00127875,-0.00412740,-0.00048932,-
 0.04319222,-0.28285481,-0.03486218,-0.00086090,-0.00942549,-0.00259651
 ,-0.00002514,0.00087731,0.00083061,-0.00001269,0.00005309,-0.00001928,
 0.00009531,0.00005063,-0.00001878,0.00006274,0.00003539,-0.00002051,-0
 .00030168,-0.00004609,-0.00025578,0.00006230,0.00085964,0.00054356,-0.
 00012125,-0.00002538,-0.00002537,-0.00002751,-0.00001407,0.00004762,-0
 .00002362,-0.00002356,0.00000222,-0.00000610,-0.00001387,-0.00000344,0
 .00011088,0.00012964,0.00000080,0.00009217,-0.00029419,-0.00000306,-0.
 00037468,0.00034472,-0.00017295,-0.00032296,0.00065583,0.00048697,0.04
 818585,0.30908615,0.00000031,-0.00010225,-0.00004854,0.00004600,0.0000
 4132,-0.00010410,-0.00002833,-0.00017429,0.00003959,0.00090121,-0.0004
 9887,0.00042138,0.00504450,0.02256595,0.00322764,-0.00224361,0.0057352
 5,-0.00343176,-0.00178732,-0.00046996,0.00033736,0.00030845,-0.0000331
 7,-0.00024499,-0.00010182,-0.00008555,0.00003099,0.00094332,-0.0001037
 7,0.00067663,0.00162972,0.00341435,-0.00022465,-0.00926319,-0.03818105
 ,-0.05364895,-0.00442802,-0.03071750,-0.00852149,-0.00030048,-0.001537
 16,0.00188534,0.00000752,-0.00001277,-0.00000619,-0.00003304,-0.000006
 41,0.00002754,-0.00004071,-0.00002001,0.00001653,0.00023537,0.00003604
 ,0.00019127,0.00062714,-0.00048076,0.00066234,0.00021553,0.00001826,-0
 .00000640,0.00002590,0.00001143,-0.00002826,0.00003759,0.00001622,0.00
 000053,0.00000745,0.00000781,0.00000582,0.00021192,0.00030134,-0.00002
 133,0.00005817,0.00005745,0.00014269,0.00000156,-0.00037938,0.00000134
 ,-0.00009410,0.00057376,0.00037478,0.00566131,0.03938628,0.06279942,-0
 .00009072,-0.00004288,-0.00007721,0.00063983,-0.00011703,-0.00005531,-
 0.00006258,0.00012104,-0.00010513,0.00014178,0.00049920,-0.00342885,-0
 .00205933,0.00025500,-0.00017552,0.00041647,-0.00003781,0.00022463,-0.
 00036164,0.00008842,-0.00018168,0.00006282,-0.00008696,0.00011559,0.00
 004064,0.00005507,-0.00005118,0.00026455,0.00022795,-0.00003229,0.0009
 5002,0.00131790,0.00199504,-0.01208838,-0.00217643,0.00277889,-0.30560
 162,-0.03307851,-0.00019605,-0.01207698,-0.00098138,-0.00140509,-0.000
 05702,0.00001677,0.00002560,0.00002735,-0.00000361,-0.00001365,-0.0000
 1258,0.00002312,0.00000754,-0.00006918,-0.00001356,-0.00002222,0.00000
 415,-0.00008075,0.00007353,0.00004695,-0.00003856,0.00003853,-0.000001
 26,0.00000059,0.00001135,0.00001304,-0.00000075,-0.00000226,-0.0000023
 0,-0.00002024,-0.00000014,0.00004475,0.00004354,-0.00002141,-0.0000142
 9,-0.00004119,0.00000896,0.00018041,-0.00003098,-0.00014453,-0.0007602
 4,-0.00021020,0.00004053,0.00044452,0.00029850,-0.00007802,0.33334487,
 -0.00008002,-0.00001213,-0.00012496,0.00032409,-0.00004835,0.00025704,
 0.00002924,-0.00007977,-0.00004523,0.00000887,-0.00013472,-0.00005775,
 -0.00115555,0.00034603,0.00046662,0.00047271,0.00000757,0.00029796,-0.
 00028957,0.00012281,-0.00029626,0.00008525,-0.00000846,0.00018815,0.00
 004255,0.00003096,-0.00002621,0.00001717,-0.00027271,-0.00033713,-0.00
 004553,-0.00018729,-0.00158096,0.00958838,0.00061771,-0.00079125,-0.03
 333323,-0.05323070,-0.00086770,0.02048489,0.00172616,0.00147519,-0.000
 03230,-0.00002167,0.00002253,-0.00000384,-0.00001414,-0.00002131,-0.00
 000494,-0.00000035,0.00000177,-0.00007041,0.00000752,0.00003032,0.0002
 0823,-0.00004842,-0.00000231,0.00001097,0.00001680,-0.00000669,-0.0000
 0117,-0.00000122,0.00000819,0.00000532,-0.00000373,-0.00000838,-0.0000
 0274,-0.00000675,-0.00000080,0.00021522,0.00038760,0.00021636,0.000010
 52,0.00015507,0.00018880,-0.00018341,-0.00005758,0.00010994,0.00044921
 ,0.00019956,-0.00010966,0.00026056,0.00029955,0.00056343,0.03357662,0.
 05499570,0.00018520,0.00000472,0.00025023,-0.00126959,0.00008344,-0.00
 081295,0.00020691,-0.00024319,0.00037668,-0.00095439,0.00050662,-0.001
 38616,0.00264905,0.00079263,0.00124048,-0.00090615,-0.00018805,-0.0003
 1678,0.00066742,-0.00014169,0.00022879,-0.00019366,0.00009199,-0.00004
 698,0.00000084,-0.00004554,0.00004514,-0.00017651,-0.00047336,-0.00007
 571,0.00013634,-0.00209542,-0.00613617,0.03175450,0.00467587,-0.002273
 95,-0.00294189,-0.00151535,-0.04490216,-0.02589589,-0.00238521,-0.0026
 2363,0.00008889,0.00000056,0.00000944,-0.00004512,-0.00003729,-0.00002
 041,0.00001147,-0.00007872,0.00002797,0.00010663,0.00009904,0.00003422
 ,-0.00019393,-0.00023994,0.00027383,-0.00011892,0.00003480,-0.00005122
 ,-0.00000443,-0.00000271,-0.00000607,-0.00003555,-0.00000806,-0.000000
 65,-0.00000440,0.00001885,0.00000065,-0.00007619,0.00014624,0.00007901
 ,0.00001041,0.00016263,0.00004543,-0.00015952,-0.00012734,0.00015800,0
 .00198554,0.00024277,-0.00041586,-0.00045293,-0.00018656,0.00106992,0.
 00246708,-0.00091579,0.05710646,0.00002170,0.00001024,0.00001299,0.000
 05696,-0.00002101,-0.00000111,-0.00006483,0.00011844,-0.00001742,-0.00
 006556,0.00029881,-0.00014091,0.00026061,-0.00066575,-0.00044689,-0.00
 051297,-0.00017151,0.00023393,0.00081117,-0.00010342,0.00028466,-0.000
 19717,0.00004382,-0.00011139,-0.00002110,-0.00003059,0.00003612,-0.000
 40109,-0.00006013,0.00068125,0.00039494,0.00059351,-0.00065171,0.00181
 022,0.01222595,0.00211117,-0.05677963,-0.04466664,-0.00783574,0.001934
 99,0.01462084,0.00197025,0.00000573,0.00000798,-0.00001547,0.00000156,
 0.00001614,0.00001822,0.00000671,0.00001788,-0.00000525,0.00002431,-0.
 00003332,-0.00006161,-0.00003416,0.00004344,-0.00003782,-0.00004021,0.
 00000292,-0.00001685,-0.00000989,-0.00000054,-0.00000960,-0.00002442,0
 .00000319,0.00001155,0.00000264,0.00001150,-0.00000156,-0.00121940,-0.
 00073241,0.00054354,0.00001558,0.00004589,-0.00021898,-0.00010280,0.00
 004339,0.00004584,0.00012184,-0.00020285,-0.00014588,0.00000643,0.0009
 0945,0.00231366,-0.00539640,-0.03195808,-0.00586671,0.05873597,-0.0000
 0596,0.00004799,0.00000582,0.00005921,-0.00019566,0.00008046,-0.000025
 94,0.00016285,-0.00002064,-0.00014066,0.00028627,-0.00016297,0.0004081
 8,-0.00160596,0.00002713,0.00006232,0.00068135,0.00162755,-0.00021021,
 0.00020450,-0.00037800,-0.00001371,0.00001520,0.00038496,0.00004906,0.
 00005578,-0.00000863,-0.00047427,-0.00073090,-0.00021568,-0.00052525,-
 0.00016957,0.00002495,-0.00125006,-0.00801626,-0.00327934,-0.04393489,
 -0.28573371,-0.04653358,-0.00317533,-0.01806593,-0.00232524,-0.0000028
 8,0.00000629,-0.00001274,0.00001683,0.00000993,0.00000268,0.00001240,0
 .00000730,-0.00000592,-0.00004597,-0.00003259,-0.00007224,-0.00012110,
 0.00011059,-0.00011705,0.00003922,0.00000575,-0.00000243,-0.00001104,-
 0.00000814,0.00002093,0.00000513,-0.00000857,-0.00001071,-0.00000160,-
 0.00000428,-0.00000254,-0.00038102,0.00050556,0.00084899,-0.00001932,0
 .00026976,0.00031212,0.00003156,-0.00002429,-0.00002523,0.00015265,0.0
 0011709,-0.00000631,0.00072326,0.00072950,-0.00141940,-0.00116376,-0.0
 0454576,-0.00061782,0.04817000,0.31509156,0.00000498,0.00006141,0.0000
 1633,-0.00003457,-0.00016314,0.00006771,0.00000427,0.00014953,-0.00002
 209,-0.00012791,0.00031424,-0.00019501,-0.00035596,-0.00265523,0.00092
 570,-0.00007129,0.00157223,0.00064548,0.00085975,0.00031184,-0.0007472
 0,-0.00021259,0.00001737,0.00032598,0.00006529,0.00008551,-0.00002403,
 0.00039767,0.00001187,-0.00032427,-0.00078902,0.00008051,0.00114939,-0
 .00624818,-0.03035414,-0.00681736,-0.00748669,-0.04534312,-0.05563759,
 0.00445313,0.02560413,0.00349964,0.00000093,0.00000815,-0.00001421,0.0
 0002682,0.00001319,-0.00000079,0.00002079,0.00001994,-0.00000708,-0.00
 010256,-0.00001422,-0.00011229,0.00007280,0.00037933,0.00012057,0.0000
 0157,0.00003134,-0.00002952,-0.00001729,-0.00001113,0.00002361,-0.0000
 1886,-0.00001629,-0.00000163,-0.00000360,-0.00000854,-0.00000315,0.000
 70553,0.00047363,0.00012354,-0.00006429,0.00019243,0.00020112,0.000241
 52,0.00004989,-0.00002778,-0.00013110,0.00019648,0.00008269,0.00225448
 ,-0.00123751,-0.00566041,-0.00014223,-0.00024645,-0.00025120,0.0082850
 6,0.04878973,0.06428280,-0.00002641,-0.00000271,-0.00000933,0.00003780
 ,0.00004114,0.00003728,-0.00000737,-0.00003595,-0.00000332,-0.00012164
 ,-0.00003546,-0.00002706,0.00004455,0.00012745,0.00024184,0.00006035,-
 0.00001101,-0.00015484,-0.00015009,0.00002602,0.00005335,0.00004150,-0
 .00000351,0.00000247,-0.00000330,-0.00000905,0.00000031,0.00003546,0.0
 0002019,-0.00009365,-0.00012372,0.00006640,0.00003276,0.00027229,-0.00
 044472,0.00060044,0.00203270,0.01382172,0.00263975,-0.05462453,-0.0409
 5087,-0.00733698,-0.00000134,-0.00000753,0.00000256,0.00000303,-0.0000
 0500,-0.00001010,-0.00000104,-0.00000114,-0.00000196,0.00001278,0.0000
 0038,0.00001688,-0.00000319,-0.00001438,0.00000985,-0.00000381,0.00000
 322,-0.00000350,0.00000273,-0.00000014,-0.00000040,0.00000265,-0.00000
 008,-0.00000289,-0.00000149,0.00000265,0.00000098,-0.00005037,0.000087
 51,-0.00005312,0.00001759,-0.00000400,-0.00002314,-0.00002621,-0.00016
 230,-0.00007908,0.00007418,-0.00002084,0.00008091,0.00016012,-0.000249
 01,-0.00004547,0.00044334,0.00000894,0.00077863,-0.00021703,0.00168210
 ,-0.00237443,0.05468906,0.00005194,0.00003461,0.00005351,-0.00017010,-
 0.00012140,-0.00012805,0.00002706,0.00008260,0.00003166,0.00015882,0.0
 0010505,0.00018318,0.00010761,-0.00002409,0.00000329,-0.00006151,0.000
 34026,0.00014622,0.00005990,0.00008012,-0.00019078,-0.00005875,-0.0000
 1414,0.00016880,0.00005500,0.00003971,-0.00003015,0.00003584,-0.000100
 86,-0.00020579,-0.00007640,0.00009343,0.00027396,-0.00014195,0.0005112
 3,-0.00165802,-0.00283770,-0.01914801,-0.00269406,-0.04056526,-0.28962
 599,-0.04488249,0.00001071,0.00001038,-0.00000543,0.00000343,0.0000019
 5,0.00000464,0.00000528,-0.00000169,0.00000148,-0.00002190,-0.00000140
 ,-0.00004562,0.00002574,-0.00003041,0.00006800,0.00000238,0.00001036,-
 0.00000522,-0.00000503,-0.00000269,0.00001387,-0.00000732,-0.00000606,
 -0.00000472,-0.00000569,-0.00000705,-0.00000145,0.00005876,0.00012414,
 0.00006077,-0.00001616,0.00004006,0.00005596,-0.00007655,-0.00017714,-
 0.00001792,-0.00006654,-0.00002366,0.00008628,-0.00013420,0.00060144,0
 .00108724,0.00027128,0.00067506,-0.00023600,0.00218170,-0.00056139,0.0
 0319939,0.04319305,0.31812324,0.00000937,-0.00000938,-0.00000843,0.000
 00493,0.00003760,-0.00002368,0.00000843,-0.00003030,-0.00000055,0.0000
 3679,-0.00007308,-0.00003358,-0.00029175,0.00030412,0.00029168,0.00009
 228,-0.00024879,-0.00028729,-0.00012801,-0.00003040,0.00007338,0.00003
 156,-0.00001821,-0.00003699,0.00000211,-0.00000308,-0.00000713,-0.0000
 3154,0.00006057,0.00010912,0.00004487,-0.00009428,-0.00009765,0.000486
 45,0.00133094,0.00218994,0.00468396,0.02530082,0.00353554,-0.00722196,
 -0.04539218,-0.05505478,-0.00000129,-0.00000310,0.00000553,-0.00001031
 ,-0.00000169,0.00000073,-0.00000543,-0.00000016,0.00000159,0.00000185,
 0.00000781,0.00001481,0.00003950,-0.00004548,0.00001618,-0.00000101,-0
 .00001574,0.00001098,0.00000277,0.00000200,-0.00000119,0.00000328,0.00
 000148,-0.00000078,-0.00000103,-0.00000248,0.00000033,-0.00006837,-0.0
 0007688,-0.00003445,0.00000668,-0.00005046,-0.00004480,0.00004478,-0.0
 0000278,0.00002306,0.00004703,-0.00001255,-0.00000854,-0.00011832,-0.0
 0072447,-0.00023319,0.00031552,-0.00089871,0.00089776,-0.00219936,0.00
 315592,-0.00351997,0.00998055,0.04689228,0.05837332,-0.00001075,0.0000
 0528,0.00000492,0.00001463,0.00000406,0.00000337,-0.00000561,-0.000006
 11,0.00000898,0.00003672,-0.00001889,0.00012925,0.00059748,-0.00033072
 ,-0.00073756,0.00007934,0.00014226,0.00002785,-0.00024941,-0.00007537,
 -0.00006941,0.00003213,-0.00002766,0.00005011,0.00001706,0.00002607,-0
 .00001861,0.00019490,0.00005351,0.00014269,-0.00052504,0.00023252,-0.0
 0015331,-0.00125289,0.00207639,-0.00205890,0.00541133,-0.00375175,-0.0
 1357064,-0.09542717,0.02649477,0.10038423,0.00000050,-0.00000203,0.000
 00026,0.00000292,-0.00000235,-0.00000335,0.00000016,0.00000059,-0.0000
 0017,-0.00000041,-0.00000369,-0.00000207,-0.00015066,0.00011467,-0.000
 22623,0.00004496,-0.00003022,0.00003581,-0.00000023,-0.00000021,0.0000
 0451,0.00000694,0.00000134,-0.00000223,0.00000129,-0.00000750,0.000000
 06,-0.00001533,0.00002960,-0.00001438,0.00000394,0.00001147,0.00000110
 ,0.00057172,-0.00024399,0.00006374,0.00019208,-0.00010724,0.00013988,-
 0.00011132,0.00011197,0.00020434,0.00076143,-0.00065166,0.00018092,0.0
 0022236,-0.00029748,0.00065801,0.00189535,-0.00140231,-0.00591757,0.10
 147707,0.00001720,-0.00000496,0.00001772,-0.00006222,0.00000236,-0.000
 08492,0.00003123,-0.00001283,0.00000182,0.00009440,-0.00000906,-0.0000
 7013,-0.00057045,0.00088809,0.00105554,-0.00006734,-0.00001746,-0.0001
 4333,0.00008545,0.00005951,-0.00001299,-0.00003971,-0.00003120,0.00001
 038,0.00002364,0.00001669,-0.00001704,-0.00000032,0.00007138,0.0000145
 7,0.00032385,0.00006889,0.00006096,0.00185357,-0.00252639,0.00195190,-
 0.00887637,0.00411543,0.01791553,0.02661841,-0.06114567,-0.05515812,0.
 00000266,0.00000433,0.00000244,0.00000238,-0.00000212,-0.00000114,-0.0
 0000511,0.00000147,0.00000216,-0.00001380,0.00002039,0.00000276,0.0002
 4223,-0.00024158,0.00027357,-0.00001467,-0.00001854,0.00000961,-0.0000
 0077,-0.00000100,0.00000263,-0.00000708,-0.00000220,0.00000015,-0.0000
 0321,-0.00000675,0.00000128,-0.00000485,0.00001536,-0.00001087,-0.0000
 1267,-0.00001725,-0.00000350,-0.00006811,-0.00009735,-0.00013199,-0.00
 004357,0.00000135,0.00001711,0.00011785,0.00033500,0.00029363,-0.00020
 890,0.00068872,-0.00083570,-0.00063976,0.00055725,-0.00055775,0.014685
 17,-0.00692305,-0.02745329,-0.03076319,0.06373199,-0.00011450,-0.00000
 486,-0.00005727,0.00027559,-0.00000261,0.00034576,-0.00011195,0.000035
 56,-0.00004755,-0.00046393,0.00004754,-0.00006720,0.00159132,-0.001246
 16,-0.00106077,0.00010598,0.00050641,-0.00005245,-0.00035061,-0.000166
 44,0.00018254,0.00015371,0.00009580,-0.00014702,-0.00010385,-0.0000894
 3,0.00006840,0.00007322,-0.00011954,-0.00006314,-0.00064009,-0.0000250
 0,0.00020978,-0.00312515,0.00423555,-0.00192111,0.01017833,-0.00629250
 ,-0.02092190,0.09921415,-0.05434462,-0.24541765,-0.00001359,-0.0000083
 6,-0.00001599,0.00002294,0.00000062,-0.00000817,0.00001731,-0.00000856
 ,-0.00001190,0.00007609,-0.00005350,0.00003216,-0.00036222,0.00030378,
 -0.00038699,0.00002871,0.00005133,-0.00002852,0.00000688,0.00000161,-0
 .00001695,0.00001895,0.00000818,0.00000183,0.00000906,0.00002891,0.000
 00005,-0.00001867,0.00001876,0.00000902,0.00005234,0.00006212,-0.00000
 685,0.00006862,-0.00004365,0.00007747,0.00009684,-0.00001700,-0.000008
 50,-0.00008668,0.00006375,0.00038765,-0.00030792,-0.00063564,0.0008559
 6,0.00032638,0.00032576,0.00085579,0.00214283,-0.00121418,-0.00466919,
 -0.10743745,0.05752437,0.26881550,-0.00001980,-0.00000834,-0.00005717,
 0.00021172,-0.00007890,0.00017506,-0.00002976,0.00007544,-0.00006987,0
 .00008838,0.00002039,-0.00034528,-0.00020237,-0.00027143,0.00005120,0.
 00035712,0.00028184,-0.00007271,-0.00054265,-0.00008724,-0.00003012,0.
 00013541,-0.00002126,0.00001805,-0.00001910,0.00000106,-0.00001262,0.0
 0031647,0.00004853,0.00004787,-0.00079283,0.00011283,0.00023428,-0.000
 40342,0.00023713,0.00080995,-0.01220922,-0.00146991,-0.00140491,-0.298
 05697,-0.03866370,-0.02334705,-0.00002016,0.00000734,-0.00000356,0.000
 00484,0.00001208,0.00001086,0.00000164,0.00000251,-0.00000128,-0.00002
 249,-0.00002003,0.00000376,-0.00002929,0.00005524,-0.00013231,0.000064
 10,-0.00001951,0.00003414,0.00000410,0.00000166,0.00000174,0.00002161,
 0.00000201,-0.00000220,0.00000153,-0.00000211,0.00000013,-0.00007261,0
 .00009982,-0.00008548,0.00002528,0.00002349,0.00000456,0.00058877,-0.0
 0051142,0.00105760,0.00037345,-0.00008227,0.00017509,0.00002673,0.0000
 0670,-0.00003685,0.00082758,0.00201372,-0.00193403,0.00065292,0.000388
 54,0.00012797,-0.00446393,-0.00060110,0.00015324,-0.01381553,-0.002695
 95,-0.00132263,0.32699851,0.00003944,0.00000797,0.00004694,-0.00019008
 ,0.00000993,-0.00011926,0.00002544,-0.00001488,0.00004156,0.00006171,-
 0.00002413,0.00035752,0.00033242,0.00008249,-0.00022098,-0.00016603,-0
 .00009270,-0.00003104,0.00020119,-0.00008343,0.00001660,-0.00005118,0.
 00000448,-0.00008691,-0.00001164,-0.00000525,0.00000484,-0.00000922,0.
 00012503,0.00019143,-0.00035934,0.00028550,0.00017480,-0.00044588,0.00
 023101,-0.00073795,0.02050244,0.00280528,0.00101530,-0.03910371,-0.053
 65493,-0.00385901,0.00001379,0.00000418,-0.00000304,-0.00000427,-0.000
 00278,0.00000319,0.00000092,-0.00000624,0.00000291,0.00001161,0.000010
 91,-0.00000146,-0.00003211,0.00000508,0.00000524,-0.00000294,-0.000013
 82,0.00001259,-0.00000070,0.00000119,-0.00000372,-0.00000336,0.0000023
 7,0.00000544,0.00000236,-0.00000083,0.00000019,0.00003871,-0.00021334,
 -0.00003752,-0.00000978,-0.00000271,-0.00003850,0.00007114,0.00021353,
 0.00018446,-0.00005349,-0.00004806,-0.00003391,-0.00006936,0.00004165,
 0.00011255,0.00153849,-0.00160306,0.00351357,-0.00007907,0.00083849,-0
 .00095463,-0.03180824,-0.00410463,-0.00190603,0.00841787,0.00047924,0.
 00096199,0.04114286,0.05472244,-0.00001932,-0.00000932,-0.00003912,0.0
 0020519,-0.00006139,0.00006560,-0.00001157,0.00004527,-0.00004741,0.00
 021743,0.00000965,-0.00034108,-0.00048784,0.00011154,0.00012980,0.0002
 5369,0.00012237,-0.00002856,-0.00040448,-0.00003974,-0.00010172,0.0000
 6152,-0.00006358,0.00009727,0.00003567,0.00004458,-0.00004141,0.000251
 20,0.00011516,0.00012612,-0.00018026,0.00046278,-0.00078321,-0.0006440
 9,-0.00070986,0.00129117,-0.02500716,-0.00466204,-0.00180897,-0.022629
 03,-0.00354877,-0.04887517,-0.00001810,0.00000570,0.00000485,0.0000060
 7,0.00000583,0.00000359,-0.00000408,0.00000802,0.00000089,-0.00003428,
 -0.00000562,-0.00000564,0.00003179,-0.00000819,-0.00003285,0.00005809,
 -0.00004666,0.00004681,0.00000030,0.00000035,0.00000838,0.00001080,0.0
 0000022,-0.00000347,-0.00000108,-0.00001541,0.00000056,-0.00002946,0.0
 0007218,-0.00003743,-0.00000117,-0.00000912,0.00000985,0.00117760,-0.0
 0012433,-0.00131553,0.00018213,-0.00017005,0.00029408,0.00001058,0.000
 01921,-0.00011850,-0.00166207,0.00314691,-0.00338005,0.00090966,-0.000
 39052,0.00107522,-0.00640215,-0.00101066,-0.00148178,0.02817184,0.0053
 2264,0.00306723,0.02595258,0.00138283,0.05222049\\0.00000004,0.0000024
 6,0.00000062,0.00000119,-0.00001174,0.00000884,-0.00000809,0.00001047,
 -0.00000241,-0.00000693,0.00000071,-0.00000842,0.00000848,0.00000659,0
 .00000586,-0.00000223,-0.00000085,0.00000087,0.00000355,-0.00000637,0.
 00000333,-0.00000063,0.00000356,-0.00000444,-0.00000003,-0.00000075,-0
 .00000068,-0.00000160,0.00000342,0.00000159,-0.00000412,-0.00000096,0.
 ,0.00000259,-0.00000323,0.00000004,-0.00000095,-0.00000016,-0.00000011
 ,0.00000154,0.00000014,-0.00000212,0.00000016,-0.00000067,0.00000055,-
 0.00000028,-0.00000112,-0.00000077,0.00000303,-0.00000060,-0.00000198,
 0.00000206,0.00000048,0.00000002,-0.00000140,-0.00000134,-0.00000104,-
 0.00000270,-0.00000095,-0.00000059,-0.00000015,0.00000061,-0.00000025,
 0.00000007,0.00000048,-0.00000108,0.00000025,0.00000060,-0.00000025,0.
 00000142,-0.00000103,0.00000136,-0.00000011,0.00000028,-0.00000009,0.0
 0000081,0.00000105,0.00000208,0.00000072,-0.00000076,0.00000079,-0.000
 00038,0.00000033,0.00000081,-0.00000013,0.00000014,-0.00000139,0.00000
 141,-0.00000048,-0.00000077,0.00000045,0.00000002,0.00000013,0.0000000
 3,0.00000022,-0.00000047,0.00000191,-0.00000054,-0.00000005\\\@


 ERWIN WITH HIS PSI CAN DO
 CALCULATIONS QUITE A FEW.
 BUT ONE THING HAS NOT BEEN SEEN
 JUST WHAT DOES PSI REALLY MEAN.
 -- WALTER HUCKEL, TRANS. BY FELIX BLOCH
 Job cpu time:       0 days  9 hours 52 minutes 10.6 seconds.
 Elapsed time:       0 days  2 hours 31 minutes 45.1 seconds.
 File lengths (MBytes):  RWF=    586 Int=      0 D2E=      0 Chk=     20 Scr=      1
 Normal termination of Gaussian 16 at Wed May 24 00:03:21 2023.
### All Done ###
