### Starting Gaussian ###
 Entering Gaussian System, Link 0=g16
 Initial command:
 /cluster/software/gaussian/gaussian-16-A.03/avx2/g16/l1.exe "/local/scratch/linjian/Gau-21274.inp" -scrdir="/local/scratch/linjian/"
 Entering Link 1 = /cluster/software/gaussian/gaussian-16-A.03/avx2/g16/l1.exe PID=     21275.
  
 Copyright (c) 1988,1990,1992,1993,1995,1998,2003,2009,2016,
            Gaussian, Inc.  All Rights Reserved.
  
 This is part of the Gaussian(R) 16 program.  It is based on
 the Gaussian(R) 09 system (copyright 2009, Gaussian, Inc.),
 the Gaussian(R) 03 system (copyright 2003, Gaussian, Inc.),
 the Gaussian(R) 98 system (copyright 1998, Gaussian, Inc.),
 the Gaussian(R) 94 system (copyright 1995, Gaussian, Inc.),
 the Gaussian 92(TM) system (copyright 1992, Gaussian, Inc.),
 the Gaussian 90(TM) system (copyright 1990, Gaussian, Inc.),
 the Gaussian 88(TM) system (copyright 1988, Gaussian, Inc.),
 the Gaussian 86(TM) system (copyright 1986, Carnegie Mellon
 University), and the Gaussian 82(TM) system (copyright 1983,
 Carnegie Mellon University). Gaussian is a federally registered
 trademark of Gaussian, Inc.
  
 This software contains proprietary and confidential information,
 including trade secrets, belonging to Gaussian, Inc.
  
 This software is provided under written license and may be
 used, copied, transmitted, or stored only in accord with that
 written license.
  
 The following legend is applicable only to US Government
 contracts under FAR:
  
                    RESTRICTED RIGHTS LEGEND
  
 Use, reproduction and disclosure by the US Government is
 subject to restrictions as set forth in subparagraphs (a)
 and (c) of the Commercial Computer Software - Restricted
 Rights clause in FAR 52.227-19.
  
 Gaussian, Inc.
 340 Quinnipiac St., Bldg. 40, Wallingford CT 06492
  
  
 ---------------------------------------------------------------
 Warning -- This program may not be used in any manner that
 competes with the business of Gaussian, Inc. or will provide
 assistance to any competitor of Gaussian, Inc.  The licensee
 of this program is prohibited from giving any competitor of
 Gaussian, Inc. access to this program.  By using this program,
 the user acknowledges that Gaussian, Inc. is engaged in the
 business of creating and licensing software in the field of
 computational chemistry and represents and warrants to the
 licensee that it is not a competitor of Gaussian, Inc. and that
 it will not use this program in any manner prohibited above.
 ---------------------------------------------------------------
  

 Cite this work as:
 Gaussian 16, Revision A.03,
 M. J. Frisch, G. W. Trucks, H. B. Schlegel, G. E. Scuseria, 
 M. A. Robb, J. R. Cheeseman, G. Scalmani, V. Barone, 
 G. A. Petersson, H. Nakatsuji, X. Li, M. Caricato, A. V. Marenich, 
 J. Bloino, B. G. Janesko, R. Gomperts, B. Mennucci, H. P. Hratchian, 
 J. V. Ortiz, A. F. Izmaylov, J. L. Sonnenberg, D. Williams-Young, 
 F. Ding, F. Lipparini, F. Egidi, J. Goings, B. Peng, A. Petrone, 
 T. Henderson, D. Ranasinghe, V. G. Zakrzewski, J. Gao, N. Rega, 
 G. Zheng, W. Liang, M. Hada, M. Ehara, K. Toyota, R. Fukuda, 
 J. Hasegawa, M. Ishida, T. Nakajima, Y. Honda, O. Kitao, H. Nakai, 
 T. Vreven, K. Throssell, J. A. Montgomery, Jr., J. E. Peralta, 
 F. Ogliaro, M. J. Bearpark, J. J. Heyd, E. N. Brothers, K. N. Kudin, 
 V. N. Staroverov, T. A. Keith, R. Kobayashi, J. Normand, 
 K. Raghavachari, A. P. Rendell, J. C. Burant, S. S. Iyengar, 
 J. Tomasi, M. Cossi, J. M. Millam, M. Klene, C. Adamo, R. Cammi, 
 J. W. Ochterski, R. L. Martin, K. Morokuma, O. Farkas, 
 J. B. Foresman, and D. J. Fox, Gaussian, Inc., Wallingford CT, 2016.
 
 ******************************************
 Gaussian 16:  ES64L-G16RevA.03 25-Dec-2016
                23-May-2023 
 ******************************************
 %chk=CdCqCrCCdC1SC2dCCdCqCC1CrC2CCC.chk
 %NProcShared=20
 Will use up to   20 processors via shared memory.
 -----------------------------
 # opt freq b3lyp/6-31g(2df,p)
 -----------------------------
 1/18=20,19=15,26=3,38=1/1,3;
 2/9=110,12=2,17=6,18=5,40=1/2;
 3/5=1,6=6,7=104,11=2,25=1,30=1,71=1,74=-5/1,2,3;
 4//1;
 5/5=2,38=5/2;
 6/7=2,8=2,9=2,10=2,28=1/1;
 7//1,2,3,16;
 1/18=20,19=15,26=3/3(2);
 2/9=110/2;
 99//99;
 2/9=110/2;
 3/5=1,6=6,7=104,11=2,25=1,30=1,71=1,74=-5/1,2,3;
 4/5=5,16=3,69=1/1;
 5/5=2,38=5/2;
 7//1,2,3,16;
 1/18=20,19=15,26=3/3(-5);
 2/9=110/2;
 6/7=2,8=2,9=2,10=2,19=2,28=1/1;
 99/9=1/99;
 -------------------
 Title Card Required
 -------------------
 Symbolic Z-matrix:
 Charge =  0 Multiplicity = 1
 C                     0.98377   0.04971  -0.14323 
 C                     2.32435   0.01334  -0.19941 
 C                     3.08157   0.35183  -1.44698 
 C                     3.05401  -0.30986   1.0692 
 C                     4.53832  -0.30767   0.99634 
 C                     5.36647  -0.6834    1.98301 
 S                     4.69972  -1.43007   3.67044 
 C                     4.50158   0.13089   4.77914 
 C                     5.38002   0.56904   5.76197 
 C                     6.65534   0.92213   5.15639 
 C                     6.37493   1.07762   3.91275 
 C                     7.28883  -0.13573   3.20642 
 C                     6.86182  -0.32967   1.80163 
 C                     7.38694   0.99612   1.15768 
 C                     4.58873   1.28431   3.85344 
 C                     3.62969   2.5033    4.53929 
 C                     2.04669   2.7173    4.4353 
 C                     1.66303   4.02526   5.20643 
 H                     0.38375   0.29706  -1.00811 
 H                     0.46434  -0.1566    0.79099 
 H                     2.41311   0.55824  -2.2853 
 H                     3.7313   -0.4825   -1.73047 
 H                     3.69874   1.24606  -1.29399 
 H                     2.72263  -1.27144   1.46785 
 H                     2.73692   0.48017   1.75562 
 H                     5.0077    0.14145   0.12298 
 H                     5.24327   1.61069   6.15861 
 H                     7.58283   0.5109    5.61354 
 H                     7.21964  -1.12434   3.71321 
 H                     8.37304   0.04889   3.26813 
 H                     7.36088  -1.15869   1.26949 
 H                     7.16916   1.87526   1.77872 
 H                     7.02049   1.21424   0.15901 
 H                     8.49059   0.96875   1.12117 
 H                     4.03599   0.99007   2.9848 
 H                     4.08182   3.44981   4.25215 
 H                     3.66835   2.40545   5.62777 
 H                     1.46444   1.91034   4.90935 
 H                     1.68359   2.82105   3.40731 
 H                     1.88962   3.94412   6.27828 
 H                     0.59592   4.27996   5.13211 
 H                     2.22462   4.88148   4.81721 
 

 GradGradGradGradGradGradGradGradGradGradGradGradGradGradGradGradGradGrad
 Berny optimization.
 Initialization pass.
                           ----------------------------
                           !    Initial Parameters    !
                           ! (Angstroms and Degrees)  !
 --------------------------                            --------------------------
 ! Name  Definition              Value          Derivative Info.                !
 --------------------------------------------------------------------------------
 ! R1    R(1,2)                  1.3422         estimate D2E/DX2                !
 ! R2    R(1,19)                 1.0813         estimate D2E/DX2                !
 ! R3    R(1,20)                 1.0886         estimate D2E/DX2                !
 ! R4    R(2,3)                  1.4981         estimate D2E/DX2                !
 ! R5    R(2,4)                  1.4987         estimate D2E/DX2                !
 ! R6    R(3,21)                 1.0919         estimate D2E/DX2                !
 ! R7    R(3,22)                 1.0948         estimate D2E/DX2                !
 ! R8    R(3,23)                 1.0972         estimate D2E/DX2                !
 ! R9    R(4,5)                  1.4861         estimate D2E/DX2                !
 ! R10   R(4,24)                 1.0924         estimate D2E/DX2                !
 ! R11   R(4,25)                 1.0936         estimate D2E/DX2                !
 ! R12   R(5,6)                  1.3418         estimate D2E/DX2                !
 ! R13   R(5,26)                 1.0885         estimate D2E/DX2                !
 ! R14   R(6,7)                  1.962          estimate D2E/DX2                !
 ! R15   R(6,13)                 1.5473         estimate D2E/DX2                !
 ! R16   R(7,8)                  1.9249         estimate D2E/DX2                !
 ! R17   R(8,9)                  1.3891         estimate D2E/DX2                !
 ! R18   R(8,15)                 1.4815         estimate D2E/DX2                !
 ! R19   R(9,10)                 1.4553         estimate D2E/DX2                !
 ! R20   R(9,27)                 1.123          estimate D2E/DX2                !
 ! R21   R(10,11)                1.2843         estimate D2E/DX2                !
 ! R22   R(10,28)                1.1128         estimate D2E/DX2                !
 ! R23   R(11,12)                1.6752         estimate D2E/DX2                !
 ! R24   R(11,15)                1.7991         estimate D2E/DX2                !
 ! R25   R(12,13)                1.481          estimate D2E/DX2                !
 ! R26   R(12,29)                1.1131         estimate D2E/DX2                !
 ! R27   R(12,30)                1.1015         estimate D2E/DX2                !
 ! R28   R(13,14)                1.5647         estimate D2E/DX2                !
 ! R29   R(13,31)                1.1043         estimate D2E/DX2                !
 ! R30   R(14,32)                1.0982         estimate D2E/DX2                !
 ! R31   R(14,33)                1.0859         estimate D2E/DX2                !
 ! R32   R(14,34)                1.1046         estimate D2E/DX2                !
 ! R33   R(15,16)                1.6959         estimate D2E/DX2                !
 ! R34   R(15,35)                1.0708         estimate D2E/DX2                !
 ! R35   R(16,17)                1.6008         estimate D2E/DX2                !
 ! R36   R(16,36)                1.0875         estimate D2E/DX2                !
 ! R37   R(16,37)                1.0936         estimate D2E/DX2                !
 ! R38   R(17,18)                1.5661         estimate D2E/DX2                !
 ! R39   R(17,38)                1.1022         estimate D2E/DX2                !
 ! R40   R(17,39)                1.0952         estimate D2E/DX2                !
 ! R41   R(18,40)                1.0985         estimate D2E/DX2                !
 ! R42   R(18,41)                1.0996         estimate D2E/DX2                !
 ! R43   R(18,42)                1.0954         estimate D2E/DX2                !
 ! A1    A(2,1,19)             121.7985         estimate D2E/DX2                !
 ! A2    A(2,1,20)             120.4859         estimate D2E/DX2                !
 ! A3    A(19,1,20)            117.7088         estimate D2E/DX2                !
 ! A4    A(1,2,3)              122.2455         estimate D2E/DX2                !
 ! A5    A(1,2,4)              117.1716         estimate D2E/DX2                !
 ! A6    A(3,2,4)              120.4996         estimate D2E/DX2                !
 ! A7    A(2,3,21)             111.8784         estimate D2E/DX2                !
 ! A8    A(2,3,22)             110.0847         estimate D2E/DX2                !
 ! A9    A(2,3,23)             110.6295         estimate D2E/DX2                !
 ! A10   A(21,3,22)            107.9734         estimate D2E/DX2                !
 ! A11   A(21,3,23)            107.2976         estimate D2E/DX2                !
 ! A12   A(22,3,23)            108.8669         estimate D2E/DX2                !
 ! A13   A(2,4,5)              116.3878         estimate D2E/DX2                !
 ! A14   A(2,4,24)             110.5502         estimate D2E/DX2                !
 ! A15   A(2,4,25)             103.5534         estimate D2E/DX2                !
 ! A16   A(5,4,24)             108.7942         estimate D2E/DX2                !
 ! A17   A(5,4,25)             108.622          estimate D2E/DX2                !
 ! A18   A(24,4,25)            108.5962         estimate D2E/DX2                !
 ! A19   A(4,5,6)              125.4485         estimate D2E/DX2                !
 ! A20   A(4,5,26)             118.0767         estimate D2E/DX2                !
 ! A21   A(6,5,26)             116.0647         estimate D2E/DX2                !
 ! A22   A(5,6,7)              121.9537         estimate D2E/DX2                !
 ! A23   A(5,6,13)             116.5033         estimate D2E/DX2                !
 ! A24   A(7,6,13)             121.0806         estimate D2E/DX2                !
 ! A25   A(6,7,8)              102.8116         estimate D2E/DX2                !
 ! A26   A(7,8,9)              126.743          estimate D2E/DX2                !
 ! A27   A(7,8,15)             105.3909         estimate D2E/DX2                !
 ! A28   A(9,8,15)              99.1675         estimate D2E/DX2                !
 ! A29   A(8,9,10)             109.6509         estimate D2E/DX2                !
 ! A30   A(8,9,27)             117.7411         estimate D2E/DX2                !
 ! A31   A(10,9,27)             91.6411         estimate D2E/DX2                !
 ! A32   A(9,10,11)            103.9448         estimate D2E/DX2                !
 ! A33   A(9,10,28)            118.0209         estimate D2E/DX2                !
 ! A34   A(11,10,28)           128.6467         estimate D2E/DX2                !
 ! A35   A(10,11,12)           101.6237         estimate D2E/DX2                !
 ! A36   A(10,11,15)           105.2245         estimate D2E/DX2                !
 ! A37   A(12,11,15)           127.6578         estimate D2E/DX2                !
 ! A38   A(11,12,13)           109.7241         estimate D2E/DX2                !
 ! A39   A(11,12,29)           114.6714         estimate D2E/DX2                !
 ! A40   A(11,12,30)           113.0755         estimate D2E/DX2                !
 ! A41   A(13,12,29)           107.3159         estimate D2E/DX2                !
 ! A42   A(13,12,30)           111.0309         estimate D2E/DX2                !
 ! A43   A(29,12,30)           100.6339         estimate D2E/DX2                !
 ! A44   A(6,13,12)            101.3845         estimate D2E/DX2                !
 ! A45   A(6,13,14)            124.4931         estimate D2E/DX2                !
 ! A46   A(6,13,31)            108.7606         estimate D2E/DX2                !
 ! A47   A(12,13,14)           100.5244         estimate D2E/DX2                !
 ! A48   A(12,13,31)           115.1559         estimate D2E/DX2                !
 ! A49   A(14,13,31)           106.6255         estimate D2E/DX2                !
 ! A50   A(13,14,32)           112.2735         estimate D2E/DX2                !
 ! A51   A(13,14,33)           115.8133         estimate D2E/DX2                !
 ! A52   A(13,14,34)           109.1435         estimate D2E/DX2                !
 ! A53   A(32,14,33)           106.9994         estimate D2E/DX2                !
 ! A54   A(32,14,34)           103.69           estimate D2E/DX2                !
 ! A55   A(33,14,34)           108.1647         estimate D2E/DX2                !
 ! A56   A(8,15,11)             87.04           estimate D2E/DX2                !
 ! A57   A(8,15,16)            105.8813         estimate D2E/DX2                !
 ! A58   A(8,15,35)            105.2226         estimate D2E/DX2                !
 ! A59   A(11,15,16)           129.1015         estimate D2E/DX2                !
 ! A60   A(11,15,35)           120.5082         estimate D2E/DX2                !
 ! A61   A(16,15,35)           103.5129         estimate D2E/DX2                !
 ! A62   A(15,16,17)           128.9795         estimate D2E/DX2                !
 ! A63   A(15,16,36)           106.4809         estimate D2E/DX2                !
 ! A64   A(15,16,37)           108.556          estimate D2E/DX2                !
 ! A65   A(17,16,36)           106.118          estimate D2E/DX2                !
 ! A66   A(17,16,37)            96.4066         estimate D2E/DX2                !
 ! A67   A(36,16,37)           109.0249         estimate D2E/DX2                !
 ! A68   A(16,17,18)           108.7794         estimate D2E/DX2                !
 ! A69   A(16,17,38)           113.3637         estimate D2E/DX2                !
 ! A70   A(16,17,39)           113.6726         estimate D2E/DX2                !
 ! A71   A(18,17,38)           105.6802         estimate D2E/DX2                !
 ! A72   A(18,17,39)           107.5689         estimate D2E/DX2                !
 ! A73   A(38,17,39)           107.3327         estimate D2E/DX2                !
 ! A74   A(17,18,40)           111.6055         estimate D2E/DX2                !
 ! A75   A(17,18,41)           113.448          estimate D2E/DX2                !
 ! A76   A(17,18,42)           110.6251         estimate D2E/DX2                !
 ! A77   A(40,18,41)           106.4528         estimate D2E/DX2                !
 ! A78   A(40,18,42)           107.3774         estimate D2E/DX2                !
 ! A79   A(41,18,42)           107.0048         estimate D2E/DX2                !
 ! D1    D(19,1,2,3)             1.8974         estimate D2E/DX2                !
 ! D2    D(19,1,2,4)           178.591          estimate D2E/DX2                !
 ! D3    D(20,1,2,3)          -177.1283         estimate D2E/DX2                !
 ! D4    D(20,1,2,4)            -0.4347         estimate D2E/DX2                !
 ! D5    D(1,2,3,21)            -3.6633         estimate D2E/DX2                !
 ! D6    D(1,2,3,22)          -123.7219         estimate D2E/DX2                !
 ! D7    D(1,2,3,23)           115.9102         estimate D2E/DX2                !
 ! D8    D(4,2,3,21)           179.7508         estimate D2E/DX2                !
 ! D9    D(4,2,3,22)            59.6922         estimate D2E/DX2                !
 ! D10   D(4,2,3,23)           -60.6758         estimate D2E/DX2                !
 ! D11   D(1,2,4,5)           -178.3256         estimate D2E/DX2                !
 ! D12   D(1,2,4,24)            56.9188         estimate D2E/DX2                !
 ! D13   D(1,2,4,25)           -59.2294         estimate D2E/DX2                !
 ! D14   D(3,2,4,5)             -1.5711         estimate D2E/DX2                !
 ! D15   D(3,2,4,24)          -126.3267         estimate D2E/DX2                !
 ! D16   D(3,2,4,25)           117.5251         estimate D2E/DX2                !
 ! D17   D(2,4,5,6)           -173.8047         estimate D2E/DX2                !
 ! D18   D(2,4,5,26)            13.8579         estimate D2E/DX2                !
 ! D19   D(24,4,5,6)           -48.1592         estimate D2E/DX2                !
 ! D20   D(24,4,5,26)          139.5035         estimate D2E/DX2                !
 ! D21   D(25,4,5,6)            69.8842         estimate D2E/DX2                !
 ! D22   D(25,4,5,26)         -102.4531         estimate D2E/DX2                !
 ! D23   D(4,5,6,7)              4.4802         estimate D2E/DX2                !
 ! D24   D(4,5,6,13)          -167.7931         estimate D2E/DX2                !
 ! D25   D(26,5,6,7)           176.9546         estimate D2E/DX2                !
 ! D26   D(26,5,6,13)            4.6813         estimate D2E/DX2                !
 ! D27   D(5,6,7,8)            -91.0785         estimate D2E/DX2                !
 ! D28   D(13,6,7,8)            80.8455         estimate D2E/DX2                !
 ! D29   D(5,6,13,12)          148.8319         estimate D2E/DX2                !
 ! D30   D(5,6,13,14)           37.4603         estimate D2E/DX2                !
 ! D31   D(5,6,13,31)          -89.4099         estimate D2E/DX2                !
 ! D32   D(7,6,13,12)          -23.5137         estimate D2E/DX2                !
 ! D33   D(7,6,13,14)         -134.8853         estimate D2E/DX2                !
 ! D34   D(7,6,13,31)           98.2445         estimate D2E/DX2                !
 ! D35   D(6,7,8,9)           -100.39           estimate D2E/DX2                !
 ! D36   D(6,7,8,15)            13.9231         estimate D2E/DX2                !
 ! D37   D(7,8,9,10)            63.7046         estimate D2E/DX2                !
 ! D38   D(7,8,9,27)           166.5405         estimate D2E/DX2                !
 ! D39   D(15,8,9,10)          -53.4227         estimate D2E/DX2                !
 ! D40   D(15,8,9,27)           49.4132         estimate D2E/DX2                !
 ! D41   D(7,8,15,11)          -80.2733         estimate D2E/DX2                !
 ! D42   D(7,8,15,16)          149.7938         estimate D2E/DX2                !
 ! D43   D(7,8,15,35)           40.5742         estimate D2E/DX2                !
 ! D44   D(9,8,15,11)           52.0204         estimate D2E/DX2                !
 ! D45   D(9,8,15,16)          -77.9125         estimate D2E/DX2                !
 ! D46   D(9,8,15,35)          172.8679         estimate D2E/DX2                !
 ! D47   D(8,9,10,11)           18.6413         estimate D2E/DX2                !
 ! D48   D(8,9,10,28)         -130.7959         estimate D2E/DX2                !
 ! D49   D(27,9,10,11)        -101.6699         estimate D2E/DX2                !
 ! D50   D(27,9,10,28)         108.8929         estimate D2E/DX2                !
 ! D51   D(9,10,11,12)        -116.8426         estimate D2E/DX2                !
 ! D52   D(9,10,11,15)          17.7776         estimate D2E/DX2                !
 ! D53   D(28,10,11,12)         28.0762         estimate D2E/DX2                !
 ! D54   D(28,10,11,15)        162.6964         estimate D2E/DX2                !
 ! D55   D(10,11,12,13)        166.7826         estimate D2E/DX2                !
 ! D56   D(10,11,12,29)         45.9427         estimate D2E/DX2                !
 ! D57   D(10,11,12,30)        -68.6664         estimate D2E/DX2                !
 ! D58   D(15,11,12,13)         46.9549         estimate D2E/DX2                !
 ! D59   D(15,11,12,29)        -73.8849         estimate D2E/DX2                !
 ! D60   D(15,11,12,30)        171.5059         estimate D2E/DX2                !
 ! D61   D(10,11,15,8)         -45.7087         estimate D2E/DX2                !
 ! D62   D(10,11,15,16)         62.415          estimate D2E/DX2                !
 ! D63   D(10,11,15,35)       -151.6529         estimate D2E/DX2                !
 ! D64   D(12,11,15,8)          72.5715         estimate D2E/DX2                !
 ! D65   D(12,11,15,16)       -179.3048         estimate D2E/DX2                !
 ! D66   D(12,11,15,35)        -33.3727         estimate D2E/DX2                !
 ! D67   D(11,12,13,6)         -58.8252         estimate D2E/DX2                !
 ! D68   D(11,12,13,14)         69.8543         estimate D2E/DX2                !
 ! D69   D(11,12,13,31)       -176.0193         estimate D2E/DX2                !
 ! D70   D(29,12,13,6)          66.3626         estimate D2E/DX2                !
 ! D71   D(29,12,13,14)       -164.9578         estimate D2E/DX2                !
 ! D72   D(29,12,13,31)        -50.8315         estimate D2E/DX2                !
 ! D73   D(30,12,13,6)         175.4469         estimate D2E/DX2                !
 ! D74   D(30,12,13,14)        -55.8736         estimate D2E/DX2                !
 ! D75   D(30,12,13,31)         58.2528         estimate D2E/DX2                !
 ! D76   D(6,13,14,32)          67.6864         estimate D2E/DX2                !
 ! D77   D(6,13,14,33)         -55.6172         estimate D2E/DX2                !
 ! D78   D(6,13,14,34)        -177.9262         estimate D2E/DX2                !
 ! D79   D(12,13,14,32)        -44.1059         estimate D2E/DX2                !
 ! D80   D(12,13,14,33)       -167.4095         estimate D2E/DX2                !
 ! D81   D(12,13,14,34)         70.2814         estimate D2E/DX2                !
 ! D82   D(31,13,14,32)       -164.5497         estimate D2E/DX2                !
 ! D83   D(31,13,14,33)         72.1467         estimate D2E/DX2                !
 ! D84   D(31,13,14,34)        -50.1623         estimate D2E/DX2                !
 ! D85   D(8,15,16,17)         -83.4233         estimate D2E/DX2                !
 ! D86   D(8,15,16,36)         148.8551         estimate D2E/DX2                !
 ! D87   D(8,15,16,37)          31.6034         estimate D2E/DX2                !
 ! D88   D(11,15,16,17)        177.2513         estimate D2E/DX2                !
 ! D89   D(11,15,16,36)         49.5298         estimate D2E/DX2                !
 ! D90   D(11,15,16,37)        -67.7219         estimate D2E/DX2                !
 ! D91   D(35,15,16,17)         27.011          estimate D2E/DX2                !
 ! D92   D(35,15,16,36)       -100.7106         estimate D2E/DX2                !
 ! D93   D(35,15,16,37)        142.0377         estimate D2E/DX2                !
 ! D94   D(15,16,17,18)       -177.8792         estimate D2E/DX2                !
 ! D95   D(15,16,17,38)         64.8725         estimate D2E/DX2                !
 ! D96   D(15,16,17,39)        -58.0653         estimate D2E/DX2                !
 ! D97   D(36,16,17,18)        -50.0208         estimate D2E/DX2                !
 ! D98   D(36,16,17,38)       -167.2691         estimate D2E/DX2                !
 ! D99   D(36,16,17,39)         69.7931         estimate D2E/DX2                !
 ! D100  D(37,16,17,18)         61.9353         estimate D2E/DX2                !
 ! D101  D(37,16,17,38)        -55.3129         estimate D2E/DX2                !
 ! D102  D(37,16,17,39)       -178.2508         estimate D2E/DX2                !
 ! D103  D(16,17,18,40)        -63.2813         estimate D2E/DX2                !
 ! D104  D(16,17,18,41)        176.4655         estimate D2E/DX2                !
 ! D105  D(16,17,18,42)         56.2102         estimate D2E/DX2                !
 ! D106  D(38,17,18,40)         58.7583         estimate D2E/DX2                !
 ! D107  D(38,17,18,41)        -61.495          estimate D2E/DX2                !
 ! D108  D(38,17,18,42)        178.2497         estimate D2E/DX2                !
 ! D109  D(39,17,18,40)        173.1804         estimate D2E/DX2                !
 ! D110  D(39,17,18,41)         52.9271         estimate D2E/DX2                !
 ! D111  D(39,17,18,42)        -67.3282         estimate D2E/DX2                !
 --------------------------------------------------------------------------------
 Trust Radius=3.00D-01 FncErr=1.00D-07 GrdErr=1.00D-06 EigMax=2.50D+02 EigMin=1.00D-04
 Number of steps in this run=    243 maximum allowed number of steps=    252.
 GradGradGradGradGradGradGradGradGradGradGradGradGradGradGradGradGradGrad

                          Input orientation:                          
 ---------------------------------------------------------------------
 Center     Atomic      Atomic             Coordinates (Angstroms)
 Number     Number       Type             X           Y           Z
 ---------------------------------------------------------------------
      1          6           0        0.983770    0.049710   -0.143230
      2          6           0        2.324350    0.013340   -0.199410
      3          6           0        3.081570    0.351830   -1.446980
      4          6           0        3.054010   -0.309860    1.069200
      5          6           0        4.538320   -0.307670    0.996340
      6          6           0        5.366470   -0.683400    1.983010
      7         16           0        4.699720   -1.430070    3.670440
      8          6           0        4.501580    0.130890    4.779140
      9          6           0        5.380020    0.569040    5.761970
     10          6           0        6.655340    0.922130    5.156390
     11          6           0        6.374930    1.077620    3.912750
     12          6           0        7.288830   -0.135730    3.206420
     13          6           0        6.861820   -0.329670    1.801630
     14          6           0        7.386940    0.996120    1.157680
     15          6           0        4.588730    1.284310    3.853440
     16          6           0        3.629690    2.503300    4.539290
     17          6           0        2.046690    2.717300    4.435300
     18          6           0        1.663030    4.025260    5.206430
     19          1           0        0.383750    0.297060   -1.008110
     20          1           0        0.464340   -0.156600    0.790990
     21          1           0        2.413110    0.558240   -2.285300
     22          1           0        3.731300   -0.482500   -1.730470
     23          1           0        3.698740    1.246060   -1.293990
     24          1           0        2.722630   -1.271440    1.467850
     25          1           0        2.736920    0.480170    1.755620
     26          1           0        5.007700    0.141450    0.122980
     27          1           0        5.243270    1.610690    6.158610
     28          1           0        7.582830    0.510900    5.613540
     29          1           0        7.219640   -1.124340    3.713210
     30          1           0        8.373040    0.048890    3.268130
     31          1           0        7.360880   -1.158690    1.269490
     32          1           0        7.169160    1.875260    1.778720
     33          1           0        7.020490    1.214240    0.159010
     34          1           0        8.490590    0.968750    1.121170
     35          1           0        4.035990    0.990070    2.984800
     36          1           0        4.081820    3.449810    4.252150
     37          1           0        3.668350    2.405450    5.627770
     38          1           0        1.464440    1.910340    4.909350
     39          1           0        1.683590    2.821050    3.407310
     40          1           0        1.889620    3.944120    6.278280
     41          1           0        0.595920    4.279960    5.132110
     42          1           0        2.224620    4.881480    4.817210
 ---------------------------------------------------------------------
                    Distance matrix (angstroms):
                    1          2          3          4          5
     1  C    0.000000
     2  C    1.342249   0.000000
     3  C    2.488334   1.498128   0.000000
     4  C    2.425937   1.498744   2.601875   0.000000
     5  C    3.749822   2.536637   2.920081   1.486099   0.000000
     6  C    4.926094   3.808267   4.249388   2.514369   1.341836
     7  S    5.526492   4.764615   5.655225   3.275619   2.904590
     8  C    6.050728   5.435081   6.389821   4.006666   3.808315
     9  C    7.380251   6.721902   7.569611   5.310826   4.918161
    10  C    7.811133   6.947515   7.530044   5.585025   4.827028
    11  C    6.824381   5.869391   6.332432   4.586871   3.714514
    12  C    7.142011   6.022289   6.292288   4.746760   3.532608
    13  C    6.203054   4.970961   5.030726   3.877662   2.459193
    14  C    6.602170   5.332670   5.073024   4.526333   3.136963
    15  C    5.522078   4.813354   5.588873   3.556506   3.271080
    16  C    5.911598   5.509908   6.384723   4.504087   4.612988
    17  C    5.404514   5.372991   6.423990   4.637782   5.213934
    18  C    6.699646   6.764315   7.731378   6.151810   6.690772
    19  H    1.081306   2.121420   2.733832   3.437129   4.652308
    20  H    1.088641   2.114098   3.480934   2.609076   4.081949
    21  H    2.624896   2.157714   1.091890   3.523779   4.004432
    22  H    3.217375   2.137641   1.094816   2.885598   2.849095
    23  H    3.182226   2.146311   1.097247   2.901936   2.892159
    24  H    2.713789   2.142205   3.355604   1.092415   2.109006
    25  H    2.620012   2.051898   3.223647   1.093557   2.107662
    26  H    4.033770   2.705682   2.493794   2.217187   1.088478
    27  H    7.764869   7.176074   8.006415   5.863742   5.552125
    28  H    8.769304   7.854271   8.374819   6.467989   5.590853
    29  H    7.425402   6.369205   6.777187   5.000664   3.903564
    30  H    8.138715   6.972213   7.093919   5.766808   4.471380
    31  H    6.642555   5.375682   5.288986   4.394287   2.960691
    32  H    6.729456   5.554451   5.425345   4.713027   3.506939
    33  H    6.155442   4.860489   4.340282   4.345606   3.029604
    34  H    7.667835   6.378029   6.019425   5.585154   4.155150
    35  H    4.470447   3.744717   4.578094   2.514682   2.427022
    36  H    6.362229   5.891894   6.563388   5.032165   4.992729
    37  H    6.786820   6.440850   7.390112   5.341431   5.437648
    38  H    5.405696   5.517018   6.741439   4.711982   5.447931
    39  H    4.558114   4.615435   5.622769   4.140943   4.873515
    40  H    7.564574   7.589499   8.602612   6.825442   7.279576
    41  H    6.773083   7.043907   8.055625   6.604233   7.327582
    42  H    7.035032   6.991081   7.777671   6.456429   6.846863
                    6          7          8          9         10
     6  C    0.000000
     7  S    1.962012   0.000000
     8  C    3.038000   1.924856   0.000000
     9  C    3.981121   2.972162   1.389096   0.000000
    10  C    3.782757   3.400785   2.325309   1.455280   0.000000
    11  C    2.800371   3.025484   2.270764   2.160582   1.284308
    12  C    2.343532   2.931573   3.211432   3.266664   2.307111
    13  C    1.547286   3.062353   3.827325   4.322928   3.586649
    14  C    2.753953   4.406984   4.710509   5.040795   4.065759
    15  C    2.824052   2.722805   1.481517   2.186375   2.469763
    16  C    4.439147   4.167885   2.538907   2.880966   3.469217
    17  C    5.347843   4.982395   3.582489   4.181646   4.998226
    18  C    6.802748   6.429726   4.837981   5.105888   5.878357
    19  H    5.893691   6.595408   7.104674   8.418472   8.816156
    20  H    5.072407   5.277443   5.682191   7.028592   7.651722
    21  H    5.336898   6.682275   7.379068   8.576784   8.573662
    22  H    4.062521   5.568263   6.583662   7.743428   7.612610
    23  H    4.152453   5.727931   6.226641   7.285028   7.103085
    24  H    2.757004   2.964026   4.011961   5.374807   5.820935
    25  H    2.884464   3.341876   3.518195   4.800491   5.207166
    26  H    2.066109   3.892172   4.683599   5.667421   5.353447
    27  H    4.765885   3.966441   2.154727   1.122969   1.863465
    28  H    4.418071   3.981875   3.214768   2.208570   1.112805
    29  H    2.573375   2.538759   3.177996   3.232515   2.566952
    30  H    3.350708   3.980258   4.156691   3.930390   2.697882
    31  H    2.170871   3.594437   4.707043   5.204924   4.464929
    32  H    3.136585   4.538937   4.377366   4.557797   3.546988
    33  H    3.108665   4.970763   5.372537   5.873720   5.019210
    34  H    3.637649   5.159827   5.476765   5.601110   4.433206
    35  H    2.360988   2.601484   2.043189   3.113897   3.403148
    36  H    4.886998   4.953122   3.386613   3.501959   3.718847
    37  H    5.070393   4.427875   2.566723   2.514006   3.368167
    38  H    5.524200   4.812512   3.522445   4.225851   5.289899
    39  H    5.279527   5.219032   4.130369   4.927430   5.602096
    40  H    7.207758   6.601470   4.859062   4.882687   5.753534
    41  H    7.570332   7.182068   5.709076   6.087303   6.927639
    42  H    6.990837   6.875817   5.268216   5.426441   5.951704
                   11         12         13         14         15
    11  C    0.000000
    12  C    1.675211   0.000000
    13  C    2.583477   1.481008   0.000000
    14  C    2.936191   2.342658   1.564654   0.000000
    15  C    1.799097   3.118604   3.461473   3.896172   0.000000
    16  C    3.156178   4.704288   5.095799   5.274828   1.695902
    17  C    4.657818   6.093436   6.277398   6.497963   2.975565
    18  C    5.706504   7.277603   7.588511   7.637487   4.231207
    19  H    7.792200   8.101216   7.088922   7.363695   6.503168
    20  H    6.797335   7.239365   6.479128   7.027490   5.335299
    21  H    7.374388   7.376532   6.105932   6.065050   6.553215
    22  H    6.424071   6.095010   4.722207   4.887886   5.919194
    23  H    5.856663   5.920454   4.697964   4.435761   5.223943
    24  H    4.983464   5.016238   4.258079   5.195558   3.962982
    25  H    4.271449   4.817057   4.203898   4.716611   2.911476
    26  H    4.136193   3.845515   2.545109   2.731638   3.924028
    27  H    2.570740   3.993711   5.036663   5.475611   2.418420
    28  H    2.161685   2.509740   3.969518   4.486480   3.558195
    29  H    2.366850   1.113092   2.100874   3.324917   3.569726
    30  H    2.338004   1.101546   2.139560   2.514684   4.023662
    31  H    3.600000   2.191651   1.104313   2.157866   4.508865
    32  H    2.412699   2.469156   2.226365   1.098183   3.363377
    33  H    3.811296   3.343820   2.259875   1.085911   4.423480
    34  H    3.504396   2.648088   2.191304   1.104593   4.773823
    35  H    2.517816   3.449277   3.335704   3.816709   1.070810
    36  H    3.316750   4.922861   5.293195   5.149773   2.259495
    37  H    3.468429   5.042659   5.684934   5.982961   2.291790
    38  H    5.079325   6.403897   6.618707   7.070137   3.356791
    39  H    5.030277   6.340475   6.270511   6.396828   3.316691
    40  H    5.824994   7.431889   7.939046   8.070426   4.498848
    41  H    6.718540   8.246311   8.461814   8.526292   5.152810
    42  H    5.701971   7.308438   7.599568   7.425478   4.411066
                   16         17         18         19         20
    16  C    0.000000
    17  C    1.600781   0.000000
    18  C    2.574721   1.566077   0.000000
    19  H    6.795386   6.184953   7.359113   0.000000
    20  H    5.580704   4.903481   6.198461   1.857165   0.000000
    21  H    7.199886   7.068399   8.289081   2.411997   3.711100
    22  H    6.945158   7.147961   8.527498   3.512209   4.139686
    23  H    5.967627   6.141545   7.356869   3.459984   4.095844
    24  H    4.950269   5.017240   6.569229   3.749791   2.607850
    25  H    3.555125   3.558350   5.062509   3.634438   2.549629
    26  H    5.194328   5.830839   7.218882   4.762824   4.601868
    27  H    2.454097   3.796381   4.422094   8.757993   7.400867
    28  H    4.555325   6.074973   6.896412   9.783595   8.624120
    29  H    5.170099   6.483751   7.721658   8.428561   7.423609
    30  H    5.489931   6.964582   8.036962   9.065129   8.290114
    31  H    6.166323   7.299744   8.650915   7.482447   6.985371
    32  H    4.532442   5.831479   6.832947   7.503261   7.075216
    33  H    5.687359   6.729378   7.879128   6.800714   6.727682
    34  H    6.137323   7.454175   8.523331   8.408677   8.111481
    35  H    2.207121   3.007422   4.447354   5.455497   4.345611
    36  H    1.087544   2.170684   2.663144   7.161417   6.170250
    37  H    1.093553   2.036913   2.612015   7.698624   6.342257
    38  H    2.275270   1.102235   2.144897   6.227913   4.715223
    39  H    2.273686   1.095157   2.165035   5.249385   4.147059
    40  H    2.850946   2.219535   1.098540   8.286143   6.996976
    41  H    3.565349   2.243253   1.099600   7.321940   6.208518
    42  H    2.776185   2.204811   1.095440   7.638067   6.685154
                   21         22         23         24         25
    21  H    0.000000
    22  H    1.768785   0.000000
    23  H    1.763133   1.783114   0.000000
    24  H    4.186844   3.445155   3.862429   0.000000
    25  H    4.054625   3.750780   3.288131   1.775149   0.000000
    26  H    3.564467   2.335335   2.222913   3.004410   2.817213
    27  H    8.967557   8.300908   7.619696   6.055042   5.190972
    28  H    9.440335   8.351982   7.958680   6.632121   6.194137
    29  H    7.868668   6.497240   6.564113   5.028556   5.147950
    30  H    8.162156   6.842085   6.640424   6.075476   5.851456
    31  H    6.329677   4.757189   5.075975   4.643859   4.929827
    32  H    6.393028   5.449067   4.677740   5.456188   4.646672
    33  H    5.256704   4.155458   3.625775   5.134517   4.630010
    34  H    6.979135   5.734877   5.373242   6.197419   5.809127
    35  H    5.531200   4.949249   4.299687   3.023323   1.859695
    36  H    7.340574   7.167822   5.980212   5.647117   4.106115
    37  H    8.222195   7.904930   7.018253   5.631948   4.423552
    38  H    7.381811   7.412931   6.626824   4.852905   3.689255
    39  H    6.169142   6.442309   5.351976   4.646459   3.052426
    40  H    9.223510   9.334175   8.239643   7.143963   5.759455
    41  H    8.495372   8.922255   7.754147   6.983390   5.515702
    42  H    8.316945   8.597353   7.261961   7.023151   5.385844
                   26         27         28         29         30
    26  H    0.000000
    27  H    6.216349   0.000000
    28  H    6.075692   2.642003   0.000000
    29  H    4.402801   4.167302   2.533214   0.000000
    30  H    4.607174   4.537571   2.517704   1.704376   0.000000
    31  H    2.922722   6.004767   4.659138   2.448039   2.545050
    32  H    3.227922   4.791919   4.091265   3.569650   2.646374
    33  H    2.281118   6.269839   5.528364   4.259220   3.585256
    34  H    3.716360   6.027684   4.605979   3.565811   2.338674
    35  H    3.139170   3.451922   4.440715   3.890622   4.447033
    36  H    5.371456   2.892390   4.769449   5.573080   5.563193
    37  H    6.101005   1.842229   4.348871   5.360655   5.766748
    38  H    6.212327   3.991240   6.315775   6.615313   7.340801
    39  H    5.386723   4.658964   6.708597   6.804963   7.242443
    40  H    7.878480   4.087320   6.681431   7.789607   8.140550
    41  H    7.853818   5.456791   7.953270   8.665645   9.047650
    42  H    7.228362   4.648620   6.960354   7.889164   7.972242
                   31         32         33         34         35
    31  H    0.000000
    32  H    3.082357   0.000000
    33  H    2.641936   1.755708   0.000000
    34  H    2.413347   1.732140   1.774038   0.000000
    35  H    4.314435   3.472023   4.116137   4.828771   0.000000
    36  H    6.394276   4.257785   5.512472   5.949449   2.767417
    37  H    6.732940   5.229910   6.524045   6.754817   3.020555
    38  H    7.578623   6.507373   7.343022   8.037642   3.341206
    39  H    7.255358   5.799854   6.451030   7.415706   3.010779
    40  H    9.003407   7.238768   8.439404   8.889399   4.917349
    41  H    9.500707   7.761140   8.683632   9.453971   5.221915
    42  H    8.686261   6.535920   7.625473   8.260299   4.667104
                   36         37         38         39         40
    36  H    0.000000
    37  H    1.775944   0.000000
    38  H    3.106857   2.370333   0.000000
    39  H    2.619275   3.007065   1.770182   0.000000
    40  H    3.025770   2.440194   2.488174   3.089693   0.000000
    41  H    3.689848   3.633083   2.533584   2.507265   1.760725
    42  H    2.412087   2.978605   3.068230   2.554585   1.767935
                   41         42
    41  H    0.000000
    42  H    1.764554   0.000000
 Stoichiometry    C17H24S
 Framework group  C1[X(C17H24S)]
 Deg. of freedom   120
 Full point group                 C1      NOp   1
 Largest Abelian subgroup         C1      NOp   1
 Largest concise Abelian subgroup C1      NOp   1
                         Standard orientation:                         
 ---------------------------------------------------------------------
 Center     Atomic      Atomic             Coordinates (Angstroms)
 Number     Number       Type             X           Y           Z
 ---------------------------------------------------------------------
      1          6           0       -4.003918    2.045518    0.657863
      2          6           0       -3.576113    0.876759    0.155251
      3          6           0       -4.340766    0.130494   -0.894883
      4          6           0       -2.248487    0.371299    0.632905
      5          6           0       -1.774085   -0.904572    0.036597
      6          6           0       -0.677005   -1.579151    0.413271
      7         16           0        0.416969   -1.012771    1.940335
      8          6           0        1.721353    0.144398    1.125098
      9          6           0        3.030982   -0.181409    0.795992
     10          6           0        3.035559   -1.224081   -0.219219
     11          6           0        1.852905   -1.175924   -0.717675
     12          6           0        1.254970   -2.688027   -0.314746
     13          6           0       -0.210789   -2.718078   -0.524590
     14          6           0       -0.277034   -2.662508   -2.086852
     15          6           0        1.200668    0.429016   -0.232390
     16          6           0        1.765150    1.977833   -0.630649
     17          6           0        1.148346    3.404090   -0.246143
     18          6           0        2.020238    4.525003   -0.906411
     19          1           0       -4.939746    2.490304    0.348645
     20          1           0       -3.402566    2.586628    1.386365
     21          1           0       -5.287523    0.619368   -1.133375
     22          1           0       -4.562319   -0.884274   -0.548788
     23          1           0       -3.761639    0.069683   -1.824865
     24          1           0       -2.243977    0.274362    1.721001
     25          1           0       -1.554420    1.167917    0.350882
     26          1           0       -2.279898   -1.273130   -0.853966
     27          1           0        3.591087    0.521475    0.122721
     28          1           0        3.683864   -2.113067   -0.052670
     29          1           0        1.445455   -2.997756    0.737278
     30          1           0        1.749328   -3.507261   -0.860521
     31          1           0       -0.709441   -3.655247   -0.220337
     32          1           0        0.415969   -1.921267   -2.506751
     33          1           0       -1.255413   -2.458824   -2.511693
     34          1           0        0.084548   -3.621388   -2.499082
     35          1           0        0.147064    0.571749   -0.105188
     36          1           0        1.901150    1.988659   -1.709602
     37          1           0        2.734404    2.129831   -0.147637
     38          1           0        1.167069    3.610954    0.836345
     39          1           0        0.117028    3.543545   -0.587177
     40          1           0        3.046888    4.521805   -0.515557
     41          1           0        1.627482    5.538790   -0.741792
     42          1           0        2.082270    4.377524   -1.990104
 ---------------------------------------------------------------------
 Rotational constants (GHZ):           0.3795187           0.3200705           0.2157197
 Standard basis: 6-31G(2df,p) (6D, 7F)
 There are   682 symmetry adapted cartesian basis functions of A   symmetry.
 There are   628 symmetry adapted basis functions of A   symmetry.
   628 basis functions,   984 primitive gaussians,   682 cartesian basis functions
    71 alpha electrons       71 beta electrons
       nuclear repulsion energy      1463.9568835959 Hartrees.
 NAtoms=   42 NActive=   42 NUniq=   42 SFac= 1.00D+00 NAtFMM=   60 NAOKFM=F Big=F
 Integral buffers will be    131072 words long.
 Raffenetti 2 integral format.
 Two-electron integral symmetry is turned on.
 One-electron integrals computed using PRISM.
 PrsmSu:  requested number of processors reduced to:  12 ShMem   1 Linda.
 NBasis=   628 RedAO= T EigKep=  3.32D-04  NBF=   628
 NBsUse=   628 1.00D-06 EigRej= -1.00D+00 NBFU=   628
 ExpMin= 1.17D-01 ExpMax= 2.19D+04 ExpMxC= 3.30D+03 IAcc=3 IRadAn=         5 AccDes= 0.00D+00
 Harris functional with IExCor=  402 and IRadAn=       5 diagonalized for initial guess.
 HarFok:  IExCor=  402 AccDes= 0.00D+00 IRadAn=         5 IDoV= 1 UseB2=F ITyADJ=14
 ICtDFT=  3500011 ScaDFX=  1.000000  1.000000  1.000000  1.000000
 FoFCou: FMM=F IPFlag=           0 FMFlag=      100000 FMFlg1=           0
         NFxFlg=           0 DoJE=T BraDBF=F KetDBF=T FulRan=T
         wScrn=  0.000000 ICntrl=       500 IOpCl=  0 I1Cent=   200000004 NGrid=           0
         NMat0=    1 NMatS0=      1 NMatT0=    0 NMatD0=    1 NMtDS0=    0 NMtDT0=    0
 Petite list used in FoFCou.
 Requested convergence on RMS density matrix=1.00D-08 within 128 cycles.
 Requested convergence on MAX density matrix=1.00D-06.
 Requested convergence on             energy=1.00D-06.
 No special actions if energy rises.
 Integral accuracy reduced to 1.0D-05 until final iterations.
 EnCoef did     4 forward-backward iterations
 Problem detected with inexpensive integrals.
 Switching to full accuracy and repeating last cycle.
 SCF Done:  E(RB3LYP) =  -1060.04508052     A.U. after   21 cycles
            NFock= 21  Conv=0.57D-08     -V/T= 2.0066

 **********************************************************************

            Population analysis using the SCF density.

 **********************************************************************

 Orbital symmetries:
       Occupied  (A) (A) (A) (A) (A) (A) (A) (A) (A) (A) (A) (A)
                 (A) (A) (A) (A) (A) (A) (A) (A) (A) (A) (A) (A)
                 (A) (A) (A) (A) (A) (A) (A) (A) (A) (A) (A) (A)
                 (A) (A) (A) (A) (A) (A) (A) (A) (A) (A) (A) (A)
                 (A) (A) (A) (A) (A) (A) (A) (A) (A) (A) (A) (A)
                 (A) (A) (A) (A) (A) (A) (A) (A) (A) (A) (A)
       Virtual   (A) (A) (A) (A) (A) (A) (A) (A) (A) (A) (A) (A)
                 (A) (A) (A) (A) (A) (A) (A) (A) (A) (A) (A) (A)
                 (A) (A) (A) (A) (A) (A) (A) (A) (A) (A) (A) (A)
                 (A) (A) (A) (A) (A) (A) (A) (A) (A) (A) (A) (A)
                 (A) (A) (A) (A) (A) (A) (A) (A) (A) (A) (A) (A)
                 (A) (A) (A) (A) (A) (A) (A) (A) (A) (A) (A) (A)
                 (A) (A) (A) (A) (A) (A) (A) (A) (A) (A) (A) (A)
                 (A) (A) (A) (A) (A) (A) (A) (A) (A) (A) (A) (A)
                 (A) (A) (A) (A) (A) (A) (A) (A) (A) (A) (A) (A)
                 (A) (A) (A) (A) (A) (A) (A) (A) (A) (A) (A) (A)
                 (A) (A) (A) (A) (A) (A) (A) (A) (A) (A) (A) (A)
                 (A) (A) (A) (A) (A) (A) (A) (A) (A) (A) (A) (A)
                 (A) (A) (A) (A) (A) (A) (A) (A) (A) (A) (A) (A)
                 (A) (A) (A) (A) (A) (A) (A) (A) (A) (A) (A) (A)
                 (A) (A) (A) (A) (A) (A) (A) (A) (A) (A) (A) (A)
                 (A) (A) (A) (A) (A) (A) (A) (A) (A) (A) (A) (A)
                 (A) (A) (A) (A) (A) (A) (A) (A) (A) (A) (A) (A)
                 (A) (A) (A) (A) (A) (A) (A) (A) (A) (A) (A) (A)
                 (A) (A) (A) (A) (A) (A) (A) (A) (A) (A) (A) (A)
                 (A) (A) (A) (A) (A) (A) (A) (A) (A) (A) (A) (A)
                 (A) (A) (A) (A) (A) (A) (A) (A) (A) (A) (A) (A)
                 (A) (A) (A) (A) (A) (A) (A) (A) (A) (A) (A) (A)
                 (A) (A) (A) (A) (A) (A) (A) (A) (A) (A) (A) (A)
                 (A) (A) (A) (A) (A) (A) (A) (A) (A) (A) (A) (A)
                 (A) (A) (A) (A) (A) (A) (A) (A) (A) (A) (A) (A)
                 (A) (A) (A) (A) (A) (A) (A) (A) (A) (A) (A) (A)
                 (A) (A) (A) (A) (A) (A) (A) (A) (A) (A) (A) (A)
                 (A) (A) (A) (A) (A) (A) (A) (A) (A) (A) (A) (A)
                 (A) (A) (A) (A) (A) (A) (A) (A) (A) (A) (A) (A)
                 (A) (A) (A) (A) (A) (A) (A) (A) (A) (A) (A) (A)
                 (A) (A) (A) (A) (A) (A) (A) (A) (A) (A) (A) (A)
                 (A) (A) (A) (A) (A) (A) (A) (A) (A) (A) (A) (A)
                 (A) (A) (A) (A) (A) (A) (A) (A) (A) (A) (A) (A)
                 (A) (A) (A) (A) (A) (A) (A) (A) (A) (A) (A) (A)
                 (A) (A) (A) (A) (A) (A) (A) (A) (A) (A) (A) (A)
                 (A) (A) (A) (A) (A) (A) (A) (A) (A) (A) (A) (A)
                 (A) (A) (A) (A) (A) (A) (A) (A) (A) (A) (A) (A)
                 (A) (A) (A) (A) (A) (A) (A) (A) (A) (A) (A) (A)
                 (A) (A) (A) (A) (A) (A) (A) (A) (A) (A) (A) (A)
                 (A) (A) (A) (A) (A) (A) (A) (A) (A) (A) (A) (A)
                 (A) (A) (A) (A) (A) (A) (A) (A) (A) (A) (A) (A)
                 (A) (A) (A) (A) (A) (A) (A) (A) (A) (A) (A) (A)
                 (A) (A) (A) (A) (A) (A) (A) (A) (A) (A) (A) (A)
                 (A) (A) (A) (A) (A) (A) (A) (A) (A) (A) (A) (A)
                 (A) (A) (A) (A) (A) (A) (A) (A) (A) (A) (A) (A)
                 (A) (A) (A) (A) (A) (A) (A) (A) (A) (A) (A) (A)
                 (A) (A) (A) (A) (A)
 The electronic state is 1-A.
 Alpha  occ. eigenvalues --  -88.88198 -10.23081 -10.22376 -10.21926 -10.21337
 Alpha  occ. eigenvalues --  -10.19903 -10.19866 -10.19865 -10.19457 -10.19147
 Alpha  occ. eigenvalues --  -10.18984 -10.18573 -10.18375 -10.18318 -10.18136
 Alpha  occ. eigenvalues --  -10.18022 -10.17860 -10.16381  -7.94168  -5.90661
 Alpha  occ. eigenvalues --   -5.90306  -5.89751  -0.89037  -0.83586  -0.81498
 Alpha  occ. eigenvalues --   -0.78214  -0.77017  -0.74231  -0.70823  -0.69549
 Alpha  occ. eigenvalues --   -0.68860  -0.66963  -0.65379  -0.64189  -0.59021
 Alpha  occ. eigenvalues --   -0.58352  -0.54301  -0.52559  -0.52148  -0.49646
 Alpha  occ. eigenvalues --   -0.48113  -0.46709  -0.46494  -0.45197  -0.44929
 Alpha  occ. eigenvalues --   -0.43535  -0.42903  -0.41591  -0.41284  -0.40332
 Alpha  occ. eigenvalues --   -0.39609  -0.38814  -0.38482  -0.38272  -0.37472
 Alpha  occ. eigenvalues --   -0.36679  -0.36455  -0.35677  -0.35398  -0.34418
 Alpha  occ. eigenvalues --   -0.33728  -0.33166  -0.32414  -0.32215  -0.31446
 Alpha  occ. eigenvalues --   -0.28621  -0.26073  -0.24530  -0.23263  -0.21031
 Alpha  occ. eigenvalues --   -0.18263
 Alpha virt. eigenvalues --   -0.09642  -0.01838  -0.01554   0.01644   0.01985
 Alpha virt. eigenvalues --    0.03093   0.05822   0.08712   0.08933   0.10040
 Alpha virt. eigenvalues --    0.11016   0.11481   0.12885   0.13455   0.13693
 Alpha virt. eigenvalues --    0.14337   0.14522   0.14993   0.15714   0.16120
 Alpha virt. eigenvalues --    0.16317   0.17155   0.17257   0.17956   0.18499
 Alpha virt. eigenvalues --    0.18591   0.19135   0.19497   0.20118   0.20592
 Alpha virt. eigenvalues --    0.21385   0.21905   0.22692   0.23338   0.23920
 Alpha virt. eigenvalues --    0.24132   0.25603   0.26943   0.28263   0.28316
 Alpha virt. eigenvalues --    0.28562   0.30044   0.31065   0.32544   0.33178
 Alpha virt. eigenvalues --    0.33636   0.35327   0.35497   0.36126   0.38688
 Alpha virt. eigenvalues --    0.40967   0.41712   0.43122   0.43806   0.44933
 Alpha virt. eigenvalues --    0.45278   0.47179   0.47396   0.47905   0.49269
 Alpha virt. eigenvalues --    0.49942   0.50305   0.51179   0.51524   0.51873
 Alpha virt. eigenvalues --    0.52716   0.52833   0.54212   0.54400   0.54646
 Alpha virt. eigenvalues --    0.55476   0.56042   0.56656   0.57173   0.58428
 Alpha virt. eigenvalues --    0.58995   0.59594   0.59889   0.60688   0.61624
 Alpha virt. eigenvalues --    0.62670   0.63623   0.63877   0.65049   0.65798
 Alpha virt. eigenvalues --    0.66093   0.67278   0.67405   0.68738   0.69086
 Alpha virt. eigenvalues --    0.69689   0.70159   0.71092   0.71992   0.72245
 Alpha virt. eigenvalues --    0.72431   0.72818   0.72964   0.73565   0.73667
 Alpha virt. eigenvalues --    0.74570   0.74902   0.75314   0.76116   0.76569
 Alpha virt. eigenvalues --    0.77009   0.77134   0.77436   0.77768   0.78187
 Alpha virt. eigenvalues --    0.78547   0.79153   0.79673   0.80019   0.80108
 Alpha virt. eigenvalues --    0.80874   0.81384   0.81720   0.82373   0.83189
 Alpha virt. eigenvalues --    0.83816   0.85225   0.85468   0.86240   0.87087
 Alpha virt. eigenvalues --    0.87469   0.88266   0.90089   0.90912   0.91172
 Alpha virt. eigenvalues --    0.91514   0.92590   0.93973   0.94402   0.95990
 Alpha virt. eigenvalues --    0.96846   0.97360   0.99286   1.00095   1.01685
 Alpha virt. eigenvalues --    1.03623   1.05288   1.06069   1.06936   1.08101
 Alpha virt. eigenvalues --    1.11554   1.11873   1.12240   1.13889   1.16267
 Alpha virt. eigenvalues --    1.16973   1.18400   1.19329   1.19534   1.20410
 Alpha virt. eigenvalues --    1.21065   1.21617   1.23348   1.25353   1.26253
 Alpha virt. eigenvalues --    1.28629   1.29425   1.31285   1.33050   1.33374
 Alpha virt. eigenvalues --    1.35065   1.35800   1.37517   1.38935   1.39974
 Alpha virt. eigenvalues --    1.40747   1.41335   1.41966   1.42674   1.43230
 Alpha virt. eigenvalues --    1.44021   1.45722   1.46949   1.48229   1.48639
 Alpha virt. eigenvalues --    1.49402   1.49895   1.50583   1.51772   1.52541
 Alpha virt. eigenvalues --    1.53405   1.53961   1.54498   1.55791   1.56618
 Alpha virt. eigenvalues --    1.56763   1.57856   1.58830   1.59342   1.60395
 Alpha virt. eigenvalues --    1.61108   1.61718   1.62731   1.63200   1.64242
 Alpha virt. eigenvalues --    1.64869   1.66240   1.66664   1.68385   1.69353
 Alpha virt. eigenvalues --    1.70369   1.71267   1.71918   1.74057   1.74301
 Alpha virt. eigenvalues --    1.74647   1.75863   1.77514   1.77876   1.79400
 Alpha virt. eigenvalues --    1.81088   1.81635   1.84161   1.85034   1.85934
 Alpha virt. eigenvalues --    1.86933   1.88313   1.88652   1.89225   1.89987
 Alpha virt. eigenvalues --    1.90290   1.90837   1.92931   1.93758   1.94964
 Alpha virt. eigenvalues --    1.95554   1.96567   1.98156   1.98423   1.99268
 Alpha virt. eigenvalues --    2.00271   2.01693   2.03094   2.04389   2.06049
 Alpha virt. eigenvalues --    2.09229   2.09346   2.11966   2.13922   2.14209
 Alpha virt. eigenvalues --    2.16955   2.19047   2.21535   2.23000   2.24124
 Alpha virt. eigenvalues --    2.25201   2.26371   2.27108   2.27699   2.28813
 Alpha virt. eigenvalues --    2.29765   2.32120   2.33375   2.34372   2.35811
 Alpha virt. eigenvalues --    2.37167   2.37934   2.39130   2.39573   2.41708
 Alpha virt. eigenvalues --    2.43301   2.44353   2.44977   2.45366   2.47277
 Alpha virt. eigenvalues --    2.47850   2.49599   2.51097   2.53592   2.54499
 Alpha virt. eigenvalues --    2.55729   2.57065   2.57334   2.57769   2.58309
 Alpha virt. eigenvalues --    2.60699   2.61307   2.63565   2.64574   2.65348
 Alpha virt. eigenvalues --    2.68427   2.69781   2.71220   2.71530   2.72068
 Alpha virt. eigenvalues --    2.72643   2.73971   2.75301   2.76644   2.76786
 Alpha virt. eigenvalues --    2.78091   2.78572   2.79581   2.80477   2.81421
 Alpha virt. eigenvalues --    2.82256   2.84052   2.84465   2.85467   2.85889
 Alpha virt. eigenvalues --    2.86554   2.86784   2.87614   2.88987   2.89992
 Alpha virt. eigenvalues --    2.91034   2.91210   2.92818   2.93308   2.93700
 Alpha virt. eigenvalues --    2.94443   2.94533   2.95789   2.96793   2.97910
 Alpha virt. eigenvalues --    2.98341   2.99370   2.99579   3.01472   3.02356
 Alpha virt. eigenvalues --    3.04070   3.04355   3.04960   3.06449   3.08077
 Alpha virt. eigenvalues --    3.08277   3.09670   3.09962   3.10570   3.11875
 Alpha virt. eigenvalues --    3.13226   3.14177   3.15841   3.17406   3.18328
 Alpha virt. eigenvalues --    3.19254   3.21390   3.22257   3.22736   3.23833
 Alpha virt. eigenvalues --    3.24568   3.25235   3.25435   3.26600   3.28111
 Alpha virt. eigenvalues --    3.28867   3.29142   3.30080   3.31756   3.32713
 Alpha virt. eigenvalues --    3.33899   3.34968   3.37262   3.37494   3.38567
 Alpha virt. eigenvalues --    3.40057   3.40541   3.41352   3.42669   3.43808
 Alpha virt. eigenvalues --    3.44733   3.44947   3.47071   3.47813   3.48143
 Alpha virt. eigenvalues --    3.48945   3.49734   3.51557   3.51933   3.53789
 Alpha virt. eigenvalues --    3.55284   3.55715   3.56784   3.57950   3.58586
 Alpha virt. eigenvalues --    3.60608   3.61791   3.62818   3.63094   3.63562
 Alpha virt. eigenvalues --    3.64965   3.65873   3.67123   3.68129   3.69662
 Alpha virt. eigenvalues --    3.69852   3.71367   3.72074   3.73807   3.75878
 Alpha virt. eigenvalues --    3.76590   3.78444   3.78906   3.79327   3.81403
 Alpha virt. eigenvalues --    3.83140   3.83862   3.84878   3.87082   3.88589
 Alpha virt. eigenvalues --    3.88738   3.91613   3.91722   3.92269   3.94484
 Alpha virt. eigenvalues --    3.95258   3.97851   3.98545   4.00330   4.03434
 Alpha virt. eigenvalues --    4.04331   4.09654   4.11481   4.13010   4.14700
 Alpha virt. eigenvalues --    4.15520   4.19597   4.21360   4.23375   4.24529
 Alpha virt. eigenvalues --    4.28104   4.28639   4.29622   4.30773   4.32423
 Alpha virt. eigenvalues --    4.32703   4.35290   4.37499   4.39050   4.40200
 Alpha virt. eigenvalues --    4.41237   4.42064   4.42511   4.42631   4.44158
 Alpha virt. eigenvalues --    4.45665   4.47013   4.47268   4.48495   4.48682
 Alpha virt. eigenvalues --    4.49805   4.50690   4.51470   4.51837   4.52994
 Alpha virt. eigenvalues --    4.53834   4.54646   4.55648   4.56435   4.58314
 Alpha virt. eigenvalues --    4.58727   4.60686   4.60849   4.61792   4.62336
 Alpha virt. eigenvalues --    4.62799   4.62982   4.64113   4.64807   4.66264
 Alpha virt. eigenvalues --    4.66628   4.68223   4.69141   4.70585   4.71241
 Alpha virt. eigenvalues --    4.71511   4.72231   4.74146   4.74316   4.75955
 Alpha virt. eigenvalues --    4.76661   4.77500   4.78690   4.78882   4.80146
 Alpha virt. eigenvalues --    4.80561   4.81192   4.81574   4.82210   4.82563
 Alpha virt. eigenvalues --    4.83543   4.85243   4.85949   4.86848   4.87870
 Alpha virt. eigenvalues --    4.89490   4.90136   4.91647   4.93138   4.93952
 Alpha virt. eigenvalues --    4.95587   4.96301   4.97065   4.98610   4.99105
 Alpha virt. eigenvalues --    5.01587   5.02272   5.03457   5.04561   5.07923
 Alpha virt. eigenvalues --    5.11176   5.13472   5.14499   5.16349   5.17875
 Alpha virt. eigenvalues --    5.23023   5.23083   5.24442   5.28010   5.31264
 Alpha virt. eigenvalues --    5.32098   5.33636   5.33802   5.35432   5.38869
 Alpha virt. eigenvalues --    5.40326   5.41577   5.43922   5.47937   5.49212
 Alpha virt. eigenvalues --    5.51748   5.53764   5.56065   5.59207   5.62214
 Alpha virt. eigenvalues --    5.64046   5.66584   5.71892   5.78587   5.79779
 Alpha virt. eigenvalues --    5.99441   6.25656   6.26646   6.55726   6.73436
 Alpha virt. eigenvalues --   10.28533  10.74760  10.84303  11.18763  11.32394
 Alpha virt. eigenvalues --   11.51747  11.59932  11.73265  11.84851  11.87400
 Alpha virt. eigenvalues --   12.07415  12.21737  12.37718  12.48631  12.56769
 Alpha virt. eigenvalues --   12.80779  12.83577
          Condensed to atoms (all electrons):
               1          2          3          4          5          6
     1  C    5.157809   0.652802  -0.054994  -0.035362   0.003299  -0.000311
     2  C    0.652802   4.292137   0.425799   0.404563  -0.030470   0.002048
     3  C   -0.054994   0.425799   5.101754  -0.085140  -0.005138   0.001511
     4  C   -0.035362   0.404563  -0.085140   5.061457   0.402047  -0.015025
     5  C    0.003299  -0.030470  -0.005138   0.402047   4.846716   0.636566
     6  C   -0.000311   0.002048   0.001511  -0.015025   0.636566   4.836856
     7  S    0.000045   0.001001  -0.000015  -0.015126  -0.039691   0.259723
     8  C   -0.000001   0.000009   0.000000   0.000701  -0.000578  -0.007125
     9  C   -0.000000   0.000000   0.000000   0.000013  -0.000193  -0.000918
    10  C    0.000000  -0.000000  -0.000000  -0.000002   0.000053   0.002255
    11  C   -0.000000  -0.000002  -0.000000   0.000098   0.000857  -0.016511
    12  C   -0.000000  -0.000000   0.000000  -0.000166  -0.000959  -0.040597
    13  C    0.000002  -0.000054  -0.000039   0.005524  -0.034720   0.394514
    14  C   -0.000000   0.000006  -0.000031   0.000204  -0.010489  -0.016344
    15  C    0.000019   0.000154  -0.000002  -0.005824  -0.007994  -0.000436
    16  C   -0.000000  -0.000002  -0.000000  -0.000055   0.000397   0.000501
    17  C   -0.000012  -0.000010   0.000000  -0.000135  -0.000024  -0.000011
    18  C   -0.000000  -0.000000   0.000000   0.000003  -0.000000  -0.000000
    19  H    0.346283   0.001336  -0.013637   0.005741  -0.000186   0.000003
    20  H    0.350798  -0.006827   0.008186  -0.020378   0.000459   0.000008
    21  H   -0.009865  -0.017250   0.365671   0.005125  -0.000029  -0.000027
    22  H    0.001420  -0.018783   0.360107  -0.002496   0.000545   0.000062
    23  H   -0.000445  -0.018140   0.359600  -0.001100  -0.000801   0.000222
    24  H   -0.007247  -0.016341   0.003586   0.347369  -0.015750  -0.009921
    25  H   -0.008856  -0.023014   0.004273   0.343475  -0.037762  -0.010128
    26  H    0.000804  -0.008209   0.004042  -0.064563   0.361825  -0.031250
    27  H    0.000000  -0.000000   0.000000  -0.000000  -0.000006  -0.000066
    28  H   -0.000000  -0.000000   0.000000   0.000000  -0.000000   0.000047
    29  H    0.000000   0.000000   0.000000   0.000014   0.000629  -0.008502
    30  H    0.000000  -0.000000   0.000000   0.000003  -0.000152   0.005473
    31  H   -0.000000   0.000007  -0.000002  -0.000155  -0.001366  -0.039941
    32  H    0.000000   0.000001  -0.000000  -0.000033   0.001462  -0.002961
    33  H   -0.000000   0.000002  -0.000046  -0.000070  -0.000220  -0.003799
    34  H   -0.000000  -0.000000   0.000000  -0.000002   0.000177   0.002747
    35  H   -0.000092  -0.001027  -0.000016   0.002557  -0.003304   0.001490
    36  H   -0.000000   0.000000  -0.000000  -0.000001   0.000025   0.000014
    37  H    0.000000  -0.000000   0.000000  -0.000005  -0.000008  -0.000013
    38  H   -0.000001   0.000001  -0.000000   0.000001   0.000003  -0.000000
    39  H    0.000056   0.000030   0.000000  -0.000213  -0.000015  -0.000002
    40  H    0.000000  -0.000000  -0.000000  -0.000000   0.000000   0.000000
    41  H    0.000000   0.000000  -0.000000  -0.000000  -0.000000  -0.000000
    42  H    0.000000   0.000000  -0.000000  -0.000000   0.000000   0.000000
               7          8          9         10         11         12
     1  C    0.000045  -0.000001  -0.000000   0.000000  -0.000000  -0.000000
     2  C    0.001001   0.000009   0.000000  -0.000000  -0.000002  -0.000000
     3  C   -0.000015   0.000000   0.000000  -0.000000  -0.000000   0.000000
     4  C   -0.015126   0.000701   0.000013  -0.000002   0.000098  -0.000166
     5  C   -0.039691  -0.000578  -0.000193   0.000053   0.000857  -0.000959
     6  C    0.259723  -0.007125  -0.000918   0.002255  -0.016511  -0.040597
     7  S   15.908146   0.256529  -0.036292  -0.008591   0.000924  -0.019044
     8  C    0.256529   4.960036   0.559263  -0.076834  -0.039616   0.011103
     9  C   -0.036292   0.559263   5.293642   0.341923  -0.146086   0.025880
    10  C   -0.008591  -0.076834   0.341923   5.007375   0.614031  -0.073172
    11  C    0.000924  -0.039616  -0.146086   0.614031   5.024055   0.333192
    12  C   -0.019044   0.011103   0.025880  -0.073172   0.333192   5.035389
    13  C   -0.053472  -0.000475  -0.000608   0.002704  -0.020565   0.370709
    14  C    0.003198   0.000011  -0.000112   0.001591  -0.022145  -0.040429
    15  C   -0.071602   0.375322  -0.146663   0.014127   0.343660  -0.036653
    16  C    0.005433  -0.015162  -0.003849  -0.001407  -0.008634   0.000452
    17  C    0.000413  -0.000692   0.000734  -0.000003   0.000447  -0.000003
    18  C    0.000001   0.000032  -0.000028   0.000002  -0.000009   0.000000
    19  H   -0.000000   0.000000   0.000000  -0.000000  -0.000000   0.000000
    20  H   -0.000004   0.000001   0.000000  -0.000000   0.000000   0.000000
    21  H    0.000001  -0.000000   0.000000   0.000000   0.000000   0.000000
    22  H    0.000008  -0.000000   0.000000   0.000000  -0.000000   0.000000
    23  H   -0.000006   0.000000  -0.000000  -0.000000   0.000000  -0.000000
    24  H    0.005295  -0.000361   0.000005   0.000000  -0.000009  -0.000000
    25  H    0.001733   0.000309   0.000039  -0.000013   0.000155   0.000079
    26  H    0.006817  -0.000067  -0.000001  -0.000001   0.000066   0.000640
    27  H    0.004604  -0.033567   0.346870  -0.063649  -0.006428   0.000348
    28  H   -0.000953   0.005934  -0.050347   0.368041  -0.044158  -0.006944
    29  H    0.003890  -0.003452   0.002021  -0.012786  -0.024731   0.375275
    30  H    0.000768   0.000281  -0.000468   0.003732  -0.025452   0.342185
    31  H    0.002175  -0.000000   0.000028  -0.000328   0.003481  -0.028496
    32  H    0.000152   0.000108   0.000195  -0.001401   0.022204  -0.008013
    33  H   -0.000052   0.000001   0.000002  -0.000052   0.000339   0.004895
    34  H   -0.000132  -0.000007   0.000002  -0.000123   0.000504  -0.004618
    35  H   -0.015566  -0.051888   0.012080   0.001078  -0.035290   0.000581
    36  H   -0.000370   0.002722  -0.001493   0.000582   0.000256  -0.000006
    37  H   -0.000035  -0.011319  -0.003504  -0.000905   0.000039  -0.000039
    38  H   -0.000075   0.001521   0.000021   0.000003   0.000002   0.000000
    39  H   -0.000019  -0.000044  -0.000014   0.000000   0.000008   0.000000
    40  H   -0.000000   0.000005  -0.000024   0.000001   0.000000  -0.000000
    41  H   -0.000000   0.000001   0.000000   0.000000   0.000000  -0.000000
    42  H   -0.000000  -0.000001   0.000002  -0.000000  -0.000000   0.000000
              13         14         15         16         17         18
     1  C    0.000002  -0.000000   0.000019  -0.000000  -0.000012  -0.000000
     2  C   -0.000054   0.000006   0.000154  -0.000002  -0.000010  -0.000000
     3  C   -0.000039  -0.000031  -0.000002  -0.000000   0.000000   0.000000
     4  C    0.005524   0.000204  -0.005824  -0.000055  -0.000135   0.000003
     5  C   -0.034720  -0.010489  -0.007994   0.000397  -0.000024  -0.000000
     6  C    0.394514  -0.016344  -0.000436   0.000501  -0.000011  -0.000000
     7  S   -0.053472   0.003198  -0.071602   0.005433   0.000413   0.000001
     8  C   -0.000475   0.000011   0.375322  -0.015162  -0.000692   0.000032
     9  C   -0.000608  -0.000112  -0.146663  -0.003849   0.000734  -0.000028
    10  C    0.002704   0.001591   0.014127  -0.001407  -0.000003   0.000002
    11  C   -0.020565  -0.022145   0.343660  -0.008634   0.000447  -0.000009
    12  C    0.370709  -0.040429  -0.036653   0.000452  -0.000003   0.000000
    13  C    4.801306   0.386985   0.000829  -0.000017   0.000000  -0.000000
    14  C    0.386985   5.045417  -0.000174  -0.000016  -0.000000  -0.000000
    15  C    0.000829  -0.000174   4.995051   0.341543  -0.013489   0.001497
    16  C   -0.000017  -0.000016   0.341543   4.931876   0.395547  -0.030541
    17  C    0.000000  -0.000000  -0.013489   0.395547   4.871881   0.399312
    18  C   -0.000000  -0.000000   0.001497  -0.030541   0.399312   4.941142
    19  H   -0.000000   0.000000   0.000000   0.000000   0.000000  -0.000000
    20  H   -0.000000   0.000000   0.000002  -0.000001   0.000003   0.000000
    21  H    0.000000  -0.000000   0.000000   0.000000  -0.000000  -0.000000
    22  H    0.000012  -0.000001   0.000001  -0.000000  -0.000000  -0.000000
    23  H   -0.000023  -0.000000  -0.000017  -0.000000   0.000000  -0.000000
    24  H   -0.000149  -0.000008   0.000455   0.000002  -0.000001   0.000000
    25  H   -0.000018   0.000019  -0.003005  -0.000469   0.001165  -0.000013
    26  H   -0.019595   0.003190   0.000063   0.000004   0.000000   0.000000
    27  H   -0.000004   0.000005  -0.004544  -0.007519   0.000020  -0.000056
    28  H    0.000723   0.000028   0.004017  -0.000021   0.000001  -0.000000
    29  H   -0.040625   0.006453  -0.000034  -0.000018   0.000000   0.000000
    30  H   -0.026034  -0.005781   0.001214  -0.000000   0.000000  -0.000000
    31  H    0.355177  -0.049770   0.000040   0.000001  -0.000000   0.000000
    32  H   -0.026993   0.367369   0.000087   0.000004  -0.000000   0.000000
    33  H   -0.025756   0.360206  -0.000003  -0.000000  -0.000000   0.000000
    34  H   -0.022171   0.368015   0.000031   0.000000  -0.000000   0.000000
    35  H    0.000754  -0.000076   0.341589  -0.040116  -0.005052   0.000019
    36  H   -0.000004  -0.000003  -0.028498   0.359501  -0.046524  -0.005366
    37  H    0.000000   0.000001  -0.024356   0.363072  -0.045651  -0.002465
    38  H   -0.000000   0.000000  -0.000268  -0.024488   0.372247  -0.038599
    39  H    0.000000  -0.000000  -0.000506  -0.029794   0.367087  -0.033382
    40  H   -0.000000  -0.000000   0.000054  -0.002962  -0.030437   0.380076
    41  H    0.000000  -0.000000  -0.000052   0.002454  -0.020277   0.375785
    42  H   -0.000000   0.000000   0.000048  -0.003831  -0.031702   0.378883
              19         20         21         22         23         24
     1  C    0.346283   0.350798  -0.009865   0.001420  -0.000445  -0.007247
     2  C    0.001336  -0.006827  -0.017250  -0.018783  -0.018140  -0.016341
     3  C   -0.013637   0.008186   0.365671   0.360107   0.359600   0.003586
     4  C    0.005741  -0.020378   0.005125  -0.002496  -0.001100   0.347369
     5  C   -0.000186   0.000459  -0.000029   0.000545  -0.000801  -0.015750
     6  C    0.000003   0.000008  -0.000027   0.000062   0.000222  -0.009921
     7  S   -0.000000  -0.000004   0.000001   0.000008  -0.000006   0.005295
     8  C    0.000000   0.000001  -0.000000  -0.000000   0.000000  -0.000361
     9  C    0.000000   0.000000   0.000000   0.000000  -0.000000   0.000005
    10  C   -0.000000  -0.000000   0.000000   0.000000  -0.000000   0.000000
    11  C   -0.000000   0.000000   0.000000  -0.000000   0.000000  -0.000009
    12  C    0.000000   0.000000   0.000000   0.000000  -0.000000  -0.000000
    13  C   -0.000000  -0.000000   0.000000   0.000012  -0.000023  -0.000149
    14  C    0.000000   0.000000  -0.000000  -0.000001  -0.000000  -0.000008
    15  C    0.000000   0.000002   0.000000   0.000001  -0.000017   0.000455
    16  C    0.000000  -0.000001   0.000000  -0.000000  -0.000000   0.000002
    17  C    0.000000   0.000003  -0.000000  -0.000000   0.000000  -0.000001
    18  C   -0.000000   0.000000  -0.000000  -0.000000  -0.000000   0.000000
    19  H    0.601547  -0.046195   0.006529   0.000152   0.000169  -0.000083
    20  H   -0.046195   0.611481  -0.000055  -0.000220  -0.000217   0.002653
    21  H    0.006529  -0.000055   0.592211  -0.030024  -0.030735  -0.000113
    22  H    0.000152  -0.000220  -0.030024   0.595428  -0.038102   0.000036
    23  H    0.000169  -0.000217  -0.030735  -0.038102   0.597026  -0.000104
    24  H   -0.000083   0.002653  -0.000113   0.000036  -0.000104   0.564582
    25  H   -0.000110   0.003500  -0.000135   0.000038  -0.000214  -0.027905
    26  H   -0.000009  -0.000003  -0.000314   0.003147   0.003542   0.004403
    27  H   -0.000000   0.000000  -0.000000   0.000000  -0.000000  -0.000000
    28  H   -0.000000   0.000000  -0.000000   0.000000  -0.000000  -0.000000
    29  H    0.000000   0.000000  -0.000000  -0.000000  -0.000000   0.000001
    30  H   -0.000000   0.000000  -0.000000  -0.000000   0.000000   0.000000
    31  H    0.000000  -0.000000   0.000000  -0.000002   0.000001   0.000021
    32  H    0.000000  -0.000000   0.000000  -0.000000   0.000001   0.000001
    33  H    0.000000  -0.000000  -0.000000  -0.000019   0.000200  -0.000001
    34  H   -0.000000   0.000000   0.000000  -0.000000  -0.000000   0.000000
    35  H   -0.000001  -0.000033  -0.000001  -0.000008   0.000085  -0.000738
    36  H   -0.000000   0.000000  -0.000000  -0.000000   0.000000   0.000000
    37  H    0.000000   0.000000   0.000000   0.000000  -0.000000  -0.000000
    38  H   -0.000000   0.000003  -0.000000  -0.000000  -0.000000  -0.000001
    39  H   -0.000001   0.000035   0.000000   0.000000  -0.000001   0.000001
    40  H    0.000000   0.000000   0.000000  -0.000000   0.000000   0.000000
    41  H   -0.000000  -0.000000   0.000000   0.000000  -0.000000   0.000000
    42  H   -0.000000   0.000000  -0.000000   0.000000  -0.000000  -0.000000
              25         26         27         28         29         30
     1  C   -0.008856   0.000804   0.000000  -0.000000   0.000000   0.000000
     2  C   -0.023014  -0.008209  -0.000000  -0.000000   0.000000  -0.000000
     3  C    0.004273   0.004042   0.000000   0.000000   0.000000   0.000000
     4  C    0.343475  -0.064563  -0.000000   0.000000   0.000014   0.000003
     5  C   -0.037762   0.361825  -0.000006  -0.000000   0.000629  -0.000152
     6  C   -0.010128  -0.031250  -0.000066   0.000047  -0.008502   0.005473
     7  S    0.001733   0.006817   0.004604  -0.000953   0.003890   0.000768
     8  C    0.000309  -0.000067  -0.033567   0.005934  -0.003452   0.000281
     9  C    0.000039  -0.000001   0.346870  -0.050347   0.002021  -0.000468
    10  C   -0.000013  -0.000001  -0.063649   0.368041  -0.012786   0.003732
    11  C    0.000155   0.000066  -0.006428  -0.044158  -0.024731  -0.025452
    12  C    0.000079   0.000640   0.000348  -0.006944   0.375275   0.342185
    13  C   -0.000018  -0.019595  -0.000004   0.000723  -0.040625  -0.026034
    14  C    0.000019   0.003190   0.000005   0.000028   0.006453  -0.005781
    15  C   -0.003005   0.000063  -0.004544   0.004017  -0.000034   0.001214
    16  C   -0.000469   0.000004  -0.007519  -0.000021  -0.000018  -0.000000
    17  C    0.001165   0.000000   0.000020   0.000001   0.000000   0.000000
    18  C   -0.000013   0.000000  -0.000056  -0.000000   0.000000  -0.000000
    19  H   -0.000110  -0.000009  -0.000000  -0.000000   0.000000  -0.000000
    20  H    0.003500  -0.000003   0.000000   0.000000   0.000000   0.000000
    21  H   -0.000135  -0.000314  -0.000000  -0.000000  -0.000000  -0.000000
    22  H    0.000038   0.003147   0.000000   0.000000  -0.000000  -0.000000
    23  H   -0.000214   0.003542  -0.000000  -0.000000  -0.000000   0.000000
    24  H   -0.027905   0.004403  -0.000000  -0.000000   0.000001   0.000000
    25  H    0.593941   0.003833   0.000004   0.000000   0.000000  -0.000001
    26  H    0.003833   0.623078  -0.000000  -0.000000  -0.000024  -0.000011
    27  H    0.000004  -0.000000   0.610926   0.005687  -0.000157   0.000010
    28  H    0.000000  -0.000000   0.005687   0.598089  -0.001900   0.002472
    29  H    0.000000  -0.000024  -0.000157  -0.001900   0.606100  -0.043230
    30  H   -0.000001  -0.000011   0.000010   0.002472  -0.043230   0.643768
    31  H   -0.000023   0.000801  -0.000000  -0.000026  -0.001298  -0.002695
    32  H   -0.000014   0.000073  -0.000020  -0.000048   0.000730  -0.001098
    33  H    0.000003   0.004749  -0.000000  -0.000001  -0.000308   0.000134
    34  H   -0.000001  -0.000177  -0.000000  -0.000006   0.000037   0.004098
    35  H    0.009512  -0.000758   0.000209  -0.000105   0.000058  -0.000037
    36  H   -0.000043  -0.000000  -0.000370  -0.000018   0.000002  -0.000001
    37  H    0.000012   0.000000   0.012050   0.000033  -0.000001   0.000000
    38  H    0.000046   0.000000   0.000006  -0.000000   0.000000  -0.000000
    39  H    0.001295   0.000000   0.000006  -0.000000   0.000000  -0.000000
    40  H    0.000001  -0.000000  -0.000012  -0.000000   0.000000  -0.000000
    41  H    0.000000  -0.000000  -0.000000   0.000000   0.000000   0.000000
    42  H    0.000001  -0.000000   0.000006  -0.000000  -0.000000  -0.000000
              31         32         33         34         35         36
     1  C   -0.000000   0.000000  -0.000000  -0.000000  -0.000092  -0.000000
     2  C    0.000007   0.000001   0.000002  -0.000000  -0.001027   0.000000
     3  C   -0.000002  -0.000000  -0.000046   0.000000  -0.000016  -0.000000
     4  C   -0.000155  -0.000033  -0.000070  -0.000002   0.002557  -0.000001
     5  C   -0.001366   0.001462  -0.000220   0.000177  -0.003304   0.000025
     6  C   -0.039941  -0.002961  -0.003799   0.002747   0.001490   0.000014
     7  S    0.002175   0.000152  -0.000052  -0.000132  -0.015566  -0.000370
     8  C   -0.000000   0.000108   0.000001  -0.000007  -0.051888   0.002722
     9  C    0.000028   0.000195   0.000002   0.000002   0.012080  -0.001493
    10  C   -0.000328  -0.001401  -0.000052  -0.000123   0.001078   0.000582
    11  C    0.003481   0.022204   0.000339   0.000504  -0.035290   0.000256
    12  C   -0.028496  -0.008013   0.004895  -0.004618   0.000581  -0.000006
    13  C    0.355177  -0.026993  -0.025756  -0.022171   0.000754  -0.000004
    14  C   -0.049770   0.367369   0.360206   0.368015  -0.000076  -0.000003
[...]
 -0.00013904,-0.00002499,-0.00007972,-0.00008580,0.00020680,0.00007856,
 -0.00001059,0.00002941,-0.00000159,0.00000888,0.00001946,0.00000788,-0
 .00000563,0.00000333,-0.00000149,0.00104421,0.00057749,0.00055010,0.00
 317537,0.00122374,0.00031479,-0.05722236,-0.02114191,-0.06367119,-0.02
 915431,-0.01265944,-0.01009263,-0.00000031,0.00000232,-0.00000037,-0.0
 0000027,-0.00000189,-0.00000004,0.00000018,0.00000186,0.00000144,0.000
 00164,-0.00000106,-0.00000163,0.00000015,-0.00000055,-0.00000080,-0.00
 000299,-0.00000212,-0.00000094,0.00000306,0.00000084,0.00000084,-0.000
 00018,-0.00000140,0.00000986,0.00004363,0.00007142,-0.00000485,0.00000
 214,0.00002187,-0.00002136,-0.00001149,0.00000413,0.00001167,-0.000009
 85,0.00000923,0.00001043,-0.00000950,-0.00000369,0.00000164,0.00001497
 ,0.00000198,0.00000434,0.00000044,-0.00000380,-0.00000302,-0.00000902,
 0.00000152,0.00000322,0.00005471,0.00002507,0.00004507,0.00055503,-0.0
 0085903,0.00034605,-0.00041548,-0.00011401,0.00005902,0.06337362,0.027
 23853,0.07088310,0.00000026,0.00000378,0.00000187,0.00000015,-0.000006
 66,-0.00000231,0.00000040,0.00000238,0.00000015,-0.00000356,0.00000100
 ,-0.00000057,-0.00002682,0.00000782,0.00001162,0.00005033,0.00002727,-
 0.00003183,-0.00003265,0.00000145,0.00005239,-0.00000050,-0.00014433,0
 .00013625,-0.00022342,0.00020712,0.00009988,0.00019797,0.00013336,0.00
 012387,0.00002422,-0.00009826,-0.00014362,0.00001928,-0.00001319,0.000
 02703,0.00000483,0.00000398,0.00001220,0.00000142,-0.00000430,-0.00000
 694,0.00075165,-0.00049701,-0.00094470,0.00405304,0.01983405,-0.014406
 03,-0.06058172,-0.04165126,0.03254954,-0.00053706,-0.00063315,0.000466
 96,0.00000011,0.00000134,0.00000012,-0.00000066,-0.00000088,0.00000078
 ,0.00000028,0.00000155,0.00000083,0.00000079,-0.00000091,-0.00000090,-
 0.00000012,-0.00000033,-0.00000091,-0.00000165,-0.00000157,-0.00000079
 ,0.00000134,-0.00000020,-0.00000210,0.00000026,-0.00000344,0.00000975,
 0.00000024,0.00004123,-0.00001215,-0.00000063,-0.00005411,-0.00000816,
 0.00000672,-0.00000400,-0.00001400,0.00000338,0.00000679,-0.00000943,-
 0.00000561,0.00000039,-0.00000148,0.00002087,0.00000177,0.00001364,0.0
 0000044,-0.00000355,-0.00000602,-0.00001563,0.00000506,0.00000519,0.00
 000598,-0.00016529,0.00034808,0.00110586,-0.00075438,-0.00041888,-0.00
 266389,0.00377118,0.00058737,-0.00658999,-0.02252354,0.01836996,0.0630
 4293,-0.00000318,0.00000794,0.00000097,-0.00000238,-0.00000860,-0.0000
 0120,0.00000053,0.00000220,0.00000099,-0.00000261,-0.00000329,0.000004
 80,0.00000121,0.00001031,0.00000519,-0.00000898,0.00005992,-0.00009904
 ,0.00004094,-0.00003882,-0.00003129,0.00007273,-0.00014275,-0.00007477
 ,0.00012463,-0.00007256,-0.00004279,-0.00018980,0.00002085,-0.00009827
 ,0.00003566,0.00021135,-0.00046064,-0.00005306,-0.00000002,0.00000187,
 -0.00000482,-0.00003557,0.00003583,0.00004596,-0.00004029,-0.00004449,
 -0.00086107,0.00077106,0.00175224,-0.00458145,-0.02104730,0.01448821,-
 0.04118838,-0.19091462,0.11726273,0.00281252,0.00928327,-0.00864173,0.
 00000140,0.00000076,-0.00000019,0.00000275,-0.00000187,0.00000065,0.00
 000051,0.00000126,0.00000057,0.00000186,-0.00000155,-0.00000082,-0.000
 00087,0.00000017,-0.00000285,0.00000318,-0.00000107,-0.00000026,0.0000
 0107,0.00000109,-0.00000525,0.00000177,-0.00001629,0.00000557,0.000047
 20,0.00005775,0.00000521,-0.00000822,0.00010151,0.00001091,0.00000008,
 0.00000482,-0.00000039,0.00000881,-0.00000982,0.00000316,0.00000208,0.
 00002343,-0.00001462,-0.00001492,-0.00000020,-0.00001107,-0.00000311,0
 .00001768,0.00000089,-0.00000034,0.00000414,0.00000215,0.00040726,-0.0
 0000074,-0.00110088,0.00012204,0.00120377,-0.00017362,0.00429270,-0.00
 228959,-0.00100274,-0.00281279,-0.00929282,0.00710112,0.04145513,0.210
 51053,0.00000094,-0.00000161,0.00000101,0.00000164,0.00000048,-0.00000
 023,-0.00000026,0.00000026,-0.00000061,-0.00000067,0.00000310,-0.00000
 173,-0.00000698,-0.00000188,0.00000245,0.00001135,-0.00001312,0.000006
 17,-0.00000056,0.00000253,0.00000187,-0.00003951,-0.00011552,-0.000037
 76,-0.00003887,-0.00000422,-0.00002014,-0.00011225,-0.00000552,-0.0000
 1504,-0.00011106,0.00012461,0.00015947,0.00005078,0.00004409,0.0000031
 5,-0.00000144,0.00001049,-0.00001163,-0.00000171,-0.00000134,0.0000180
 1,-0.00018759,-0.00066693,0.00082452,-0.00097912,-0.00305609,0.0018996
 3,0.03207339,0.11678363,-0.14177483,0.00749391,0.02374028,-0.02199402,
 -0.00000051,0.00000026,-0.00000043,-0.00000067,0.00000068,-0.00000006,
 -0.00000012,-0.00000011,0.00000013,-0.00000053,0.00000041,-0.00000009,
 0.00000055,-0.00000023,0.00000119,-0.00000165,0.00000012,-0.00000044,0
 .00000096,-0.00000056,0.00000225,-0.00000058,0.00000287,0.00000125,-0.
 00000477,0.00002337,-0.00000715,0.00002594,-0.00000504,-0.00001406,-0.
 00001514,0.00000099,0.00001643,-0.00000648,-0.00000182,-0.00000241,-0.
 00000095,-0.00000537,0.00000534,0.00001151,0.00000588,-0.00000934,-0.0
 0000342,-0.00000144,0.00000466,-0.00000831,0.00000393,0.00000174,0.000
 10968,0.00020226,0.00030487,-0.00023651,0.00028859,-0.00001172,0.00065
 107,-0.00096157,0.00049511,-0.00136197,-0.00616481,0.00487712,-0.03698
 744,-0.12729496,0.15837895,-0.00000183,-0.00000071,-0.00000254,-0.0000
 0101,0.00000263,0.00000040,0.00000041,-0.00000079,0.00000044,0.0000010
 5,-0.00000147,-0.00000111,0.00000466,0.00000056,-0.00000044,-0.0000082
 4,0.00000540,-0.00001144,0.00000681,-0.00000952,-0.00000969,-0.0000145
 3,0.00001504,-0.00001230,0.00003741,-0.00002543,-0.00003280,-0.0000183
 7,-0.00002399,-0.00000239,-0.00002984,0.00000972,0.00002880,-0.0000100
 1,0.00000280,0.00000065,0.00000033,-0.00000317,0.00000671,-0.00000259,
 0.00000259,-0.00000455,-0.00000423,0.00021465,-0.00001987,-0.00001590,
 -0.00089558,0.00024305,-0.00077102,-0.00010336,0.00006732,-0.06137249,
 -0.04404353,0.03750226,0.00000063,-0.00000081,0.00000049,0.00000106,0.
 00000017,0.00000080,0.00000010,-0.00000038,-0.00000019,-0.00000058,-0.
 00000006,0.00000061,-0.00000023,0.00000035,-0.00000026,0.00000127,0.00
 000001,0.00000091,-0.00000111,-0.00000013,-0.00000144,-0.00000015,-0.0
 0000171,-0.00000034,0.00000119,-0.00000797,0.00000889,-0.00000452,0.00
 002072,0.00000492,0.00000123,0.00000092,-0.00000053,-0.00000124,-0.000
 00136,0.00000138,-0.00000047,0.00000096,-0.00000225,-0.00000151,-0.000
 00409,0.00000182,0.00000152,0.00000046,-0.00000267,0.00000174,-0.00000
 195,-0.00000008,-0.00001277,0.00000299,-0.00008678,-0.00001538,-0.0000
 8408,0.00007130,0.00013751,0.00034916,0.00010197,0.00028948,0.00064736
 ,-0.00007756,0.00105473,0.00019817,-0.00003360,0.06141895,0.00000182,0
 .00000427,0.00000235,0.00000164,-0.00000954,-0.00000215,-0.00000057,0.
 00000288,-0.00000048,-0.00000170,0.00000049,0.00000206,-0.00001261,0.0
 0000280,0.00000309,0.00001660,-0.00000367,-0.00000387,-0.00000768,0.00
 001582,0.00000109,0.00001057,-0.00000198,-0.00001413,-0.00000060,-0.00
 000704,0.00003146,-0.00000418,-0.00001218,0.00002319,-0.00004062,-0.00
 002529,0.00009419,0.00002146,0.00002867,-0.00000183,-0.00000572,0.0000
 0479,-0.00000085,0.00000485,-0.00000100,-0.00000144,-0.00007448,0.0002
 8094,-0.00019040,-0.00005866,0.00135252,-0.00026174,0.00342545,0.00898
 676,-0.00782286,-0.04414026,-0.18978729,0.12140354,-0.00000059,0.00000
 223,0.00000034,-0.00000112,-0.00000125,0.00000040,0.00000041,0.0000022
 1,0.00000114,0.00000152,-0.00000118,-0.00000145,-0.00000002,-0.0000006
 6,-0.00000057,-0.00000179,-0.00000076,-0.00000106,0.00000298,0.0000010
 3,0.00000135,-0.00000027,0.00000038,0.00000279,0.00000243,0.00000008,-
 0.00000923,-0.00000034,-0.00000082,-0.00000961,-0.00000729,0.00000793,
 0.00001186,-0.00000174,-0.00000417,0.00000119,-0.00000125,0.00000138,0
 .00000476,-0.00000406,0.00000078,0.00000093,0.00000054,-0.00000069,0.0
 0000214,0.00000163,-0.00000003,-0.00000153,0.00001659,-0.00013501,-0.0
 0000147,0.00002751,-0.00006750,0.00004826,-0.00034645,0.00010731,0.000
 31830,0.00015821,0.00065600,0.00081736,0.00059153,0.00031811,-0.002925
 18,0.04869339,0.20449476,-0.00000085,-0.00000756,-0.00000358,-0.000000
 85,0.00001349,0.00000255,0.00000034,-0.00000421,0.00000027,0.00000290,
 -0.00000053,-0.00000343,0.00001811,-0.00000612,-0.00000676,-0.00002521
 ,-0.00001522,0.00003614,-0.00000088,-0.00000897,0.00000974,0.00003759,
 0.00005637,-0.00002078,-0.00000943,0.00006051,-0.00004609,0.00005653,-
 0.00000441,-0.00003678,0.00000225,-0.00013081,0.00006217,-0.00000204,-
 0.00001759,0.00001035,0.00000583,0.00000164,-0.00001104,-0.00001873,0.
 00001164,0.00001610,-0.00027847,-0.00026342,0.00011495,-0.00065762,0.0
 0171205,0.00127926,0.00785963,0.02417737,-0.02177300,0.03731820,0.1205
 5519,-0.14894668,0.00000016,-0.00000270,-0.00000005,0.00000024,0.00000
 216,-0.00000047,-0.00000055,-0.00000262,-0.00000150,-0.00000225,0.0000
 0169,0.00000193,0.00000018,0.00000066,0.00000146,0.00000152,0.00000165
 ,0.00000148,-0.00000374,-0.00000139,-0.00000013,-0.00000011,0.00000377
 ,-0.00000623,-0.00003441,-0.00002793,0.00000183,0.00000728,-0.00002837
 ,0.00000835,0.00000676,-0.00000720,-0.00001090,0.00000178,0.00000632,-
 0.00000287,0.00000204,-0.00000768,-0.00000067,0.00000499,0.00000038,0.
 00000195,0.00000012,-0.00000396,-0.00000215,0.00000054,-0.00000195,0.0
 0000053,-0.00009447,0.00001117,0.00030914,0.00008067,-0.00013467,-0.00
 000137,0.00043197,-0.00112887,0.00024080,-0.00050179,0.00010862,0.0013
 2814,0.00008243,-0.00313792,-0.00572135,-0.04151767,-0.13241574,0.1660
 3508,0.00000485,0.00000437,0.00000497,0.00000571,-0.00001487,-0.000004
 34,-0.00000169,0.00000493,-0.00000177,-0.00000400,0.00000425,0.0000005
 5,-0.00002982,0.00000195,0.00000916,0.00004267,-0.00002003,0.00000914,
 -0.00003259,0.00003280,-0.00000333,-0.00001125,0.00003840,0.00006674,0
 .00000276,-0.00000758,0.00005781,-0.00001483,0.00000366,0.00003053,0.0
 0001766,-0.00001891,0.00003873,0.00003705,0.00001013,-0.00001737,-0.00
 000588,0.00001738,-0.00000959,0.00000867,-0.00000685,0.00000683,0.0002
 0962,0.00022194,-0.00038255,0.00076740,-0.00028072,0.00055933,-0.00032
 012,-0.00121032,-0.00050418,-0.17255332,0.13048807,0.01640239,-0.00000
 200,0.00000395,0.,-0.00000310,-0.00000092,0.00000070,0.00000057,0.0000
 0369,0.00000198,0.00000168,-0.00000142,-0.00000250,0.00000080,-0.00000
 169,0.00000113,-0.00000469,-0.00000079,-0.00000294,0.00000653,0.000000
 92,0.00000611,-0.00000081,0.00000509,0.00000598,0.00000291,-0.00000344
 ,-0.00001631,0.00000226,-0.00000938,-0.00001965,-0.00000510,0.00000632
 ,0.00001437,-0.00000485,-0.00000471,0.00000398,-0.00000375,-0.00000045
 ,0.00001125,-0.00000321,0.00001105,-0.00000765,-0.00000150,0.00000119,
 0.00001183,-0.00000077,0.00000191,-0.00000367,-0.00001095,-0.00001067,
 0.00001354,0.00054464,-0.00018601,-0.00010525,-0.00006318,0.00010908,-
 0.00009327,0.00064974,-0.00007671,0.00043461,-0.00007837,-0.00009334,0
 .00032413,0.00562597,-0.00650177,-0.00128284,0.18457741,-0.00000839,-0
 .00000747,-0.00000953,-0.00000815,0.00002315,0.00000574,0.00000269,-0.
 00000716,0.00000267,0.00000632,-0.00000613,-0.00000435,0.00003747,-0.0
 0000138,-0.00000838,-0.00005096,0.00003060,-0.00001825,0.00004065,-0.0
 0004568,0.00000275,-0.00006895,-0.00001424,0.00009700,-0.00001617,-0.0
 0002659,-0.00009968,0.00001999,0.00000016,-0.00007202,0.00005113,0.000
 09548,-0.00018155,-0.00009165,-0.00007795,0.00001699,0.00001863,-0.000
 02317,0.00002273,-0.00002323,0.00001536,-0.00001095,0.00082392,-0.0001
 9788,0.00033115,-0.00094695,0.00031584,-0.00282648,0.00659945,-0.00795
 211,0.00013354,0.13018701,-0.18228858,-0.01667101,0.00000309,-0.000006
 28,0.00000054,0.00000498,0.00000165,0.00000057,-0.00000074,-0.00000523
 ,-0.00000275,-0.00000341,0.00000205,0.00000397,-0.00000091,0.00000243,
 -0.00000114,0.00000693,0.00000055,0.00000526,-0.00000961,-0.00000171,-
 0.00000913,0.00000060,-0.00000656,-0.00000613,0.00000269,0.00000395,0.
 00004556,-0.00001061,0.00001401,0.00003095,0.00002411,-0.00001869,-0.0
 0003966,0.00000970,0.00001112,-0.00000775,0.00000086,0.00000077,-0.000
 01938,0.00000911,-0.00001770,0.00000883,0.00000527,-0.00000078,-0.0000
 1741,0.00000112,-0.00000430,0.00000387,0.00000692,-0.00002781,-0.00011
 905,0.00018540,0.00005092,0.00006511,-0.00023038,0.00055355,0.00005926
 ,-0.00031613,-0.00005844,0.00021866,-0.00020663,0.00075937,-0.00017964
 ,0.01692703,-0.01697689,-0.00243708,-0.14376571,0.19614638,-0.00000679
 ,-0.00000675,-0.00000806,-0.00000784,0.00002084,0.00000496,0.00000237,
 -0.00000651,0.00000253,0.00000562,-0.00000649,-0.00000360,0.00003352,0
 .00000082,-0.00000689,-0.00004270,0.00003542,-0.00003012,0.00004213,-0
 .00005134,0.00000856,-0.00012609,-0.00002815,0.00011711,-0.00005992,0.
 00000359,-0.00009231,0.00009311,0.00006745,-0.00012207,0.00016746,0.00
 001146,-0.00054375,-0.00016535,-0.00016738,0.00001117,0.00002629,-0.00
 003738,0.00002763,-0.00002044,0.00000853,-0.00001541,0.00136349,-0.001
 58813,0.00056658,-0.00139942,-0.00076503,-0.00645870,0.02338716,-0.023
 63524,-0.00239720,0.01545327,-0.01574475,-0.04815345,0.00000260,-0.000
 00559,0.00000037,0.00000404,0.00000155,0.00000014,-0.00000079,-0.00000
 456,-0.00000264,-0.00000279,0.00000187,0.00000368,-0.00000103,0.000002
 00,-0.00000124,0.00000626,0.00000050,0.00000449,-0.00000929,-0.0000018
 6,-0.00000916,0.00000094,-0.00000795,-0.00000493,-0.00001729,-0.000006
 44,0.00004745,-0.00000919,-0.00001439,0.00003374,0.00004994,-0.0000301
 0,-0.00007315,0.00001958,0.00002078,-0.00000910,-0.00000081,0.00000712
 ,-0.00002579,0.00000640,-0.00001616,0.00001081,0.00000511,0.00000212,-
 0.00001786,0.00000161,-0.00000432,0.00000429,0.00002592,0.00005540,-0.
 00001059,0.00000169,0.00029835,-0.00003257,-0.00018659,-0.00018210,0.0
 0009105,-0.00050216,0.00035942,0.00134569,0.00014847,0.00079103,0.0012
 5340,-0.01515598,0.01396370,0.00164386,-0.01793093,0.02008478,0.052978
 62,-0.00000181,-0.00000199,-0.00000160,-0.00000233,0.00000976,0.000004
 18,0.00000006,-0.00000279,0.00000095,0.00000073,-0.00000317,0.00000196
 ,0.00002058,-0.00000336,-0.00000776,-0.00002725,0.00001846,0.00003244,
 0.00000380,-0.00000300,-0.00000822,-0.00004480,0.00003700,0.00011413,-
 0.00002614,-0.00002110,-0.00000531,0.00000325,0.00000632,-0.00005647,0
 .00002192,0.00000736,-0.00004250,-0.00003562,-0.00001472,0.00000768,0.
 00000960,-0.00001878,-0.00000099,-0.00001055,0.00000555,-0.00000138,0.
 00032553,-0.00000893,0.00007242,0.00095268,0.00030405,0.00029080,0.001
 09136,0.00096672,0.00002987,-0.25091545,-0.08701070,-0.06027650,0.0000
 0087,-0.00000376,-0.00000119,0.00000121,0.00000085,-0.00000074,-0.0000
 0057,-0.00000322,-0.00000161,0.00000009,0.00000123,0.00000127,-0.00000
 052,0.00000104,-0.00000101,0.00000287,0.00000109,0.00000066,-0.0000043
 1,-0.00000005,-0.00000217,0.00000237,-0.00000129,-0.00000649,0.0000045
 7,0.00002415,0.00000660,-0.00000401,0.00000049,0.00001074,0.00000801,-
 0.00000605,-0.00001345,0.00001416,0.00000445,-0.00000548,0.00000496,0.
 00000102,-0.00000887,-0.00000268,-0.00000755,0.00000186,0.00000140,0.0
 0000036,-0.00000534,0.00000776,-0.00000237,0.00000052,-0.00002100,0.00
 000012,-0.00000980,0.00042361,-0.00052003,-0.00019757,-0.00002869,0.00
 001461,-0.00000950,0.00147417,0.00071006,0.00032570,0.00041479,0.00014
 911,-0.00061317,-0.00629802,-0.00176536,-0.00149014,-0.01935312,-0.009
 21648,-0.00520159,0.27198652,0.00000036,-0.00000006,0.00000090,0.00000
 028,0.00000125,0.00000109,-0.00000040,-0.00000021,0.00000003,-0.000000
 86,0.00000028,0.00000152,0.00000419,-0.00000174,-0.00000185,0.00000005
 ,0.00000568,0.00003178,-0.00000590,0.00002408,0.00002692,0.00013121,0.
 00003165,0.00013511,-0.00001757,0.00000782,0.00003712,-0.00001301,0.00
 000027,-0.00002103,0.00005530,-0.00002348,-0.00003826,0.00000163,-0.00
 000910,0.00000225,0.00000579,-0.00000374,-0.00000767,-0.00000558,0.000
 00023,0.00000442,0.00022679,0.00005197,-0.00009970,-0.00140970,0.00029
 802,0.00047808,-0.00974688,-0.00504691,-0.00290673,-0.08671772,-0.0846
 8097,-0.02535143,-0.00000012,-0.00000082,-0.00000072,-0.00000019,0.000
 00019,-0.00000036,-0.00000020,-0.00000075,-0.00000034,0.00000043,0.000
 00042,-0.00000010,0.00000010,0.00000008,-0.00000012,0.00000006,0.00000
 016,-0.00000026,-0.00000046,0.00000025,0.00000060,0.00000083,0.0000014
 2,-0.00000199,0.00001206,0.00002085,-0.00000601,-0.00000223,-0.0000073
 7,0.00000125,0.00000285,-0.00000168,-0.00000196,0.00001202,-0.00000033
 ,-0.00000753,0.00000232,-0.00000069,-0.00000098,-0.00000210,0.00000100
 ,-0.00000159,0.00000058,0.00000053,0.00000199,0.00000478,0.00000016,-0
 .00000184,-0.00002985,-0.00000167,0.00002611,0.00067643,-0.00003958,-0
 .00017510,-0.00004534,-0.00006075,-0.00003426,0.00048016,0.00026520,-0
 .00232761,0.00066882,0.00054646,0.00016818,-0.02188502,-0.00923511,-0.
 00692772,0.02124519,0.00974541,0.00657388,0.09635089,0.08811159,-0.000
 00161,-0.00000315,-0.00000199,-0.00000167,0.00000972,0.00000297,0.0000
 0003,-0.00000326,0.00000086,0.00000080,-0.00000329,0.00000326,0.000025
 85,-0.00000459,-0.00001044,-0.00003365,0.00001601,0.00005283,-0.000000
 20,0.00003017,0.00004311,0.00023678,0.00010107,0.00018016,-0.00001513,
 0.00007336,-0.00001552,0.00002387,-0.00000506,-0.00003519,0.00009159,-
 0.00008339,-0.00003777,0.00000517,-0.00001902,0.00002289,0.00000340,-0
 .00001916,-0.00000294,-0.00000558,0.00000184,0.00000079,-0.00003228,0.
 00019467,-0.00007230,-0.00135190,0.00106765,0.00127808,-0.02968813,-0.
 01315134,-0.00963175,-0.05950276,-0.02509913,-0.06425761,0.00000076,-0
 .00000300,-0.00000077,0.00000106,0.00000123,-0.00000073,-0.00000035,-0
 .00000253,-0.00000153,-0.00000042,0.00000104,0.00000128,-0.00000041,0.
 00000081,-0.00000044,0.00000301,0.00000160,0.00000109,-0.00000373,-0.0
 0000007,-0.00000169,0.00000175,0.00000009,-0.00000816,0.00000155,0.000
 01852,-0.00000584,0.00000228,-0.00000286,0.00001132,0.00000888,-0.0000
 0251,-0.00001066,0.00001881,-0.00000304,-0.00000854,0.00000802,0.00000
 208,-0.00000542,-0.00001077,-0.00000483,0.00000038,0.00000115,0.000002
 20,-0.00000163,0.00001154,-0.00000297,-0.00000209,-0.00003986,-0.00000
 174,-0.00001695,0.00100411,-0.00024078,0.00017710,0.00017273,-0.000069
 76,0.00000762,0.00074219,-0.00251771,-0.00602997,-0.00005012,0.0007657
 1,0.00136434,0.01893377,0.00693013,0.00548978,0.00237239,0.00160138,-0
 .00013755,0.06706710,0.03042392,0.07165963\\0.00000370,-0.00000393,0.0
 0000467,-0.00000200,-0.00000123,0.00000069,-0.00000403,-0.00000553,-0.
 00000603,-0.00000014,0.00000845,-0.00000287,0.00000378,0.00000308,-0.0
 0000712,0.00000566,0.00000866,0.00000186,-0.00000846,-0.00001249,-0.00
 000004,0.00002926,0.00001165,0.00000135,0.00000695,-0.00000611,0.00000
 120,-0.00000887,0.00001007,-0.00000564,-0.00001399,0.00002083,-0.00000
 557,-0.00000227,-0.00000501,-0.00000463,0.00000155,-0.00000258,0.00000
 870,-0.00000219,0.00000283,-0.00000170,-0.00001116,-0.00002039,0.00000
 579,0.00000436,-0.00000255,-0.00000370,-0.00000121,0.00000089,-0.00000
 035,-0.00000144,0.00000104,0.00000106,0.00000216,0.00000084,-0.0000007
 0,0.00000018,0.00000129,0.00000019,-0.00000034,0.00000124,0.00000089,0
 .00000279,0.00000295,0.00000338,0.00000169,0.00000146,0.00000045,-0.00
 000627,-0.00000369,-0.00000167,0.00000368,-0.00000116,0.00000742,0.000
 00072,-0.00000539,0.00000273,0.00000217,-0.00000228,0.00000201,-0.0000
 0029,-0.00000036,0.00000062,-0.00000251,0.00000026,-0.00000132,0.00000
 216,-0.00000118,-0.00000032,0.00000083,0.00000291,-0.00000136,-0.00000
 010,0.00000054,-0.00000221,-0.00000193,-0.00000130,0.00000076,-0.00000
 088,0.00000060,0.00000040,0.00000047,-0.00000117,-0.00000175,-0.000001
 01,-0.00000010,0.00000005,0.00000038,-0.00000026,0.00000055,-0.0000004
 4,-0.00000125,0.00000023,-0.00000076,-0.00000066,0.00000034,-0.0000002
 8,-0.00000061,0.00000014,-0.00000098,-0.00000020,0.00000124,-0.0000009
 4,-0.00000014,0.00000024\\\@


 LIFE CAN ONLY BE UNDERSTOOD BACKWARD, BUT MUST
 BE LIVED FORWARD. -- KIRKEGAARD
 Job cpu time:       0 days 22 hours 19 minutes 20.4 seconds.
 Elapsed time:       0 days  5 hours 34 minutes 55.4 seconds.
 File lengths (MBytes):  RWF=   1177 Int=      0 D2E=      0 Chk=     33 Scr=      1
 Normal termination of Gaussian 16 at Tue May 23 20:16:10 2023.
### All Done ###
