### Starting Gaussian ###
 Entering Gaussian System, Link 0=g16
 Initial command:
 /cluster/software/gaussian/gaussian-16-A.03/avx2/g16/l1.exe "/local/scratch/cz9n3/Gau-14544.inp" -scrdir="/local/scratch/cz9n3/"
 Entering Link 1 = /cluster/software/gaussian/gaussian-16-A.03/avx2/g16/l1.exe PID=     14545.
  
 Copyright (c) 1988,1990,1992,1993,1995,1998,2003,2009,2016,
            Gaussian, Inc.  All Rights Reserved.
  
 This is part of the Gaussian(R) 16 program.  It is based on
 the Gaussian(R) 09 system (copyright 2009, Gaussian, Inc.),
 the Gaussian(R) 03 system (copyright 2003, Gaussian, Inc.),
 the Gaussian(R) 98 system (copyright 1998, Gaussian, Inc.),
 the Gaussian(R) 94 system (copyright 1995, Gaussian, Inc.),
 the Gaussian 92(TM) system (copyright 1992, Gaussian, Inc.),
 the Gaussian 90(TM) system (copyright 1990, Gaussian, Inc.),
 the Gaussian 88(TM) system (copyright 1988, Gaussian, Inc.),
 the Gaussian 86(TM) system (copyright 1986, Carnegie Mellon
 University), and the Gaussian 82(TM) system (copyright 1983,
 Carnegie Mellon University). Gaussian is a federally registered
 trademark of Gaussian, Inc.
  
 This software contains proprietary and confidential information,
 including trade secrets, belonging to Gaussian, Inc.
  
 This software is provided under written license and may be
 used, copied, transmitted, or stored only in accord with that
 written license.
  
 The following legend is applicable only to US Government
 contracts under FAR:
  
                    RESTRICTED RIGHTS LEGEND
  
 Use, reproduction and disclosure by the US Government is
 subject to restrictions as set forth in subparagraphs (a)
 and (c) of the Commercial Computer Software - Restricted
 Rights clause in FAR 52.227-19.
  
 Gaussian, Inc.
 340 Quinnipiac St., Bldg. 40, Wallingford CT 06492
  
  
 ---------------------------------------------------------------
 Warning -- This program may not be used in any manner that
 competes with the business of Gaussian, Inc. or will provide
 assistance to any competitor of Gaussian, Inc.  The licensee
 of this program is prohibited from giving any competitor of
 Gaussian, Inc. access to this program.  By using this program,
 the user acknowledges that Gaussian, Inc. is engaged in the
 business of creating and licensing software in the field of
 computational chemistry and represents and warrants to the
 licensee that it is not a competitor of Gaussian, Inc. and that
 it will not use this program in any manner prohibited above.
 ---------------------------------------------------------------
  

 Cite this work as:
 Gaussian 16, Revision A.03,
 M. J. Frisch, G. W. Trucks, H. B. Schlegel, G. E. Scuseria, 
 M. A. Robb, J. R. Cheeseman, G. Scalmani, V. Barone, 
 G. A. Petersson, H. Nakatsuji, X. Li, M. Caricato, A. V. Marenich, 
 J. Bloino, B. G. Janesko, R. Gomperts, B. Mennucci, H. P. Hratchian, 
 J. V. Ortiz, A. F. Izmaylov, J. L. Sonnenberg, D. Williams-Young, 
 F. Ding, F. Lipparini, F. Egidi, J. Goings, B. Peng, A. Petrone, 
 T. Henderson, D. Ranasinghe, V. G. Zakrzewski, J. Gao, N. Rega, 
 G. Zheng, W. Liang, M. Hada, M. Ehara, K. Toyota, R. Fukuda, 
 J. Hasegawa, M. Ishida, T. Nakajima, Y. Honda, O. Kitao, H. Nakai, 
 T. Vreven, K. Throssell, J. A. Montgomery, Jr., J. E. Peralta, 
 F. Ogliaro, M. J. Bearpark, J. J. Heyd, E. N. Brothers, K. N. Kudin, 
 V. N. Staroverov, T. A. Keith, R. Kobayashi, J. Normand, 
 K. Raghavachari, A. P. Rendell, J. C. Burant, S. S. Iyengar, 
 J. Tomasi, M. Cossi, J. M. Millam, M. Klene, C. Adamo, R. Cammi, 
 J. W. Ochterski, R. L. Martin, K. Morokuma, O. Farkas, 
 J. B. Foresman, and D. J. Fox, Gaussian, Inc., Wallingford CT, 2016.
 
 ******************************************
 Gaussian 16:  ES64L-G16RevA.03 25-Dec-2016
                22-May-2023 
 ******************************************
 %chk=CdCqCrCqCqCCdOrCCCCCCCrC1CCCC1.chk
 %NProcShared=20
 Will use up to   20 processors via shared memory.
 -----------------------------
 # opt freq b3lyp/6-31g(2df,p)
 -----------------------------
 1/18=20,19=15,26=3,38=1/1,3;
 2/9=110,12=2,17=6,18=5,40=1/2;
 3/5=1,6=6,7=104,11=2,25=1,30=1,71=1,74=-5/1,2,3;
 4//1;
 5/5=2,38=5/2;
 6/7=2,8=2,9=2,10=2,28=1/1;
 7//1,2,3,16;
 1/18=20,19=15,26=3/3(2);
 2/9=110/2;
 99//99;
 2/9=110/2;
 3/5=1,6=6,7=104,11=2,25=1,30=1,71=1,74=-5/1,2,3;
 4/5=5,16=3,69=1/1;
 5/5=2,38=5/2;
 7//1,2,3,16;
 1/18=20,19=15,26=3/3(-5);
 2/9=110/2;
 6/7=2,8=2,9=2,10=2,19=2,28=1/1;
 99/9=1/99;
 -------------------
 Title Card Required
 -------------------
 Symbolic Z-matrix:
 Charge =  0 Multiplicity = 1
 C                     0.90428   0.08203  -0.22432 
 C                     2.23918  -0.06189  -0.15484 
 C                     2.78669  -0.90951  -1.26441 
 C                     3.16169   0.60242   0.92725 
 C                     2.87722   0.08501   2.41566 
 C                     3.65561   0.83456   3.53972 
 C                     5.14374   0.60718   3.63495 
 O                     5.89851   1.36751   4.21569 
 C                     1.37281   0.21168   2.75186 
 C                     0.95447  -0.32141   4.10361 
 C                    -0.54778  -0.16457   4.26728 
 C                    -0.93605  -0.72873   5.6181 
 C                    -2.42509  -0.57096   5.84418 
 C                    -2.80349  -1.13709   7.20325 
 C                    -4.29132  -0.98275   7.4373 
 C                     4.6976    0.55674   0.62695 
 C                     5.2924   -0.74993   0.11725 
 C                     6.65885  -0.43133  -0.41908 
 C                     6.59819   1.05764  -0.7633 
 C                     5.24331   1.61879  -0.30688 
 H                     0.32889  -0.49826  -0.94254 
 H                     0.32926   0.70515   0.44399 
 H                     2.05009  -1.27009  -1.98448 
 H                     3.21566  -1.82719  -0.84844 
 H                     3.48231  -0.30561  -1.8608 
 H                     2.8847    1.66978   0.93778 
 H                     3.1447   -0.97841   2.45385 
 H                     3.33051   0.47221   4.51804 
 H                     3.44994   1.90989   3.49562 
 H                     5.52082  -0.32983   3.18297 
 H                     0.79549  -0.40475   2.06604 
 H                     1.05055   1.25724   2.64228 
 H                     1.43904   0.2109    4.92339 
 H                     1.23236  -1.37988   4.16552 
 H                    -1.08404  -0.68742   3.46526 
 H                    -0.82439   0.89589   4.20233 
 H                    -0.37898  -0.20844   6.40721 
 H                    -0.65525  -1.78803   5.66677 
 H                    -2.9764   -1.09007   5.05074 
 H                    -2.69658   0.4904    5.78825 
 H                    -2.24771  -0.61651   7.99217 
 H                    -2.52718  -2.19683   7.25577 
 H                    -4.57817   0.07321   7.40782 
 H                    -4.56423  -1.38977   8.41377 
 H                    -4.85923  -1.51456   6.66735 
 H                     5.23921   0.81577   1.52181 
 H                     4.86209  -1.0758   -0.80697 
 H                     5.20723  -1.59203   0.8089 
 H                     6.83012  -1.02207  -1.33093 
 H                     7.43768  -0.69943   0.29639 
 H                     6.70412   1.21711  -1.8396 
 H                     7.42681   1.5626   -0.2596 
 H                     4.56405   1.82156  -1.1371 
 H                     5.39091   2.56235   0.23798 
 

 GradGradGradGradGradGradGradGradGradGradGradGradGradGradGradGradGradGrad
 Berny optimization.
 Initialization pass.
                           ----------------------------
                           !    Initial Parameters    !
                           ! (Angstroms and Degrees)  !
 --------------------------                            --------------------------
 ! Name  Definition              Value          Derivative Info.                !
 --------------------------------------------------------------------------------
 ! R1    R(1,2)                  1.3444         estimate D2E/DX2                !
 ! R2    R(1,21)                 1.088          estimate D2E/DX2                !
 ! R3    R(1,22)                 1.0796         estimate D2E/DX2                !
 ! R4    R(2,3)                  1.4998         estimate D2E/DX2                !
 ! R5    R(2,4)                  1.5695         estimate D2E/DX2                !
 ! R6    R(3,23)                 1.0914         estimate D2E/DX2                !
 ! R7    R(3,24)                 1.0951         estimate D2E/DX2                !
 ! R8    R(3,25)                 1.0974         estimate D2E/DX2                !
 ! R9    R(4,5)                  1.6012         estimate D2E/DX2                !
 ! R10   R(4,16)                 1.5657         estimate D2E/DX2                !
 ! R11   R(4,26)                 1.1028         estimate D2E/DX2                !
 ! R12   R(5,6)                  1.5592         estimate D2E/DX2                !
 ! R13   R(5,9)                  1.5467         estimate D2E/DX2                !
 ! R14   R(5,27)                 1.0972         estimate D2E/DX2                !
 ! R15   R(6,7)                  1.5084         estimate D2E/DX2                !
 ! R16   R(6,28)                 1.0927         estimate D2E/DX2                !
 ! R17   R(6,29)                 1.0957         estimate D2E/DX2                !
 ! R18   R(7,8)                  1.2186         estimate D2E/DX2                !
 ! R19   R(7,30)                 1.1066         estimate D2E/DX2                !
 ! R20   R(9,10)                 1.5121         estimate D2E/DX2                !
 ! R21   R(9,31)                 1.0879         estimate D2E/DX2                !
 ! R22   R(9,32)                 1.0996         estimate D2E/DX2                !
 ! R23   R(10,11)                1.5193         estimate D2E/DX2                !
 ! R24   R(10,33)                1.091          estimate D2E/DX2                !
 ! R25   R(10,34)                1.0961         estimate D2E/DX2                !
 ! R26   R(11,12)                1.5145         estimate D2E/DX2                !
 ! R27   R(11,35)                1.0974         estimate D2E/DX2                !
 ! R28   R(11,36)                1.0979         estimate D2E/DX2                !
 ! R29   R(12,13)                1.5143         estimate D2E/DX2                !
 ! R30   R(12,37)                1.0971         estimate D2E/DX2                !
 ! R31   R(12,38)                1.097          estimate D2E/DX2                !
 ! R32   R(13,14)                1.5201         estimate D2E/DX2                !
 ! R33   R(13,39)                1.0968         estimate D2E/DX2                !
 ! R34   R(13,40)                1.097          estimate D2E/DX2                !
 ! R35   R(14,15)                1.514          estimate D2E/DX2                !
 ! R36   R(14,41)                1.0965         estimate D2E/DX2                !
 ! R37   R(14,42)                1.0964         estimate D2E/DX2                !
 ! R38   R(15,43)                1.0946         estimate D2E/DX2                !
 ! R39   R(15,44)                1.0925         estimate D2E/DX2                !
 ! R40   R(15,45)                1.0946         estimate D2E/DX2                !
 ! R41   R(16,17)                1.5235         estimate D2E/DX2                !
 ! R42   R(16,20)                1.5158         estimate D2E/DX2                !
 ! R43   R(16,46)                1.0776         estimate D2E/DX2                !
 ! R44   R(17,18)                1.5021         estimate D2E/DX2                !
 ! R45   R(17,47)                1.0703         estimate D2E/DX2                !
 ! R46   R(17,48)                1.0931         estimate D2E/DX2                !
 ! R47   R(18,19)                1.5294         estimate D2E/DX2                !
 ! R48   R(18,49)                1.0999         estimate D2E/DX2                !
 ! R49   R(18,50)                1.091          estimate D2E/DX2                !
 ! R50   R(19,20)                1.5359         estimate D2E/DX2                !
 ! R51   R(19,51)                1.0932         estimate D2E/DX2                !
 ! R52   R(19,52)                1.0933         estimate D2E/DX2                !
 ! R53   R(20,53)                1.0917         estimate D2E/DX2                !
 ! R54   R(20,54)                1.0995         estimate D2E/DX2                !
 ! A1    A(2,1,21)             120.1418         estimate D2E/DX2                !
 ! A2    A(2,1,22)             123.9614         estimate D2E/DX2                !
 ! A3    A(21,1,22)            115.7736         estimate D2E/DX2                !
 ! A4    A(1,2,3)              112.6273         estimate D2E/DX2                !
 ! A5    A(1,2,4)              125.0251         estimate D2E/DX2                !
 ! A6    A(3,2,4)              122.3245         estimate D2E/DX2                !
 ! A7    A(2,3,23)             115.3695         estimate D2E/DX2                !
 ! A8    A(2,3,24)             109.6083         estimate D2E/DX2                !
 ! A9    A(2,3,25)             108.8116         estimate D2E/DX2                !
 ! A10   A(23,3,24)            103.7768         estimate D2E/DX2                !
 ! A11   A(23,3,25)            104.5412         estimate D2E/DX2                !
 ! A12   A(24,3,25)            114.7897         estimate D2E/DX2                !
 ! A13   A(2,4,5)              113.5582         estimate D2E/DX2                !
 ! A14   A(2,4,16)             115.5961         estimate D2E/DX2                !
 ! A15   A(2,4,26)             105.5825         estimate D2E/DX2                !
 ! A16   A(5,4,16)             110.0683         estimate D2E/DX2                !
 ! A17   A(5,4,26)             105.0259         estimate D2E/DX2                !
 ! A18   A(16,4,26)            106.05           estimate D2E/DX2                !
 ! A19   A(4,5,6)              115.2191         estimate D2E/DX2                !
 ! A20   A(4,5,9)              110.3882         estimate D2E/DX2                !
 ! A21   A(4,5,27)             107.5912         estimate D2E/DX2                !
 ! A22   A(6,5,9)              106.8274         estimate D2E/DX2                !
 ! A23   A(6,5,27)             108.6098         estimate D2E/DX2                !
 ! A24   A(9,5,27)             107.9943         estimate D2E/DX2                !
 ! A25   A(5,6,7)              117.7457         estimate D2E/DX2                !
 ! A26   A(5,6,28)             109.7241         estimate D2E/DX2                !
 ! A27   A(5,6,29)             110.4295         estimate D2E/DX2                !
 ! A28   A(7,6,28)             100.7778         estimate D2E/DX2                !
 ! A29   A(7,6,29)             109.6127         estimate D2E/DX2                !
 ! A30   A(28,6,29)            107.7953         estimate D2E/DX2                !
 ! A31   A(6,7,8)              123.1663         estimate D2E/DX2                !
 ! A32   A(6,7,30)             115.9793         estimate D2E/DX2                !
 ! A33   A(8,7,30)             120.7919         estimate D2E/DX2                !
 ! A34   A(5,9,10)             115.7559         estimate D2E/DX2                !
 ! A35   A(5,9,31)             109.4335         estimate D2E/DX2                !
 ! A36   A(5,9,32)             109.9545         estimate D2E/DX2                !
 ! A37   A(10,9,31)            102.531          estimate D2E/DX2                !
 ! A38   A(10,9,32)            110.0744         estimate D2E/DX2                !
 ! A39   A(31,9,32)            108.6885         estimate D2E/DX2                !
 ! A40   A(9,10,11)            109.48           estimate D2E/DX2                !
 ! A41   A(9,10,33)            112.1382         estimate D2E/DX2                !
 ! A42   A(9,10,34)            108.7114         estimate D2E/DX2                !
 ! A43   A(11,10,33)           107.9311         estimate D2E/DX2                !
 ! A44   A(11,10,34)           110.1389         estimate D2E/DX2                !
 ! A45   A(33,10,34)           108.4289         estimate D2E/DX2                !
 ! A46   A(10,11,12)           108.1272         estimate D2E/DX2                !
 ! A47   A(10,11,35)           110.8112         estimate D2E/DX2                !
 ! A48   A(10,11,36)           110.0278         estimate D2E/DX2                !
 ! A49   A(12,11,35)           110.4327         estimate D2E/DX2                !
 ! A50   A(12,11,36)           110.3642         estimate D2E/DX2                !
 ! A51   A(35,11,36)           107.0896         estimate D2E/DX2                !
 ! A52   A(11,12,13)           110.2691         estimate D2E/DX2                !
 ! A53   A(11,12,37)           109.5534         estimate D2E/DX2                !
 ! A54   A(11,12,38)           109.4911         estimate D2E/DX2                !
 ! A55   A(13,12,37)           110.0279         estimate D2E/DX2                !
 ! A56   A(13,12,38)           110.2235         estimate D2E/DX2                !
 ! A57   A(37,12,38)           107.2209         estimate D2E/DX2                !
 ! A58   A(12,13,14)           109.8429         estimate D2E/DX2                !
 ! A59   A(12,13,39)           109.6908         estimate D2E/DX2                !
 ! A60   A(12,13,40)           109.6667         estimate D2E/DX2                !
 ! A61   A(14,13,39)           110.2051         estimate D2E/DX2                !
 ! A62   A(14,13,40)           110.14           estimate D2E/DX2                !
 ! A63   A(39,13,40)           107.2564         estimate D2E/DX2                !
 ! A64   A(13,14,15)           110.1738         estimate D2E/DX2                !
 ! A65   A(13,14,41)           109.8938         estimate D2E/DX2                !
 ! A66   A(13,14,42)           109.8803         estimate D2E/DX2                !
 ! A67   A(15,14,41)           109.7844         estimate D2E/DX2                !
 ! A68   A(15,14,42)           109.8023         estimate D2E/DX2                !
 ! A69   A(41,14,42)           107.2584         estimate D2E/DX2                !
 ! A70   A(14,15,43)           110.5912         estimate D2E/DX2                !
 ! A71   A(14,15,44)           110.2223         estimate D2E/DX2                !
 ! A72   A(14,15,45)           110.5844         estimate D2E/DX2                !
 ! A73   A(43,15,44)           108.5418         estimate D2E/DX2                !
 ! A74   A(43,15,45)           108.2872         estimate D2E/DX2                !
 ! A75   A(44,15,45)           108.5466         estimate D2E/DX2                !
 ! A76   A(4,16,17)            118.1773         estimate D2E/DX2                !
 ! A77   A(4,16,20)            116.8003         estimate D2E/DX2                !
 ! A78   A(4,16,46)            109.0727         estimate D2E/DX2                !
 ! A79   A(17,16,20)           104.7301         estimate D2E/DX2                !
 ! A80   A(17,16,46)           106.7245         estimate D2E/DX2                !
 ! A81   A(20,16,46)            99.3358         estimate D2E/DX2                !
 ! A82   A(16,17,18)           107.0198         estimate D2E/DX2                !
 ! A83   A(16,17,47)           113.1458         estimate D2E/DX2                !
 ! A84   A(16,17,48)           114.7495         estimate D2E/DX2                !
 ! A85   A(18,17,47)            97.0072         estimate D2E/DX2                !
 ! A86   A(18,17,48)           117.4011         estimate D2E/DX2                !
 ! A87   A(47,17,48)           106.2909         estimate D2E/DX2                !
 ! A88   A(17,18,19)           104.5229         estimate D2E/DX2                !
 ! A89   A(17,18,49)           108.8893         estimate D2E/DX2                !
 ! A90   A(17,18,50)           111.2915         estimate D2E/DX2                !
 ! A91   A(19,18,49)           110.0271         estimate D2E/DX2                !
 ! A92   A(19,18,50)           114.5275         estimate D2E/DX2                !
 ! A93   A(49,18,50)           107.4889         estimate D2E/DX2                !
 ! A94   A(18,19,20)           108.8928         estimate D2E/DX2                !
 ! A95   A(18,19,51)           111.0852         estimate D2E/DX2                !
 ! A96   A(18,19,52)           108.4149         estimate D2E/DX2                !
 ! A97   A(20,19,51)           108.9513         estimate D2E/DX2                !
 ! A98   A(20,19,52)           111.2803         estimate D2E/DX2                !
 ! A99   A(51,19,52)           108.2268         estimate D2E/DX2                !
 ! A100  A(16,20,19)           104.1622         estimate D2E/DX2                !
 ! A101  A(16,20,53)           112.0018         estimate D2E/DX2                !
 ! A102  A(16,20,54)           110.139          estimate D2E/DX2                !
 ! A103  A(19,20,53)           113.0013         estimate D2E/DX2                !
 ! A104  A(19,20,54)           110.0217         estimate D2E/DX2                !
 ! A105  A(53,20,54)           107.5169         estimate D2E/DX2                !
 ! D1    D(21,1,2,3)             8.2507         estimate D2E/DX2                !
 ! D2    D(21,1,2,4)          -173.4685         estimate D2E/DX2                !
 ! D3    D(22,1,2,3)          -175.9593         estimate D2E/DX2                !
 ! D4    D(22,1,2,4)             2.3216         estimate D2E/DX2                !
 ! D5    D(1,2,3,23)             1.5364         estimate D2E/DX2                !
 ! D6    D(1,2,3,24)          -115.1244         estimate D2E/DX2                !
 ! D7    D(1,2,3,25)           118.6068         estimate D2E/DX2                !
 ! D8    D(4,2,3,23)          -176.7977         estimate D2E/DX2                !
 ! D9    D(4,2,3,24)            66.5416         estimate D2E/DX2                !
 ! D10   D(4,2,3,25)           -59.7272         estimate D2E/DX2                !
 ! D11   D(1,2,4,5)             64.5004         estimate D2E/DX2                !
 ! D12   D(1,2,4,16)          -166.895          estimate D2E/DX2                !
 ! D13   D(1,2,4,26)           -50.0325         estimate D2E/DX2                !
 ! D14   D(3,2,4,5)           -117.3775         estimate D2E/DX2                !
 ! D15   D(3,2,4,16)            11.2272         estimate D2E/DX2                !
 ! D16   D(3,2,4,26)           128.0896         estimate D2E/DX2                !
 ! D17   D(2,4,5,6)           -173.3099         estimate D2E/DX2                !
 ! D18   D(2,4,5,9)            -52.2176         estimate D2E/DX2                !
 ! D19   D(2,4,5,27)            65.4002         estimate D2E/DX2                !
 ! D20   D(16,4,5,6)            55.3095         estimate D2E/DX2                !
 ! D21   D(16,4,5,9)           176.4018         estimate D2E/DX2                !
 ! D22   D(16,4,5,27)          -65.9803         estimate D2E/DX2                !
 ! D23   D(26,4,5,6)           -58.4459         estimate D2E/DX2                !
 ! D24   D(26,4,5,9)            62.6464         estimate D2E/DX2                !
 ! D25   D(26,4,5,27)         -179.7357         estimate D2E/DX2                !
 ! D26   D(2,4,16,17)          -44.3766         estimate D2E/DX2                !
 ! D27   D(2,4,16,20)           82.0476         estimate D2E/DX2                !
 ! D28   D(2,4,16,46)         -166.4247         estimate D2E/DX2                !
 ! D29   D(5,4,16,17)           85.9257         estimate D2E/DX2                !
 ! D30   D(5,4,16,20)         -147.6501         estimate D2E/DX2                !
 ! D31   D(5,4,16,46)          -36.1224         estimate D2E/DX2                !
 ! D32   D(26,4,16,17)        -160.9761         estimate D2E/DX2                !
 ! D33   D(26,4,16,20)         -34.5519         estimate D2E/DX2                !
 ! D34   D(26,4,16,46)          76.9758         estimate D2E/DX2                !
 ! D35   D(4,5,6,7)            -70.5784         estimate D2E/DX2                !
 ! D36   D(4,5,6,28)           175.0244         estimate D2E/DX2                !
 ! D37   D(4,5,6,29)            56.3388         estimate D2E/DX2                !
 ! D38   D(9,5,6,7)            166.414          estimate D2E/DX2                !
 ! D39   D(9,5,6,28)            52.0168         estimate D2E/DX2                !
 ! D40   D(9,5,6,29)           -66.6688         estimate D2E/DX2                !
 ! D41   D(27,5,6,7)            50.1576         estimate D2E/DX2                !
 ! D42   D(27,5,6,28)          -64.2396         estimate D2E/DX2                !
 ! D43   D(27,5,6,29)          177.0748         estimate D2E/DX2                !
 ! D44   D(4,5,9,10)           176.4923         estimate D2E/DX2                !
 ! D45   D(4,5,9,31)            61.2989         estimate D2E/DX2                !
 ! D46   D(4,5,9,32)           -58.0141         estimate D2E/DX2                !
 ! D47   D(6,5,9,10)           -57.5423         estimate D2E/DX2                !
 ! D48   D(6,5,9,31)          -172.7357         estimate D2E/DX2                !
 ! D49   D(6,5,9,32)            67.9514         estimate D2E/DX2                !
 ! D50   D(27,5,9,10)           59.123          estimate D2E/DX2                !
 ! D51   D(27,5,9,31)          -56.0703         estimate D2E/DX2                !
 ! D52   D(27,5,9,32)         -175.3833         estimate D2E/DX2                !
 ! D53   D(5,6,7,8)            160.4166         estimate D2E/DX2                !
 ! D54   D(5,6,7,30)           -22.4431         estimate D2E/DX2                !
 ! D55   D(28,6,7,8)           -80.3533         estimate D2E/DX2                !
 ! D56   D(28,6,7,30)           96.787          estimate D2E/DX2                !
 ! D57   D(29,6,7,8)            33.106          estimate D2E/DX2                !
 ! D58   D(29,6,7,30)         -149.7537         estimate D2E/DX2                !
 ! D59   D(5,9,10,11)         -178.2974         estimate D2E/DX2                !
 ! D60   D(5,9,10,33)           61.9362         estimate D2E/DX2                !
 ! D61   D(5,9,10,34)          -57.9402         estimate D2E/DX2                !
 ! D62   D(31,9,10,11)         -59.2416         estimate D2E/DX2                !
 ! D63   D(31,9,10,33)        -179.008          estimate D2E/DX2                !
 ! D64   D(31,9,10,34)          61.1156         estimate D2E/DX2                !
 ! D65   D(32,9,10,11)          56.2703         estimate D2E/DX2                !
 ! D66   D(32,9,10,33)         -63.4961         estimate D2E/DX2                !
 ! D67   D(32,9,10,34)         176.6275         estimate D2E/DX2                !
 ! D68   D(9,10,11,12)         179.03           estimate D2E/DX2                !
 ! D69   D(9,10,11,35)          57.8713         estimate D2E/DX2                !
 ! D70   D(9,10,11,36)         -60.3686         estimate D2E/DX2                !
 ! D71   D(33,10,11,12)        -58.6538         estimate D2E/DX2                !
 ! D72   D(33,10,11,35)       -179.8125         estimate D2E/DX2                !
 ! D73   D(33,10,11,36)         61.9476         estimate D2E/DX2                !
 ! D74   D(34,10,11,12)         59.5475         estimate D2E/DX2                !
 ! D75   D(34,10,11,35)        -61.6112         estimate D2E/DX2                !
 ! D76   D(34,10,11,36)       -179.8511         estimate D2E/DX2                !
 ! D77   D(10,11,12,13)        178.8464         estimate D2E/DX2                !
 ! D78   D(10,11,12,37)         57.6086         estimate D2E/DX2                !
 ! D79   D(10,11,12,38)        -59.7129         estimate D2E/DX2                !
 ! D80   D(35,11,12,13)        -59.7604         estimate D2E/DX2                !
 ! D81   D(35,11,12,37)        179.0018         estimate D2E/DX2                !
 ! D82   D(35,11,12,38)         61.6803         estimate D2E/DX2                !
 ! D83   D(36,11,12,13)         58.4551         estimate D2E/DX2                !
 ! D84   D(36,11,12,37)        -62.7827         estimate D2E/DX2                !
 ! D85   D(36,11,12,38)        179.8958         estimate D2E/DX2                !
 ! D86   D(11,12,13,14)       -179.8695         estimate D2E/DX2                !
 ! D87   D(11,12,13,39)         58.8565         estimate D2E/DX2                !
 ! D88   D(11,12,13,40)        -58.6915         estimate D2E/DX2                !
 ! D89   D(37,12,13,14)        -58.9147         estimate D2E/DX2                !
 ! D90   D(37,12,13,39)        179.8113         estimate D2E/DX2                !
 ! D91   D(37,12,13,40)         62.2632         estimate D2E/DX2                !
 ! D92   D(38,12,13,14)         59.1262         estimate D2E/DX2                !
 ! D93   D(38,12,13,39)        -62.1478         estimate D2E/DX2                !
 ! D94   D(38,12,13,40)       -179.6958         estimate D2E/DX2                !
 ! D95   D(12,13,14,15)        179.9821         estimate D2E/DX2                !
 ! D96   D(12,13,14,41)         58.8881         estimate D2E/DX2                !
 ! D97   D(12,13,14,42)        -58.9103         estimate D2E/DX2                !
 ! D98   D(39,13,14,15)        -59.053          estimate D2E/DX2                !
 ! D99   D(39,13,14,41)        179.8529         estimate D2E/DX2                !
 ! D100  D(39,13,14,42)         62.0546         estimate D2E/DX2                !
 ! D101  D(40,13,14,15)         59.089          estimate D2E/DX2                !
 ! D102  D(40,13,14,41)        -62.0051         estimate D2E/DX2                !
 ! D103  D(40,13,14,42)       -179.8034         estimate D2E/DX2                !
 ! D104  D(13,14,15,43)        -59.9952         estimate D2E/DX2                !
 ! D105  D(13,14,15,44)        179.9776         estimate D2E/DX2                !
 ! D106  D(13,14,15,45)         59.9488         estimate D2E/DX2                !
 ! D107  D(41,14,15,43)         61.1642         estimate D2E/DX2                !
 ! D108  D(41,14,15,44)        -58.863          estimate D2E/DX2                !
 ! D109  D(41,14,15,45)       -178.8917         estimate D2E/DX2                !
 ! D110  D(42,14,15,43)        178.8505         estimate D2E/DX2                !
 ! D111  D(42,14,15,44)         58.8233         estimate D2E/DX2                !
 ! D112  D(42,14,15,45)        -61.2054         estimate D2E/DX2                !
 ! D113  D(4,16,17,18)         165.6214         estimate D2E/DX2                !
 ! D114  D(4,16,17,47)          59.9806         estimate D2E/DX2                !
 ! D115  D(4,16,17,48)         -62.2273         estimate D2E/DX2                !
 ! D116  D(20,16,17,18)         33.5763         estimate D2E/DX2                !
 ! D117  D(20,16,17,47)        -72.0645         estimate D2E/DX2                !
 ! D118  D(20,16,17,48)        165.7276         estimate D2E/DX2                !
 ! D119  D(46,16,17,18)        -71.1463         estimate D2E/DX2                !
 ! D120  D(46,16,17,47)       -176.7871         estimate D2E/DX2                !
 ! D121  D(46,16,17,48)         61.005          estimate D2E/DX2                !
 ! D122  D(4,16,20,19)        -161.9231         estimate D2E/DX2                !
 ! D123  D(4,16,20,53)         -39.4695         estimate D2E/DX2                !
 ! D124  D(4,16,20,54)          80.1309         estimate D2E/DX2                !
 ! D125  D(17,16,20,19)        -29.0943         estimate D2E/DX2                !
 ! D126  D(17,16,20,53)         93.3592         estimate D2E/DX2                !
 ! D127  D(17,16,20,54)       -147.0404         estimate D2E/DX2                !
 ! D128  D(46,16,20,19)         81.073          estimate D2E/DX2                !
 ! D129  D(46,16,20,53)       -156.4734         estimate D2E/DX2                !
 ! D130  D(46,16,20,54)        -36.873          estimate D2E/DX2                !
 ! D131  D(16,17,18,19)        -23.5458         estimate D2E/DX2                !
 ! D132  D(16,17,18,49)       -141.097          estimate D2E/DX2                !
 ! D133  D(16,17,18,50)        100.593          estimate D2E/DX2                !
 ! D134  D(47,17,18,19)         93.313          estimate D2E/DX2                !
 ! D135  D(47,17,18,49)        -24.2382         estimate D2E/DX2                !
 ! D136  D(47,17,18,50)       -142.5482         estimate D2E/DX2                !
 ! D137  D(48,17,18,19)       -154.2259         estimate D2E/DX2                !
 ! D138  D(48,17,18,49)         88.2229         estimate D2E/DX2                !
 ! D139  D(48,17,18,50)        -30.0871         estimate D2E/DX2                !
 ! D140  D(17,18,19,20)          5.0818         estimate D2E/DX2                !
 ! D141  D(17,18,19,51)       -114.9079         estimate D2E/DX2                !
 ! D142  D(17,18,19,52)        126.2964         estimate D2E/DX2                !
 ! D143  D(49,18,19,20)        121.8495         estimate D2E/DX2                !
 ! D144  D(49,18,19,51)          1.8598         estimate D2E/DX2                !
 ! D145  D(49,18,19,52)       -116.936          estimate D2E/DX2                !
 ! D146  D(50,18,19,20)       -116.9579         estimate D2E/DX2                !
 ! D147  D(50,18,19,51)        123.0524         estimate D2E/DX2                !
 ! D148  D(50,18,19,52)          4.2567         estimate D2E/DX2                !
 ! D149  D(18,19,20,16)         15.1029         estimate D2E/DX2                !
 ! D150  D(18,19,20,53)       -106.6913         estimate D2E/DX2                !
 ! D151  D(18,19,20,54)        133.1296         estimate D2E/DX2                !
 ! D152  D(51,19,20,16)        136.4049         estimate D2E/DX2                !
 ! D153  D(51,19,20,53)         14.6107         estimate D2E/DX2                !
 ! D154  D(51,19,20,54)       -105.5684         estimate D2E/DX2                !
 ! D155  D(52,19,20,16)       -104.3436         estimate D2E/DX2                !
 ! D156  D(52,19,20,53)        133.8622         estimate D2E/DX2                !
 ! D157  D(52,19,20,54)         13.6831         estimate D2E/DX2                !
 --------------------------------------------------------------------------------
 Trust Radius=3.00D-01 FncErr=1.00D-07 GrdErr=1.00D-06 EigMax=2.50D+02 EigMin=1.00D-04
 Number of steps in this run=    324 maximum allowed number of steps=    324.
 GradGradGradGradGradGradGradGradGradGradGradGradGradGradGradGradGradGrad

 Stoichiometry    C19H34O
 Framework group  C1[X(C19H34O)]
 Deg. of freedom   156
 Full point group                 C1      NOp   1
 Largest Abelian subgroup         C1      NOp   1
 Largest concise Abelian subgroup C1      NOp   1
                         Standard orientation:                         
 ---------------------------------------------------------------------
 Center     Atomic      Atomic             Coordinates (Angstroms)
 Number     Number       Type             X           Y           Z
 ---------------------------------------------------------------------
      1          6           0        0.683975   -2.911313   -0.657807
      2          6           0        1.659477   -2.103472   -0.206933
      3          6           0        2.676740   -2.832726    0.619346
      4          6           0        1.778228   -0.570912   -0.523810
      5          6           0        0.574217    0.300868    0.071470
      6          6           0        0.564855    1.800267   -0.356245
      7          6           0        1.633672    2.699607    0.213070
      8          8           0        1.944712    3.765717   -0.288628
      9          6           0       -0.786674   -0.295740   -0.357899
     10          6           0       -2.011381    0.387580    0.207424
     11          6           0       -3.259994   -0.334922   -0.269123
     12          6           0       -4.464344    0.358410    0.333021
     13          6           0       -5.741376   -0.307652   -0.134734
     14          6           0       -6.943422    0.397456    0.472448
     15          6           0       -8.224857   -0.262476    0.009142
     16          6           0        3.150463    0.090304   -0.161802
     17          6           0        3.779524   -0.248474    1.183739
     18          6           0        5.208443    0.211492    1.129320
     19          6           0        5.544714    0.242869   -0.362369
     20          6           0        4.274543   -0.074781   -1.165285
     21          1           0        0.617912   -3.938078   -0.304198
     22          1           0       -0.106079   -2.591235   -1.320324
     23          1           0        2.511838   -3.906542    0.723391
     24          1           0        2.646508   -2.463200    1.649743
     25          1           0        3.655300   -2.750425    0.129539
     26          1           0        1.678414   -0.486212   -1.618778
     27          1           0        0.636844    0.249273    1.165674
     28          1           0       -0.336160    2.286934    0.025101
     29          1           0        0.555181    1.886352   -1.448525
     30          1           0        2.100143    2.360412    1.157429
     31          1           0       -0.878473   -1.306603    0.033715
     32          1           0       -0.849464   -0.335842   -1.454942
     33          1           0       -2.084284    1.428926   -0.109570
     34          1           0       -1.954853    0.361643    1.301748
     35          1           0       -3.237125   -1.390800    0.028840
     36          1           0       -3.313414   -0.310144   -1.365407
     37          1           0       -4.463350    1.415947    0.040895
     38          1           0       -4.397431    0.323722    1.427395
     39          1           0       -5.735080   -1.364893    0.157098
     40          1           0       -5.796326   -0.272654   -1.229757
     41          1           0       -6.943277    1.454151    0.179728
     42          1           0       -6.882431    0.363013    1.566637
     43          1           0       -8.308761   -0.217204   -1.081323
     44          1           0       -9.089340    0.243463    0.445413
     45          1           0       -8.247469   -1.314110    0.311998
     46          1           0        3.044043    1.162169   -0.193282
     47          1           0        3.982872   -1.292589    1.302123
     48          1           0        3.188003    0.049230    2.053361
     49          1           0        5.840405   -0.528180    1.642435
     50          1           0        5.337385    1.165445    1.642836
     51          1           0        6.313558   -0.494503   -0.607797
     52          1           0        5.931801    1.235325   -0.608344
     53          1           0        4.286648   -1.073844   -1.605174
     54          1           0        4.157946    0.647012   -1.986494
 ---------------------------------------------------------------------
 Rotational constants (GHZ):           0.6100539           0.1124238           0.0993793
 Standard basis: 6-31G(2df,p) (6D, 7F)
 There are   790 symmetry adapted cartesian basis functions of A   symmetry.
 There are   730 symmetry adapted basis functions of A   symmetry.
   730 basis functions,  1118 primitive gaussians,   790 cartesian basis functions
    78 alpha electrons       78 beta electrons
       nuclear repulsion energy      1589.5068815633 Hartrees.
 NAtoms=   54 NActive=   54 NUniq=   54 SFac= 1.00D+00 NAtFMM=   60 NAOKFM=F Big=F
 Integral buffers will be    131072 words long.
 Raffenetti 2 integral format.
 Two-electron integral symmetry is turned on.
 One-electron integrals computed using PRISM.
 PrsmSu:  requested number of processors reduced to:  11 ShMem   1 Linda.
 NBasis=   730 RedAO= T EigKep=  4.26D-04  NBF=   730
 NBsUse=   730 1.00D-06 EigRej= -1.00D+00 NBFU=   730
 ExpMin= 1.61D-01 ExpMax= 5.48D+03 ExpMxC= 8.25D+02 IAcc=3 IRadAn=         5 AccDes= 0.00D+00
 Harris functional with IExCor=  402 and IRadAn=       5 diagonalized for initial guess.
 HarFok:  IExCor=  402 AccDes= 0.00D+00 IRadAn=         5 IDoV= 1 UseB2=F ITyADJ=14
 ICtDFT=  3500011 ScaDFX=  1.000000  1.000000  1.000000  1.000000
 FoFCou: FMM=F IPFlag=           0 FMFlag=      100000 FMFlg1=           0
         NFxFlg=           0 DoJE=T BraDBF=F KetDBF=T FulRan=T
         wScrn=  0.000000 ICntrl=       500 IOpCl=  0 I1Cent=   200000004 NGrid=           0
         NMat0=    1 NMatS0=      1 NMatT0=    0 NMatD0=    1 NMtDS0=    0 NMtDT0=    0
 Petite list used in FoFCou.
 Requested convergence on RMS density matrix=1.00D-08 within 128 cycles.
 Requested convergence on MAX density matrix=1.00D-06.
 Requested convergence on             energy=1.00D-06.
 No special actions if energy rises.
 Integral accuracy reduced to 1.0D-05 until final iterations.
 Initial convergence to 1.0D-05 achieved.  Increase integral accuracy.
 SCF Done:  E(RB3LYP) =  -819.707854319     A.U. after   14 cycles
            NFock= 14  Conv=0.33D-08     -V/T= 2.0080

 **********************************************************************

            Population analysis using the SCF density.

 **********************************************************************

 Orbital symmetries:
       Occupied  (A) (A) (A) (A) (A) (A) (A) (A) (A) (A) (A) (A)
                 (A) (A) (A) (A) (A) (A) (A) (A) (A) (A) (A) (A)
                 (A) (A) (A) (A) (A) (A) (A) (A) (A) (A) (A) (A)
                 (A) (A) (A) (A) (A) (A) (A) (A) (A) (A) (A) (A)
                 (A) (A) (A) (A) (A) (A) (A) (A) (A) (A) (A) (A)
                 (A) (A) (A) (A) (A) (A) (A) (A) (A) (A) (A) (A)
                 (A) (A) (A) (A) (A) (A)
       Virtual   (A) (A) (A) (A) (A) (A) (A) (A) (A) (A) (A) (A)
                 (A) (A) (A) (A) (A) (A) (A) (A) (A) (A) (A) (A)
                 (A) (A) (A) (A) (A) (A) (A) (A) (A) (A) (A) (A)
                 (A) (A) (A) (A) (A) (A) (A) (A) (A) (A) (A) (A)
                 (A) (A) (A) (A) (A) (A) (A) (A) (A) (A) (A) (A)
                 (A) (A) (A) (A) (A) (A) (A) (A) (A) (A) (A) (A)
                 (A) (A) (A) (A) (A) (A) (A) (A) (A) (A) (A) (A)
                 (A) (A) (A) (A) (A) (A) (A) (A) (A) (A) (A) (A)
                 (A) (A) (A) (A) (A) (A) (A) (A) (A) (A) (A) (A)
                 (A) (A) (A) (A) (A) (A) (A) (A) (A) (A) (A) (A)
                 (A) (A) (A) (A) (A) (A) (A) (A) (A) (A) (A) (A)
                 (A) (A) (A) (A) (A) (A) (A) (A) (A) (A) (A) (A)
                 (A) (A) (A) (A) (A) (A) (A) (A) (A) (A) (A) (A)
                 (A) (A) (A) (A) (A) (A) (A) (A) (A) (A) (A) (A)
                 (A) (A) (A) (A) (A) (A) (A) (A) (A) (A) (A) (A)
                 (A) (A) (A) (A) (A) (A) (A) (A) (A) (A) (A) (A)
                 (A) (A) (A) (A) (A) (A) (A) (A) (A) (A) (A) (A)
                 (A) (A) (A) (A) (A) (A) (A) (A) (A) (A) (A) (A)
                 (A) (A) (A) (A) (A) (A) (A) (A) (A) (A) (A) (A)
                 (A) (A) (A) (A) (A) (A) (A) (A) (A) (A) (A) (A)
                 (A) (A) (A) (A) (A) (A) (A) (A) (A) (A) (A) (A)
                 (A) (A) (A) (A) (A) (A) (A) (A) (A) (A) (A) (A)
                 (A) (A) (A) (A) (A) (A) (A) (A) (A) (A) (A) (A)
                 (A) (A) (A) (A) (A) (A) (A) (A) (A) (A) (A) (A)
                 (A) (A) (A) (A) (A) (A) (A) (A) (A) (A) (A) (A)
                 (A) (A) (A) (A) (A) (A) (A) (A) (A) (A) (A) (A)
                 (A) (A) (A) (A) (A) (A) (A) (A) (A) (A) (A) (A)
                 (A) (A) (A) (A) (A) (A) (A) (A) (A) (A) (A) (A)
                 (A) (A) (A) (A) (A) (A) (A) (A) (A) (A) (A) (A)
                 (A) (A) (A) (A) (A) (A) (A) (A) (A) (A) (A) (A)
                 (A) (A) (A) (A) (A) (A) (A) (A) (A) (A) (A) (A)
                 (A) (A) (A) (A) (A) (A) (A) (A) (A) (A) (A) (A)
                 (A) (A) (A) (A) (A) (A) (A) (A) (A) (A) (A) (A)
                 (A) (A) (A) (A) (A) (A) (A) (A) (A) (A) (A) (A)
                 (A) (A) (A) (A) (A) (A) (A) (A) (A) (A) (A) (A)
                 (A) (A) (A) (A) (A) (A) (A) (A) (A) (A) (A) (A)
                 (A) (A) (A) (A) (A) (A) (A) (A) (A) (A) (A) (A)
                 (A) (A) (A) (A) (A) (A) (A) (A) (A) (A) (A) (A)
                 (A) (A) (A) (A) (A) (A) (A) (A) (A) (A) (A) (A)
                 (A) (A) (A) (A) (A) (A) (A) (A) (A) (A) (A) (A)
                 (A) (A) (A) (A) (A) (A) (A) (A) (A) (A) (A) (A)
                 (A) (A) (A) (A) (A) (A) (A) (A) (A) (A) (A) (A)
                 (A) (A) (A) (A) (A) (A) (A) (A) (A) (A) (A) (A)
                 (A) (A) (A) (A) (A) (A) (A) (A) (A) (A) (A) (A)
                 (A) (A) (A) (A) (A) (A) (A) (A) (A) (A) (A) (A)
                 (A) (A) (A) (A) (A) (A) (A) (A) (A) (A) (A) (A)
                 (A) (A) (A) (A) (A) (A) (A) (A) (A) (A) (A) (A)
                 (A) (A) (A) (A) (A) (A) (A) (A) (A) (A) (A) (A)
                 (A) (A) (A) (A) (A) (A) (A) (A) (A) (A) (A) (A)
                 (A) (A) (A) (A) (A) (A) (A) (A) (A) (A) (A) (A)
                 (A) (A) (A) (A) (A) (A) (A) (A) (A) (A) (A) (A)
                 (A) (A) (A) (A) (A) (A) (A) (A) (A) (A) (A) (A)
                 (A) (A) (A) (A) (A) (A) (A) (A) (A) (A) (A) (A)
                 (A) (A) (A) (A) (A) (A) (A) (A) (A) (A) (A) (A)
                 (A) (A) (A) (A)
 The electronic state is 1-A.
 Alpha  occ. eigenvalues --  -19.12936 -10.26623 -10.20289 -10.19974 -10.19659
 Alpha  occ. eigenvalues --  -10.19162 -10.18093 -10.17677 -10.17314 -10.17279
 Alpha  occ. eigenvalues --  -10.17262 -10.17228 -10.17187 -10.17134 -10.17031
 Alpha  occ. eigenvalues --  -10.16993 -10.16918 -10.16715 -10.16645 -10.16129
 Alpha  occ. eigenvalues --   -1.03110  -0.85200  -0.82632  -0.81023  -0.79335
 Alpha  occ. eigenvalues --   -0.77423  -0.73534  -0.72953  -0.71241  -0.69604
 Alpha  occ. eigenvalues --   -0.67466  -0.65756  -0.61764  -0.58508  -0.57958
 Alpha  occ. eigenvalues --   -0.57830  -0.56891  -0.56303  -0.55552  -0.52407
 Alpha  occ. eigenvalues --   -0.49309  -0.48646  -0.47497  -0.46706  -0.46119
 Alpha  occ. eigenvalues --   -0.45040  -0.43942  -0.43396  -0.43183  -0.42833
 Alpha  occ. eigenvalues --   -0.42408  -0.42161  -0.41386  -0.41072  -0.39709
 Alpha  occ. eigenvalues --   -0.38981  -0.38260  -0.37828  -0.36849  -0.35997
 Alpha  occ. eigenvalues --   -0.35517  -0.35339  -0.34720  -0.34321  -0.33855
 Alpha  occ. eigenvalues --   -0.33627  -0.33117  -0.33074  -0.32695  -0.32267
 Alpha  occ. eigenvalues --   -0.31677  -0.31644  -0.31201  -0.30360  -0.28284
 Alpha  occ. eigenvalues --   -0.28062  -0.24474  -0.23805
 Alpha virt. eigenvalues --   -0.01860   0.01352   0.06762   0.08225   0.08913
 Alpha virt. eigenvalues --    0.09056   0.09811   0.10560   0.10792   0.11096
 Alpha virt. eigenvalues --    0.11953   0.12271   0.12801   0.13192   0.13980
 Alpha virt. eigenvalues --    0.14541   0.15152   0.15585   0.15616   0.16358
 Alpha virt. eigenvalues --    0.16873   0.17314   0.17619   0.18170   0.18478
 Alpha virt. eigenvalues --    0.18789   0.18972   0.19266   0.19710   0.19979
 Alpha virt. eigenvalues --    0.20187   0.20217   0.20712   0.21333   0.21764
 Alpha virt. eigenvalues --    0.22515   0.22769   0.22971   0.23403   0.24046
 Alpha virt. eigenvalues --    0.24212   0.24747   0.24918   0.25840   0.26168
 Alpha virt. eigenvalues --    0.27682   0.28465   0.29019   0.30465   0.30558
 Alpha virt. eigenvalues --    0.32637   0.32701   0.33759   0.34448   0.35213
 Alpha virt. eigenvalues --    0.36779   0.42316   0.44419   0.45420   0.46296
 Alpha virt. eigenvalues --    0.47407   0.47676   0.48558   0.49301   0.50356
 Alpha virt. eigenvalues --    0.50646   0.51134   0.51610   0.52253   0.52373
 Alpha virt. eigenvalues --    0.52559   0.52911   0.53829   0.53883   0.54486
 Alpha virt. eigenvalues --    0.55461   0.55887   0.56332   0.56784   0.57954
 Alpha virt. eigenvalues --    0.58311   0.58433   0.59328   0.59791   0.60380
 Alpha virt. eigenvalues --    0.60873   0.61322   0.61809   0.62341   0.63147
 Alpha virt. eigenvalues --    0.63551   0.64170   0.64857   0.65569   0.66212
 Alpha virt. eigenvalues --    0.66823   0.67345   0.68203   0.68846   0.69213
 Alpha virt. eigenvalues --    0.69593   0.70472   0.70965   0.71711   0.72025
 Alpha virt. eigenvalues --    0.72876   0.73007   0.73467   0.74106   0.74265
 Alpha virt. eigenvalues --    0.74744   0.74828   0.75352   0.75764   0.75824
 Alpha virt. eigenvalues --    0.76463   0.76473   0.76917   0.77344   0.78103
 Alpha virt. eigenvalues --    0.78566   0.79074   0.79279   0.79495   0.79845
 Alpha virt. eigenvalues --    0.80310   0.80481   0.80879   0.81272   0.81696
 Alpha virt. eigenvalues --    0.82219   0.82742   0.83015   0.83720   0.84597
 Alpha virt. eigenvalues --    0.85301   0.85562   0.85898   0.86867   0.87445
 Alpha virt. eigenvalues --    0.87797   0.88072   0.89146   0.89642   0.90372
 Alpha virt. eigenvalues --    0.90970   0.91467   0.92915   0.93749   0.95204
 Alpha virt. eigenvalues --    0.95859   0.96977   0.98346   0.99896   1.01434
 Alpha virt. eigenvalues --    1.02385   1.03814   1.05231   1.05893   1.07494
 Alpha virt. eigenvalues --    1.08095   1.08387   1.08879   1.11415   1.11906
 Alpha virt. eigenvalues --    1.12095   1.13006   1.15154   1.15816   1.16880
 Alpha virt. eigenvalues --    1.17813   1.18712   1.19317   1.19919   1.21541
 Alpha virt. eigenvalues --    1.21993   1.22635   1.23191   1.23683   1.24597
 Alpha virt. eigenvalues --    1.25413   1.26021   1.27714   1.29072   1.30072
 Alpha virt. eigenvalues --    1.30350   1.31854   1.32967   1.33957   1.34281
 Alpha virt. eigenvalues --    1.34782   1.36324   1.37678   1.38365   1.39567
 Alpha virt. eigenvalues --    1.40711   1.40884   1.41570   1.42412   1.43059
 Alpha virt. eigenvalues --    1.44044   1.44821   1.45838   1.46611   1.47443
 Alpha virt. eigenvalues --    1.48357   1.48910   1.49203   1.51609   1.52968
 Alpha virt. eigenvalues --    1.53192   1.53639   1.54849   1.55169   1.55616
 Alpha virt. eigenvalues --    1.56586   1.56801   1.57482   1.59007   1.59729
 Alpha virt. eigenvalues --    1.60848   1.60890   1.61551   1.63064   1.63530
 Alpha virt. eigenvalues --    1.65023   1.66341   1.66690   1.67313   1.68025
 Alpha virt. eigenvalues --    1.69601   1.70175   1.71200   1.72020   1.72215
 Alpha virt. eigenvalues --    1.73448   1.75746   1.77161   1.78434   1.79998
 Alpha virt. eigenvalues --    1.80918   1.83010   1.83702   1.84169   1.84845
 Alpha virt. eigenvalues --    1.85372   1.86529   1.87719   1.87929   1.89151
 Alpha virt. eigenvalues --    1.89628   1.90325   1.90606   1.92392   1.93060
 Alpha virt. eigenvalues --    1.93531   1.94430   1.94674   1.95384   1.96242
 Alpha virt. eigenvalues --    1.97825   1.98334   1.98981   2.00336   2.01560
 Alpha virt. eigenvalues --    2.02857   2.05445   2.07285   2.09160   2.12651
 Alpha virt. eigenvalues --    2.13416   2.13917   2.15614   2.16667   2.18420
 Alpha virt. eigenvalues --    2.18995   2.20053   2.20293   2.20709   2.21375
 Alpha virt. eigenvalues --    2.22647   2.23703   2.24283   2.25538   2.27806
 Alpha virt. eigenvalues --    2.28140   2.29026   2.30045   2.31146   2.31887
 Alpha virt. eigenvalues --    2.32285   2.33537   2.34339   2.35344   2.35745
 Alpha virt. eigenvalues --    2.38000   2.38582   2.39122   2.40086   2.41337
 Alpha virt. eigenvalues --    2.42519   2.43379   2.46091   2.46771   2.47799
 Alpha virt. eigenvalues --    2.49768   2.51033   2.52995   2.53846   2.56210
 Alpha virt. eigenvalues --    2.56389   2.56953   2.59670   2.60566   2.61895
 Alpha virt. eigenvalues --    2.63200   2.66511   2.67539   2.68604   2.69103
 Alpha virt. eigenvalues --    2.70288   2.71343   2.71497   2.72653   2.74032
 Alpha virt. eigenvalues --    2.74215   2.74898   2.75275   2.76470   2.77356
 Alpha virt. eigenvalues --    2.77978   2.78194   2.78892   2.79490   2.79680
 Alpha virt. eigenvalues --    2.80641   2.81447   2.81683   2.82103   2.82969
 Alpha virt. eigenvalues --    2.83553   2.84061   2.84564   2.84972   2.85594
 Alpha virt. eigenvalues --    2.85774   2.87523   2.88068   2.88730   2.89151
 Alpha virt. eigenvalues --    2.89942   2.90505   2.91091   2.91885   2.92653
 Alpha virt. eigenvalues --    2.93536   2.94124   2.94681   2.94927   2.95486
 Alpha virt. eigenvalues --    2.96223   2.96448   2.96633   2.97437   2.97628
 Alpha virt. eigenvalues --    2.98014   3.00230   3.00638   3.00928   3.01606
 Alpha virt. eigenvalues --    3.02069   3.03498   3.04379   3.04650   3.05976
 Alpha virt. eigenvalues --    3.06847   3.07508   3.08611   3.09060   3.09374
 Alpha virt. eigenvalues --    3.11764   3.12550   3.14746   3.16180   3.17448
 Alpha virt. eigenvalues --    3.18108   3.19349   3.20819   3.21556   3.22954
 Alpha virt. eigenvalues --    3.23207   3.23598   3.24410   3.25157   3.26243
 Alpha virt. eigenvalues --    3.26682   3.28102   3.29304   3.30547   3.31076
 Alpha virt. eigenvalues --    3.31538   3.33261   3.34528   3.35082   3.36845
 Alpha virt. eigenvalues --    3.38175   3.38475   3.38710   3.40005   3.40581
 Alpha virt. eigenvalues --    3.40707   3.41973   3.43146   3.43543   3.44223
 Alpha virt. eigenvalues --    3.46000   3.46158   3.47096   3.47753   3.48389
 Alpha virt. eigenvalues --    3.49674   3.52201   3.52463   3.52830   3.54790
 Alpha virt. eigenvalues --    3.55369   3.55569   3.56131   3.57753   3.58544
 Alpha virt. eigenvalues --    3.59121   3.60252   3.61438   3.61877   3.62414
 Alpha virt. eigenvalues --    3.63133   3.63445   3.64569   3.65382   3.66632
 Alpha virt. eigenvalues --    3.67446   3.70072   3.70423   3.71763   3.72885
 Alpha virt. eigenvalues --    3.74385   3.74539   3.74969   3.75783   3.76587
 Alpha virt. eigenvalues --    3.77842   3.78963   3.78975   3.79456   3.80471
 Alpha virt. eigenvalues --    3.80965   3.81830   3.82237   3.82828   3.84056
 Alpha virt. eigenvalues --    3.84621   3.85956   3.87127   3.88660   3.89068
 Alpha virt. eigenvalues --    3.91347   3.92777   3.93475   3.94736   3.95831
 Alpha virt. eigenvalues --    3.98184   4.01198   4.02833   4.07545   4.08510
 Alpha virt. eigenvalues --    4.09074   4.14147   4.14696   4.15361   4.16965
 Alpha virt. eigenvalues --    4.18906   4.19832   4.22194   4.23874   4.25831
 Alpha virt. eigenvalues --    4.27126   4.29261   4.30331   4.31308   4.33346
 Alpha virt. eigenvalues --    4.34894   4.36287   4.38280   4.38765   4.39564
 Alpha virt. eigenvalues --    4.40092   4.41898   4.42635   4.44667   4.45818
 Alpha virt. eigenvalues --    4.45977   4.47128   4.47576   4.47934   4.49434
 Alpha virt. eigenvalues --    4.50787   4.50995   4.51453   4.51697   4.52854
 Alpha virt. eigenvalues --    4.53916   4.54335   4.55565   4.55937   4.56658
 Alpha virt. eigenvalues --    4.57109   4.57960   4.58537   4.59284   4.59810
 Alpha virt. eigenvalues --    4.59882   4.60499   4.60941   4.61552   4.62238
 Alpha virt. eigenvalues --    4.63048   4.63319   4.64049   4.64261   4.64513
 Alpha virt. eigenvalues --    4.65483   4.66097   4.67195   4.67735   4.68548
 Alpha virt. eigenvalues --    4.69096   4.69385   4.69950   4.70758   4.71350
 Alpha virt. eigenvalues --    4.72412   4.72486   4.73129   4.73616   4.75101
 Alpha virt. eigenvalues --    4.76166   4.76839   4.77718   4.78121   4.78362
 Alpha virt. eigenvalues --    4.78831   4.79349   4.79689   4.80381   4.80821
 Alpha virt. eigenvalues --    4.81881   4.82874   4.83612   4.84247   4.84697
 Alpha virt. eigenvalues --    4.85575   4.85663   4.87630   4.87764   4.89044
 Alpha virt. eigenvalues --    4.89738   4.90747   4.91205   4.91748   4.92636
 Alpha virt. eigenvalues --    4.93079   4.93392   4.94051   4.95348   4.95917
 Alpha virt. eigenvalues --    4.96410   4.96809   4.99626   5.00050   5.01625
 Alpha virt. eigenvalues --    5.02783   5.03734   5.05756   5.07535   5.09717
 Alpha virt. eigenvalues --    5.10335   5.10669   5.10949   5.13052   5.19528
 Alpha virt. eigenvalues --    5.19584   5.20596   5.21798   5.23658   5.27298
 Alpha virt. eigenvalues --    5.28836   5.31666   5.33238   5.34880   5.36256
 Alpha virt. eigenvalues --    5.37573   5.39643   5.40612   5.42646   5.45270
 Alpha virt. eigenvalues --    5.46004   5.46605   5.49146   5.50097   5.51228
 Alpha virt. eigenvalues --    5.52408   5.53334   5.55313   5.56653   5.59747
 Alpha virt. eigenvalues --    5.61824   5.62806   5.68943   5.70030   5.74847
 Alpha virt. eigenvalues --    5.82549   5.94197   6.00191   6.04085   6.21671
 Alpha virt. eigenvalues --    6.24191   6.27063   6.42657   6.54574   6.70663
 Alpha virt. eigenvalues --    6.82638   7.07523  10.52513  11.09646  11.14621
 Alpha virt. eigenvalues --   11.22676  11.45037  11.56554  11.79380  11.94406
 Alpha virt. eigenvalues --   11.97998  12.07070  12.08929  12.22403  12.32734
 Alpha virt. eigenvalues --   12.40415  12.57298  12.72107  12.85277  12.91356
 Alpha virt. eigenvalues --   12.97375  13.06994
          Condensed to atoms (all electrons):
 Mulliken charges:
               1
     1  C   -0.390541
     2  C    0.363610
     3  C   -0.465971
     4  C   -0.196113
     5  C   -0.056706
     6  C   -0.267573
     7  C    0.137419
     8  O   -0.282773
     9  C   -0.170678
    10  C   -0.201329
    11  C   -0.181588
    12  C   -0.165670
    13  C   -0.154883
    14  C   -0.158830
    15  C   -0.375838
    16  C    0.046194
    17  C   -0.200850
    18  C   -0.223977
    19  C   -0.195600
    20  C   -0.250339
    21  H    0.101989
    22  H    0.104636
    23  H    0.106234
    24  H    0.130427
    25  H    0.127282
    26  H    0.089166
    27  H    0.074744
    28  H    0.142689
    29  H    0.124437
    30  H    0.092089
    31  H    0.112276
    32  H    0.085180
    33  H    0.093002
    34  H    0.089612
    35  H    0.091466
    36  H    0.090964
    37  H    0.090339
    38  H    0.089220
    39  H    0.088690
    40  H    0.088901
    41  H    0.091499
    42  H    0.090894
    43  H    0.110429
    44  H    0.103960
    45  H    0.110121
    46  H    0.097537
    47  H    0.120177
    48  H    0.078402
    49  H    0.090950
    50  H    0.091321
    51  H    0.095896
    52  H    0.104725
    53  H    0.094388
    54  H    0.098393
 Sum of Mulliken charges =  -0.00000
 Mulliken charges with hydrogens summed into heavy atoms:
               1
     1  C   -0.183916
     2  C    0.363610
     3  C   -0.102028
     4  C   -0.106947
     5  C    0.018038
     6  C   -0.000446
     7  C    0.229509
     8  O   -0.282773
     9  C    0.026778
    10  C   -0.018716
    11  C    0.000842
    12  C    0.013890
    13  C    0.022707
    14  C    0.023563
    15  C   -0.051327
    16  C    0.143730
    17  C   -0.002271
    18  C   -0.041706
    19  C    0.005021
    20  C   -0.057558
 Electronic spatial extent (au):  <R**2>=          11058.3400
 Charge=             -0.0000 electrons
 Dipole moment (field-independent basis, Debye):
    X=             -0.8110    Y=             -2.5742    Z=              0.8361  Tot=              2.8255
 Quadrupole moment (field-independent basis, Debye-Ang):
   XX=           -130.1975   YY=           -141.3254   ZZ=           -126.6604
   XY=             -8.8217   XZ=              1.5959   YZ=              0.6379
 Traceless Quadrupole moment (field-independent basis, Debye-Ang):
   XX=              2.5303   YY=             -8.5976   ZZ=              6.0674
   XY=             -8.8217   XZ=              1.5959   YZ=              0.6379
 Octapole moment (field-independent basis, Debye-Ang**2):
  XXX=             35.0699  YYY=            -58.0053  ZZZ=             -0.4658  XYY=            -29.4674
  XXY=            -12.1289  XXZ=              2.8111  XZZ=             -2.2625  YZZ=              8.1705
  YYZ=             14.5445  XYZ=              3.7374
 Hexadecapole moment (field-independent basis, Debye-Ang**3):
 XXXX=         -13047.3780 YYYY=          -2252.7016 ZZZZ=           -518.6601 XXXY=            -95.6958
 XXXZ=            -33.5038 YYYX=           -130.9527 YYYZ=             13.8407 ZZZX=              2.9073
 ZZZY=            -11.8328 XXYY=          -2479.2198 XXZZ=          -2192.4056 YYZZ=           -426.9180
 XXYZ=            -18.9389 YYXZ=             23.7691 ZZXY=             14.9055
 N-N= 1.589506881563D+03 E-N=-5.077785477771D+03  KE= 8.131679350720D+02
 PrsmSu:  requested number of processors reduced to:  12 ShMem   1 Linda.
 Calling FoFJK, ICntrl=      2127 FMM=F ISym2X=0 I1Cent= 0 IOpClX= 0 NMat=1 NMatS=1 NMatT=0.
 ***** Axes restored to original set *****
 -------------------------------------------------------------------
 Center     Atomic                   Forces (Hartrees/Bohr)
 Number     Number              X              Y              Z
 -------------------------------------------------------------------
      1        6           0.004577995    0.005231311    0.008389078
      2        6          -0.016089652    0.003417304   -0.000162925
      3        6           0.002857727   -0.009355819   -0.004852098
      4        6           0.001832910   -0.000376965    0.004469714
      5        6          -0.009399786    0.004978091   -0.004717665
      6        6           0.005010755   -0.003670514   -0.016917139
      7        6           0.013649698    0.018170572    0.009285720
      8        8          -0.009651834   -0.012440589   -0.009611625
      9        6           0.009007701   -0.009344968   -0.001266790
     10        6          -0.000612514    0.007641776   -0.006204568
     11        6           0.009772096   -0.005744779    0.007004646
     12        6          -0.009324792    0.005353313   -0.007846056
     13        6           0.006822145   -0.006146502    0.010414518
     14        6          -0.008214279    0.002630187   -0.002621802
     15        6          -0.004727989   -0.002770936    0.007709550
     16        6          -0.016337304   -0.002637656   -0.001367527
     17        6          -0.005011746   -0.012567970   -0.004678541
     18        6           0.018449322   -0.009212532    0.001479840
     19        6           0.012821994    0.011491830   -0.008694218
     20        6           0.000057172    0.010106732   -0.002988866
     21        1           0.001500591    0.005245562   -0.001455331
     22        1          -0.001180900    0.002189932   -0.000103375
     23        1          -0.010366477    0.006335083    0.003826921
     24        1           0.007385084    0.003263924   -0.007599565
     25        1           0.005398892   -0.009753873    0.001375015
     26        1           0.000013085   -0.002228031    0.001014116
     27        1           0.000624264   -0.001284124    0.000830509
     28        1          -0.006387766    0.000237474    0.000649764
     29        1           0.001318595    0.000013605    0.002844571
     30        1           0.000726105   -0.004853378    0.003053122
     31        1           0.001632185    0.004757798   -0.006312623
     32        1           0.000557174   -0.001042141   -0.000905761
     33        1           0.001469724   -0.001024705    0.003573677
     34        1           0.000669473   -0.000869184    0.003206831
     35        1          -0.000020089    0.000123847   -0.000145289
     36        1          -0.000128649   -0.000274890   -0.000256895
     37        1           0.000085247   -0.000772655    0.000782725
     38        1           0.000111787   -0.000315166    0.001179740
     39        1          -0.001358790    0.000296333   -0.000169307
     40        1          -0.001239844    0.000239880   -0.000222417
     41        1           0.001419783   -0.000609361    0.000104346
     42        1           0.001481190   -0.000176997    0.000378709
     43        1          -0.001841831   -0.000043757    0.000388157
     44        1          -0.004672028    0.000365467    0.000995552
     45        1          -0.001813331    0.000250219    0.000527468
     46        1          -0.000624160   -0.004164448    0.013973560
     47        1          -0.016887836   -0.001596287    0.004580927
     48        1           0.004348500    0.000357357    0.003149875
     49        1           0.005043248   -0.000378533    0.005524781
     50        1           0.006631042    0.005738762   -0.000533319
     51        1           0.005459903    0.001095992    0.000422835
     52        1          -0.000622152    0.004612085   -0.003216055
     53        1           0.000273244    0.000086591   -0.004102367
     54        1          -0.004494882   -0.000574264   -0.004184146
 -------------------------------------------------------------------
 Cartesian Forces:  Max     0.018449322 RMS     0.005979959

 GradGradGradGradGradGradGradGradGradGradGradGradGradGradGradGradGradGrad
 Berny optimization.
 FormGI is forming the generalized inverse of G from B-inverse, IUseBI=4.
 Internal  Forces:  Max     0.033590233 RMS     0.007022059
 Search for a local minimum.
 Step number   1 out of a maximum of  324
 All quantities printed in internal units (Hartrees-Bohrs-Radians)
 Mixed Optimization -- RFO/linear search
 Second derivative matrix not updated -- first step.
 ITU=  0
     Eigenvalues ---    0.00230   0.00230   0.00230   0.00230   0.00230
     Eigenvalues ---    0.00425   0.00500   0.00511   0.00574   0.00576
     Eigenvalues ---    0.00581   0.00606   0.00655   0.00662   0.00664
     Eigenvalues ---    0.00769   0.01030   0.02030   0.02102   0.02824
     Eigenvalues ---    0.02839   0.03076   0.03292   0.03320   0.03419
     Eigenvalues ---    0.03504   0.03766   0.03917   0.03934   0.03945
     Eigenvalues ---    0.03945   0.04040   0.04095   0.04379   0.04411
     Eigenvalues ---    0.04870   0.05028   0.05029   0.05033   0.05050
     Eigenvalues ---    0.05069   0.05088   0.05101   0.05110   0.05179
     Eigenvalues ---    0.05327   0.05507   0.05567   0.05694   0.05749
     Eigenvalues ---    0.05778   0.05900   0.06389   0.07024   0.07070
     Eigenvalues ---    0.07214   0.07267   0.07659   0.07696   0.07709
     Eigenvalues ---    0.07864   0.07954   0.08006   0.08041   0.08803
     Eigenvalues ---    0.09051   0.10080   0.10237   0.11514   0.11688
     Eigenvalues ---    0.11813   0.11892   0.11933   0.11955   0.12549
     Eigenvalues ---    0.13365   0.14804   0.15943   0.16000   0.16000
     Eigenvalues ---    0.16000   0.16000   0.16000   0.16000   0.16000
     Eigenvalues ---    0.16000   0.16000   0.17369   0.17477   0.19402
     Eigenvalues ---    0.20172   0.21025   0.21815   0.21867   0.21875
     Eigenvalues ---    0.21876   0.21897   0.22003   0.22053   0.22066
     Eigenvalues ---    0.23715   0.24988   0.24993   0.26060   0.26362
     Eigenvalues ---    0.26880   0.27414   0.27932   0.28074   0.29292
     Eigenvalues ---    0.30063   0.30355   0.30438   0.30901   0.30918
     Eigenvalues ---    0.30950   0.31141   0.31359   0.31511   0.32399
     Eigenvalues ---    0.32968   0.33378   0.33693   0.33730   0.33734
     Eigenvalues ---    0.33919   0.33972   0.33977   0.33993   0.34000
     Eigenvalues ---    0.34020   0.34021   0.34039   0.34073   0.34080
     Eigenvalues ---    0.34118   0.34161   0.34233   0.34284   0.34286
     Eigenvalues ---    0.34434   0.34446   0.34462   0.34497   0.34521
     Eigenvalues ---    0.34619   0.34654   0.34694   0.34702   0.35050
     Eigenvalues ---    0.35051   0.36041   0.36286   0.37192   0.56223
     Eigenvalues ---    0.95997
 RFO step:  Lambda=-6.91786912D-02 EMin= 2.30000000D-03
 Linear search not attempted -- first point.
 Maximum step size (   0.300) exceeded in Quadratic search.
    -- Step size scaled by   0.722
 Iteration  1 RMS(Cart)=  0.15487029 RMS(Int)=  0.00594984
 Iteration  2 RMS(Cart)=  0.01537457 RMS(Int)=  0.00032437
 Iteration  3 RMS(Cart)=  0.00015692 RMS(Int)=  0.00031851
 Iteration  4 RMS(Cart)=  0.00000007 RMS(Int)=  0.00031851
 Variable       Old X    -DE/DX   Delta X   Delta X   Delta X     New X
                                 (Linear)    (Quad)   (Total)
    R1        2.54061  -0.00386   0.00000  -0.00442  -0.00442   2.53619
    R2        2.05594  -0.00263   0.00000  -0.00453  -0.00453   2.05141
    R3        2.04017   0.00183   0.00000   0.00307   0.00307   2.04325
    R4        2.83419   0.01266   0.00000   0.02326   0.02326   2.85746
    R5        2.96588   0.00110   0.00000   0.00240   0.00240   2.96828
    R6        2.06240   0.00238   0.00000   0.00413   0.00413   2.06653
    R7        2.06939  -0.00273   0.00000  -0.00479  -0.00479   2.06460
    R8        2.07377  -0.00269   0.00000  -0.00476  -0.00476   2.06901
    R9        3.02592  -0.00103   0.00000  -0.00243  -0.00243   3.02349
   R10        2.95867   0.00899   0.00000   0.01950   0.01950   2.97817
   R11        2.08392  -0.00215   0.00000  -0.00385  -0.00385   2.08007
   R12        2.94654  -0.00660   0.00000  -0.01411  -0.01411   2.93242
   R13        2.92287   0.00253   0.00000   0.00525   0.00525   2.92812
   R14        2.07342   0.00143   0.00000   0.00252   0.00252   2.07594
   R15        2.85048   0.00470   0.00000   0.00883   0.00883   2.85932
   R16        2.06499   0.00240   0.00000   0.00419   0.00419   2.06918
   R17        2.07059  -0.00035   0.00000  -0.00061  -0.00061   2.06998
   R18        2.30286  -0.01832   0.00000  -0.01286  -0.01286   2.29000
   R19        2.09109   0.00311   0.00000   0.00563   0.00563   2.09672
   R20        2.85744   0.02081   0.00000   0.03948   0.03948   2.89692
   R21        2.05593   0.00042   0.00000   0.00072   0.00072   2.05664
   R22        2.07789  -0.00106   0.00000  -0.00189  -0.00189   2.07600
   R23        2.87098   0.01468   0.00000   0.02838   0.02838   2.89936
   R24        2.06162   0.00284   0.00000   0.00492   0.00492   2.06655
   R25        2.07131   0.00119   0.00000   0.00209   0.00209   2.07341
   R26        2.86201   0.01696   0.00000   0.03239   0.03239   2.89440
   R27        2.07370   0.00006   0.00000   0.00010   0.00010   2.07380
   R28        2.07466  -0.00022   0.00000  -0.00038  -0.00038   2.07428
   R29        2.86170   0.01590   0.00000   0.03035   0.03035   2.89205
   R30        2.07330   0.00024   0.00000   0.00042   0.00042   2.07372
   R31        2.07296   0.00038   0.00000   0.00068   0.00068   2.07364
   R32        2.87261   0.01139   0.00000   0.02207   0.02207   2.89468
   R33        2.07265   0.00067   0.00000   0.00117   0.00117   2.07382
   R34        2.07295   0.00055   0.00000   0.00097   0.00097   2.07392
   R35        2.86107   0.01409   0.00000   0.02688   0.02688   2.88795
   R36        2.07207   0.00051   0.00000   0.00089   0.00089   2.07296
   R37        2.07195   0.00056   0.00000   0.00099   0.00099   2.07294
   R38        2.06854   0.00043   0.00000   0.00076   0.00076   2.06930
   R39        2.06460   0.00192   0.00000   0.00335   0.00335   2.06794
   R40        2.06851   0.00045   0.00000   0.00079   0.00079   2.06929
   R41        2.87895   0.01141   0.00000   0.01901   0.01917   2.89811
   R42        2.86453   0.02204   0.00000   0.04303   0.04312   2.90765
   R43        2.03636   0.01029   0.00000   0.01720   0.01720   2.05356
   R44        2.83858   0.03205   0.00000   0.06327   0.06332   2.90190
   R45        2.02257   0.00332   0.00000   0.00544   0.00544   2.02801
   R46        2.06557   0.00138   0.00000   0.00241   0.00241   2.06798
   R47        2.89023   0.01372   0.00000   0.02813   0.02798   2.91821
   R48        2.07851  -0.00359   0.00000  -0.00639  -0.00639   2.07212
   R49        2.06175   0.00297   0.00000   0.00516   0.00516   2.06691
   R50        2.90238   0.01229   0.00000   0.02209   0.02196   2.92434
   R51        2.06584   0.00027   0.00000   0.00048   0.00048   2.06631
   R52        2.06604   0.00018   0.00000   0.00031   0.00031   2.06635
   R53        2.06298   0.00297   0.00000   0.00516   0.00516   2.06814
   R54        2.07781  -0.00317   0.00000  -0.00563  -0.00563   2.07218
    A1        2.09687   0.00054   0.00000   0.00217   0.00192   2.09879
    A2        2.16353   0.00038   0.00000   0.00169   0.00145   2.16498
    A3        2.02063  -0.00058   0.00000  -0.00134  -0.00158   2.01905
    A4        1.96572   0.00153   0.00000   0.00330   0.00323   1.96895
    A5        2.18210  -0.03120   0.00000  -0.07077  -0.07080   2.11131
    A6        2.13497   0.02960   0.00000   0.06688   0.06677   2.20174
    A7        2.01358  -0.02120   0.00000  -0.06629  -0.06568   1.94790
    A8        1.91302   0.01185   0.00000   0.03759   0.03762   1.95065
    A9        1.89912   0.01109   0.00000   0.03417   0.03413   1.93325
   A10        1.81125   0.00490   0.00000   0.01687   0.01754   1.82879
   A11        1.82459   0.00398   0.00000   0.01212   0.01266   1.83725
   A12        2.00346  -0.01313   0.00000  -0.04235  -0.04289   1.96057
   A13        1.98197  -0.00838   0.00000  -0.01296  -0.01436   1.96761
   A14        2.01753   0.03359   0.00000   0.11073   0.11159   2.12912
   A15        1.84276  -0.01150   0.00000  -0.04981  -0.04841   1.79435
   A16        1.92105  -0.01622   0.00000  -0.03116  -0.03294   1.88811
   A17        1.83305   0.00941   0.00000   0.01352   0.01212   1.84516
   A18        1.85092  -0.00880   0.00000  -0.04319  -0.04199   1.80893
   A19        2.01095  -0.01038   0.00000  -0.03156  -0.03178   1.97917
   A20        1.92664   0.00930   0.00000   0.03295   0.03309   1.95973
   A21        1.87782   0.00168   0.00000   0.00562   0.00549   1.88331
   A22        1.86449   0.00230   0.00000   0.00913   0.00944   1.87394
   A23        1.89560   0.00188   0.00000  -0.00152  -0.00160   1.89400
   A24        1.88486  -0.00478   0.00000  -0.01486  -0.01499   1.86987
   A25        2.05505   0.00431   0.00000   0.01258   0.01256   2.06761
   A26        1.91505  -0.00383   0.00000  -0.01480  -0.01482   1.90023
   A27        1.92736   0.00038   0.00000   0.00327   0.00320   1.93056
   A28        1.75890   0.00111   0.00000   0.00572   0.00579   1.76469
   A29        1.91310  -0.00178   0.00000  -0.00168  -0.00175   1.91135
   A30        1.88138  -0.00059   0.00000  -0.00711  -0.00714   1.87425
   A31        2.14966   0.00299   0.00000   0.00727   0.00718   2.15683
   A32        2.02422  -0.00123   0.00000  -0.00317  -0.00327   2.02095
   A33        2.10822  -0.00188   0.00000  -0.00522  -0.00531   2.10290
   A34        2.02032   0.00474   0.00000   0.01407   0.01406   2.03438
   A35        1.90997  -0.00460   0.00000  -0.01537  -0.01566   1.89431
   A36        1.91907  -0.00139   0.00000  -0.00702  -0.00707   1.91200
   A37        1.78950   0.00429   0.00000   0.02321   0.02327   1.81278
   A38        1.92116  -0.00223   0.00000  -0.00578  -0.00570   1.91546
   A39        1.89697  -0.00081   0.00000  -0.00895  -0.00906   1.88791
   A40        1.91079   0.01267   0.00000   0.03464   0.03460   1.94539
   A41        1.95718  -0.00271   0.00000  -0.00331  -0.00337   1.95382
   A42        1.89737  -0.00228   0.00000  -0.00272  -0.00263   1.89474
   A43        1.88375  -0.00364   0.00000  -0.00746  -0.00762   1.87613
   A44        1.92229  -0.00481   0.00000  -0.01391  -0.01402   1.90827
   A45        1.89244   0.00052   0.00000  -0.00807  -0.00821   1.88423
   A46        1.88718   0.02280   0.00000   0.06016   0.06023   1.94740
   A47        1.93402  -0.00697   0.00000  -0.01646  -0.01650   1.91752
   A48        1.92035  -0.00660   0.00000  -0.01478  -0.01485   1.90550
   A49        1.92741  -0.00683   0.00000  -0.01568  -0.01570   1.91172
   A50        1.92622  -0.00664   0.00000  -0.01490  -0.01496   1.91126
   A51        1.86907   0.00361   0.00000   0.00007  -0.00032   1.86874
   A52        1.92456   0.01626   0.00000   0.04310   0.04311   1.96767
   A53        1.91207  -0.00445   0.00000  -0.00898  -0.00898   1.90309
   A54        1.91098  -0.00436   0.00000  -0.00877  -0.00875   1.90223
   A55        1.92035  -0.00489   0.00000  -0.01169  -0.01178   1.90857
   A56        1.92376  -0.00516   0.00000  -0.01288  -0.01296   1.91080
   A57        1.87136   0.00208   0.00000  -0.00229  -0.00249   1.86887
   A58        1.91712   0.01684   0.00000   0.04464   0.04465   1.96178
   A59        1.91447  -0.00443   0.00000  -0.00860  -0.00857   1.90590
   A60        1.91405  -0.00452   0.00000  -0.00894  -0.00892   1.90513
   A61        1.92344  -0.00537   0.00000  -0.01345  -0.01356   1.90988
   A62        1.92231  -0.00524   0.00000  -0.01292  -0.01302   1.90928
   A63        1.87198   0.00222   0.00000  -0.00217  -0.00239   1.86959
   A64        1.92290   0.01327   0.00000   0.03541   0.03541   1.95830
   A65        1.91801  -0.00431   0.00000  -0.01091  -0.01100   1.90701
   A66        1.91777  -0.00426   0.00000  -0.01068  -0.01076   1.90701
   A67        1.91610  -0.00328   0.00000  -0.00587  -0.00585   1.91025
   A68        1.91641  -0.00332   0.00000  -0.00602  -0.00600   1.91041
   A69        1.87201   0.00148   0.00000  -0.00319  -0.00333   1.86868
   A70        1.93018   0.00117   0.00000   0.00340   0.00337   1.93356
   A71        1.92374   0.00566   0.00000   0.01843   0.01837   1.94211
   A72        1.93006   0.00121   0.00000   0.00352   0.00349   1.93355
   A73        1.89441  -0.00327   0.00000  -0.00975  -0.00981   1.88460
   A74        1.88997  -0.00179   0.00000  -0.00675  -0.00674   1.88323
   A75        1.89450  -0.00328   0.00000  -0.00977  -0.00983   1.88467
   A76        2.06258   0.02102   0.00000   0.08185   0.08253   2.14512
   A77        2.03855  -0.00895   0.00000  -0.02619  -0.02759   2.01095
   A78        1.90368  -0.00997   0.00000  -0.05040  -0.04954   1.85414
   A79        1.82788  -0.00520   0.00000  -0.01064  -0.01080   1.81709
   A80        1.86269  -0.00682   0.00000  -0.03643  -0.03546   1.82723
   A81        1.73374   0.00772   0.00000   0.03200   0.03128   1.76502
   A82        1.86785  -0.00148   0.00000  -0.01131  -0.01143   1.85642
   A83        1.97477  -0.00206   0.00000  -0.01205  -0.01214   1.96263
   A84        2.00276  -0.00235   0.00000  -0.00938  -0.00990   1.99286
   A85        1.69310   0.00844   0.00000   0.06053   0.06071   1.75380
   A86        2.04904  -0.00025   0.00000  -0.01448  -0.01490   2.03414
   A87        1.85513  -0.00076   0.00000  -0.00331  -0.00333   1.85180
   A88        1.82427   0.00087   0.00000   0.00713   0.00712   1.83139
   A89        1.90048   0.00074   0.00000   0.00429   0.00436   1.90484
   A90        1.94240   0.00416   0.00000   0.02098   0.02101   1.96341
   A91        1.92034  -0.00160   0.00000  -0.00034  -0.00047   1.91986
   A92        1.99888  -0.00261   0.00000  -0.02134  -0.02141   1.97747
   A93        1.87604  -0.00137   0.00000  -0.00919  -0.00941   1.86662
   A94        1.90054  -0.00416   0.00000  -0.01589  -0.01611   1.88443
   A95        1.93880   0.00161   0.00000   0.00719   0.00728   1.94609
   A96        1.89220   0.00313   0.00000   0.01334   0.01327   1.90547
   A97        1.90156   0.00453   0.00000   0.02205   0.02211   1.92367
   A98        1.94221  -0.00193   0.00000  -0.01201  -0.01181   1.93039
   A99        1.88891  -0.00317   0.00000  -0.01472  -0.01472   1.87419
   A100       1.81797   0.00793   0.00000   0.01850   0.01859   1.83656
   A101       1.95480  -0.00380   0.00000  -0.00335  -0.00353   1.95127
   A102       1.92229   0.00030   0.00000   0.00136   0.00141   1.92370
   A103       1.97225   0.00294   0.00000   0.00665   0.00646   1.97870
   A104       1.92024  -0.00780   0.00000  -0.01678  -0.01674   1.90350
   A105       1.87652   0.00029   0.00000  -0.00632  -0.00630   1.87022
    D1        0.14400  -0.00355   0.00000  -0.02258  -0.02314   0.12086
    D2       -3.02760  -0.00532   0.00000  -0.04307  -0.04252  -3.07012
    D3       -3.07107   0.00227   0.00000   0.02052   0.01997  -3.05110
    D4        0.04052   0.00051   0.00000   0.00003   0.00059   0.04111
    D5        0.02681  -0.00032   0.00000  -0.00284  -0.00330   0.02351
    D6       -2.00930  -0.00149   0.00000  -0.00884  -0.00879  -2.01809
    D7        2.07008  -0.00068   0.00000  -0.00471  -0.00555   2.06453
    D8       -3.08570   0.00257   0.00000   0.01970   0.02007  -3.06564
    D9        1.16137   0.00140   0.00000   0.01369   0.01458   1.17595
   D10       -1.04244   0.00221   0.00000   0.01782   0.01782  -1.02462
   D11        1.12574   0.00509   0.00000   0.02778   0.02724   1.15299
   D12       -2.91287   0.00505   0.00000   0.07415   0.07510  -2.83777
   D13       -0.87323   0.00499   0.00000   0.04829   0.04769  -0.82554
   D14       -2.04862   0.00257   0.00000   0.00405   0.00364  -2.04499
   D15        0.19595   0.00253   0.00000   0.05041   0.05149   0.24744
[...]
 ,0.00000419,-0.00000427,0.00000410,0.00000063,-0.00001604,-0.00000478,
 0.00001126,0.00001254,0.00000985,0.00001026,0.00000149,0.00000782,0.00
 000202,0.00000774,0.00000822,-0.00000452,-0.00000529,-0.00000093,0.000
 00022,0.00000346,0.00000059,0.00000300,-0.00000025,0.00000443,-0.00000
 016,0.00000197,0.00000112,-0.00000184,-0.00000114,0.00000028,0.0000007
 3,0.,0.00000005,0.00000162,-0.00000069,0.00000213,-0.00000002,0.000001
 18,0.00000084,-0.00000100,-0.00000052,0.00000037,0.00000051,-0.0000001
 3,0.00000003,0.00000097,-0.00000051,0.00000020,-0.00000127,0.00000038,
 0.00000404,0.00000143,-0.00000354,0.00000104,-0.00000060,0.00000162,-0
 .00015898,-0.00011486,0.00030007,0.00036114,0.00017862,0.00002607,0.00
 036216,0.00030696,-0.00001745,-0.00009098,0.00004235,0.00174060,0.0002
 0028,0.00278439,-0.00082342,-0.01168491,0.05990444,0.31924204,-0.00006
 689,-0.00007452,0.00018532,-0.00002315,0.00016188,0.00006654,0.0000008
 3,0.00004435,0.00001838,-0.00001523,-0.00027912,0.00054535,-0.00026776
 ,0.00006900,-0.00006700,0.00001916,-0.00006096,0.00000448,-0.00017347,
 0.00003319,-0.00001965,0.00013641,0.00004006,-0.00000182,0.00001170,-0
 .00006787,0.00010319,-0.00003789,0.00003479,-0.00000657,0.00001011,-0.
 00002293,0.00001465,-0.00001263,0.00001132,-0.00000700,0.00000501,-0.0
 0000983,0.00000537,-0.00000434,0.00000604,-0.00000455,0.00000149,-0.00
 000382,0.00000255,-0.00135334,0.00017027,-0.00066168,-0.00066973,0.001
 35924,-0.00004929,0.00615614,0.00741256,0.00046129,-0.15651683,-0.1266
 8241,-0.03020344,-0.01925726,-0.01960967,-0.00760309,-0.00001309,-0.00
 002391,-0.00000992,0.00006156,-0.00007063,-0.00002329,0.00000128,-0.00
 000970,-0.00000663,-0.00001225,-0.00004116,0.00001486,0.00000146,-0.00
 003282,-0.00001091,0.00002843,-0.00000036,-0.00001567,0.00000185,-0.00
 002170,0.00000790,0.00000517,-0.00000428,0.00002813,-0.00000091,-0.000
 00146,-0.00000715,0.00000915,0.00000490,-0.00000047,0.00003344,0.00000
 131,-0.00000702,-0.00000705,0.00001097,0.00000886,0.00000316,-0.000001
 39,0.00001491,-0.00000114,0.00000155,-0.00000225,0.00000221,0.00000031
 ,0.00000014,-0.00000179,0.00000309,0.00000141,0.00000087,-0.00000070,0
 .00000336,-0.00000023,-0.00000052,-0.00000006,0.00000006,0.00000016,0.
 00000024,-0.00000102,0.00000144,0.00000055,0.00000038,-0.00000046,0.00
 000151,-0.00000022,-0.00000032,0.00000023,-0.00000034,0.00000144,-0.00
 000034,-0.00000348,-0.00000121,0.00000288,0.,0.00000054,-0.00000069,0.
 00006731,-0.00014715,0.00042016,0.00010967,0.00011005,-0.00003918,0.00
 026276,-0.00009212,-0.00014462,-0.00031097,0.00058027,0.00003806,0.001
 32984,-0.00001414,0.00051841,0.00130334,0.00104946,-0.00005830,0.17135
 400,-0.00000524,0.00004067,-0.00006843,0.00009157,-0.00005564,0.000019
 80,0.00003823,-0.00006505,-0.00001785,0.00002532,0.00019494,-0.0000675
 5,0.00004050,-0.00006558,-0.00002713,0.00000692,-0.00000477,-0.0000187
 1,-0.00002132,-0.00012058,-0.00003474,0.00004782,0.00008840,0.00002693
 ,0.00001874,0.00002060,-0.00000722,-0.00000133,-0.00000329,-0.00000887
 ,0.00000634,-0.00000484,0.00000071,-0.00000381,0.00000316,-0.00000383,
 0.00000334,-0.00000438,0.00000199,-0.00000193,0.00000267,-0.00000289,0
 .00000110,-0.00000227,0.00000130,0.00075511,-0.00052438,0.00002890,0.0
 0208714,-0.00280931,0.00216737,-0.01544501,-0.01775515,-0.00402896,-0.
 12761494,-0.18901607,-0.03742263,0.00907431,0.00727679,0.00190412,0.00
 000524,0.00000070,-0.00000369,-0.00001084,0.00002522,0.00000858,-0.000
 02072,0.00000816,-0.00000470,-0.00001756,0.00002365,0.00000263,0.00000
 478,0.00008391,0.00000241,-0.00009645,0.00001537,0.00002343,0.00001723
 ,0.00004609,-0.00001510,-0.00000182,0.00000028,0.00000613,-0.00000565,
 0.00000617,-0.00000121,0.00000742,0.00005247,-0.00000456,-0.00000276,-
 0.00000208,-0.00000112,-0.00001047,0.00000648,0.00000443,0.00000097,0.
 ,0.00000065,0.00000111,0.00000432,0.00000016,-0.00000074,-0.00000033,0
 .00000015,-0.00000209,0.00000253,0.00000135,0.00000038,-0.00000044,0.0
 0000110,0.00000028,0.00000098,0.00000029,-0.00000036,-0.00000008,0.000
 00003,-0.00000087,0.00000128,0.00000060,0.00000018,-0.00000031,0.00000
 067,-0.00000005,0.00000040,0.00000033,-0.00000030,0.00000127,-0.000000
 08,-0.00000206,-0.00000085,0.00000175,-0.00000014,0.00000025,-0.000000
 49,-0.00010729,0.00007759,0.00005785,0.00015842,0.00007875,-0.00021233
 ,-0.00113857,-0.00023220,0.00048484,0.00005329,-0.00169740,0.00116077,
 0.00012937,0.00207200,-0.00018039,-0.00500319,-0.00558060,-0.00182819,
 0.13498862,0.20597793,-0.00000575,-0.00000237,0.00000526,-0.00006567,0
 .00002096,-0.00004547,-0.00001419,0.00005385,0.00000424,0.00001918,-0.
 00006367,-0.00025377,0.00011256,0.00001331,-0.00000837,-0.00001314,0.0
 0002496,0.00001391,0.00011712,0.00009661,0.00000836,-0.00011100,-0.000
 08501,0.00003777,-0.00000581,0.00000005,-0.00003735,0.00001416,-0.0000
 0604,0.00000390,-0.00000156,0.00000470,-0.00000517,0.00000293,-0.00000
 127,0.00000117,-0.00000060,0.00000145,-0.00000108,0.00000078,-0.000000
 55,0.00000040,-0.00000017,0.00000030,-0.00000032,0.00037221,0.00025539
 ,-0.00004650,-0.00048302,0.00251343,-0.00191157,0.01165117,0.01477612,
 0.00138282,-0.03148329,-0.03921221,-0.05640954,0.00474905,0.00677932,0
 .00139260,0.00001469,0.00000131,-0.00000347,0.00000135,-0.00000216,0.0
 0000369,0.00002720,-0.00000171,0.00000214,0.00001259,-0.00000127,0.000
 00366,0.00001243,-0.00003871,-0.00001588,0.00005447,-0.00001739,-0.000
 01490,-0.00001458,-0.00002820,0.00001841,-0.00000323,-0.00000120,-0.00
 000195,0.00000712,-0.00001020,-0.00000566,-0.00001182,-0.00004251,-0.0
 0000208,-0.00000361,0.00000160,-0.00000036,0.00000936,-0.00000526,-0.0
 0000260,-0.00000132,0.00000026,-0.00000307,-0.00000152,-0.00000170,-0.
 00000015,-0.00000039,0.00000003,0.00000017,0.00000068,-0.00000084,-0.0
 0000016,-0.00000017,0.00000018,-0.00000049,-0.00000019,-0.00000032,-0.
 00000011,-0.00000002,0.,0.,0.00000024,-0.00000034,-0.00000008,-0.00000
 007,0.00000008,-0.00000013,-0.00000007,-0.00000006,-0.00000004,0.00000
 009,-0.00000007,0.00000001,0.00000028,0.00000003,-0.00000015,0.0000000
 3,-0.00000002,0.00000002,0.00005671,-0.00006917,-0.00028342,0.00019758
 ,0.00009537,0.00002646,0.00078813,0.00035390,-0.00035078,-0.00002600,0
 .00102194,-0.00032361,0.00051733,0.00004156,0.00151595,-0.02127877,-0.
 02481405,-0.00619981,0.03453938,0.03783364,0.06016823,-0.00128616,-0.0
 0000010,-0.00030869,-0.00038244,-0.00056895,0.00188121,0.00002087,-0.0
 0000256,-0.00006795,-0.00042165,0.00030832,-0.00014960,0.00014410,-0.0
 0000200,-0.00006657,0.00000524,0.00003361,-0.00003052,0.00006347,0.000
 06712,-0.00008759,-0.00000565,-0.00004403,0.00010479,-0.00004263,0.000
 01695,-0.00001974,0.00001748,-0.00000964,0.00002206,-0.00000174,0.0000
 0919,-0.00000604,0.00000394,-0.00000481,0.00000226,-0.00000240,0.00000
 415,-0.00000225,0.00000160,-0.00000278,0.00000186,-0.00000087,0.000001
 73,-0.00000132,0.00572025,0.00246306,0.00514972,-0.00007362,0.00004794
 ,-0.00030099,-0.00159417,-0.00020804,0.00080928,-0.02052715,-0.0078386
 2,-0.01823476,-0.15030644,-0.04291645,-0.12182508,-0.00008139,-0.00001
 111,-0.00000135,-0.00049117,-0.00013791,0.00017295,0.00001889,-0.00000
 262,-0.00000164,-0.00000856,0.00004648,-0.00000999,-0.00003107,0.00005
 368,-0.00005257,0.00007998,0.00004299,-0.00002486,0.00000847,0.0000087
 6,-0.00001383,-0.00002835,-0.00001159,-0.00001002,0.00000093,-0.000028
 04,-0.00002041,-0.00000426,-0.00001003,0.00000413,-0.00001403,-0.00000
 077,0.00003462,0.00000299,-0.00000430,-0.00000202,-0.00001023,-0.00000
 364,-0.00001185,0.00000003,-0.00000203,0.00000029,-0.00000319,-0.00000
 005,-0.00000062,0.00000103,-0.00000145,-0.00000097,-0.00000004,0.00000
 059,-0.00000183,0.00000016,0.00000005,0.00000005,-0.00000002,-0.000000
 08,0.00000012,0.00000048,-0.00000072,-0.00000031,0.00000008,0.00000026
 ,-0.00000047,0.00000009,0.00000015,-0.00000012,0.00000014,-0.00000062,
 0.00000012,0.00000160,0.00000055,-0.00000138,0.00000016,-0.00000026,0.
 00000056,0.00005037,-0.00102721,0.00185288,0.00021799,0.00030606,-0.00
 014349,0.00005653,0.00012336,0.00006689,-0.00017006,0.00033883,-0.0002
 9963,0.00007418,0.00015820,-0.00005921,0.00198680,-0.00039824,0.000011
 40,-0.00410678,0.00219757,0.00063687,0.16916258,-0.00036957,0.00018578
 ,-0.00011318,-0.00040722,-0.00029780,0.00048371,0.00005163,-0.00007193
 ,-0.00001169,0.00006148,0.00072556,-0.00054049,0.00019118,-0.00001631,
 0.00001807,-0.00003902,-0.00002114,0.00002080,0.00013135,0.00013104,-0
 .00010637,-0.00004758,-0.00006057,0.00016100,-0.00001140,0.00001111,-0
 .00003378,0.00000824,-0.00000709,0.00001013,-0.00000167,0.00000012,-0.
 00000542,0.00000144,-0.00000066,0.00000108,-0.00000078,0.00000084,-0.0
 0000080,0.00000034,-0.00000087,0.00000058,-0.00000037,0.00000024,-0.00
 000050,0.01125110,0.00484335,0.01234760,0.00006555,0.00135986,0.000248
 28,0.00051265,-0.00063766,-0.00040877,0.00552585,0.00195234,0.00567464
 ,-0.04281238,-0.06914505,-0.04944478,-0.00016431,-0.00009343,0.0000700
 2,0.00028402,-0.00026330,-0.00019880,-0.00001178,-0.00001389,-0.000009
 35,0.00000954,-0.00000130,-0.00001768,-0.00003199,-0.00004772,0.000037
 14,-0.00012093,-0.00006608,-0.00006483,0.00000551,0.00000196,0.0000070
 8,-0.00002681,-0.00000998,-0.00000039,-0.00000072,-0.00005226,0.000002
 30,-0.00001221,-0.00001586,-0.00000276,-0.00001039,-0.00000184,0.00000
 757,0.00000142,-0.00000155,-0.00000249,-0.00000592,-0.00000242,-0.0000
 0985,-0.00000046,-0.00000154,0.00000081,-0.00000227,0.00000057,-0.0000
 0025,0.,-0.00000014,-0.00000017,0.00000008,-0.00000008,-0.00000086,0.0
 0000012,-0.00000002,0.00000018,-0.00000011,0.00000023,0.00000015,0.000
 00005,-0.00000013,-0.00000014,0.00000013,0.00000002,-0.00000011,0.0000
 0006,0.00000013,0.00000004,0.00000002,-0.00000008,0.00000004,0.0000005
 4,0.00000021,-0.00000048,0.00000008,0.00000002,0.00000029,-0.00034616,
 -0.00102942,0.00282584,-0.00018223,-0.00030295,-0.00007185,-0.00021342
 ,-0.00000380,-0.00021583,0.00013661,-0.00016047,0.00009294,-0.00004224
 ,-0.00002136,0.00000081,-0.00004207,0.00125979,0.00039571,0.00094337,0
 .00033579,0.00022266,0.04631149,0.07001303,0.00004515,-0.00004671,0.00
 094878,-0.00033507,0.00027551,-0.00016392,0.00007942,0.00015763,0.0001
 5907,-0.00176701,-0.00060272,0.00077472,-0.00005399,-0.00009666,-0.000
 07700,0.00005300,-0.00013110,0.00001518,-0.00040848,-0.00035536,0.0002
 7825,0.00024701,0.00025300,-0.00039788,-0.00010516,0.00000461,-0.00002
 612,0.00005121,-0.00000999,-0.00000339,-0.00000417,0.00001135,-0.00000
 704,0.00000435,-0.00000406,-0.00000275,-0.00000246,0.00000049,-0.00000
 418,0.00000026,-0.00000070,-0.00000209,-0.00000069,-0.00000043,-0.0000
 0088,-0.01678776,-0.00781367,-0.02465489,0.00013528,-0.00139922,0.0004
 6313,0.00064585,0.00052321,-0.00021114,0.00931425,0.00195554,0.0063395
 3,-0.12105535,-0.04879000,-0.18086476,-0.00011291,-0.00012602,0.000107
 95,0.00021156,-0.00033841,-0.00009963,0.00001595,0.00002173,0.00001309
 ,-0.00006216,-0.00018948,0.00005238,0.00000904,-0.00012673,-0.00005324
 ,0.00022713,-0.00013617,-0.00006552,-0.00002355,0.00000223,0.00002176,
 0.00006400,0.00006034,-0.00002174,-0.00002077,0.00015971,0.00006369,0.
 00002422,0.00008312,0.00000888,0.00013574,0.00001873,-0.00000338,0.000
 00263,0.00001470,0.00001539,0.00000291,-0.00000753,0.00005870,-0.00000
 109,0.00001662,-0.00000586,0.00001880,0.00000071,0.00000414,-0.0000027
 7,0.00000258,0.00000083,0.00000103,-0.00000039,0.00000723,-0.00000057,
 0.00000221,-0.00000112,0.00000383,0.00000053,0.00000228,-0.00000060,0.
 00000078,0.00000011,0.00000100,-0.00000005,0.00000263,-0.00000032,0.00
 000067,-0.00000025,-0.00000020,0.00000069,-0.00000018,-0.00000025,-0.0
 0000051,0.00000051,0.00000140,0.00000033,0.00000082,0.00121455,0.00419
 815,-0.00397680,-0.00023787,0.00064855,0.00063587,0.00028638,0.0002472
 6,0.00017856,-0.00006974,-0.00004582,0.00007419,0.00007456,-0.00011059
 ,0.00008235,0.00019084,0.00054558,0.00182659,0.00221595,-0.00025024,0.
 00027801,0.12878744,0.05280746,0.20160750,0.00001531,-0.00021998,0.000
 20784,-0.00020913,0.00013537,0.00001516,-0.00004002,0.00005472,0.00004
 019,0.00078615,-0.00084066,-0.00046374,-0.00000815,0.00018422,0.000060
 07,-0.00001168,0.00000931,0.00002036,0.00002043,0.00003017,-0.00001149
 ,-0.00000485,-0.00004705,0.00001193,-0.00001096,-0.00000782,0.00001651
 ,0.00000158,0.00000798,0.00000641,0.00000013,-0.00000247,-0.00000058,-
 0.00000031,0.00000059,0.00000023,0.00000026,-0.00000050,0.00000006,-0.
 00000017,0.00000033,0.00000003,0.00000009,-0.00000009,0.00000012,-0.00
 036036,-0.00743132,-0.00223595,-0.00132700,-0.00047500,0.00175369,-0.0
 0319473,0.00201906,0.00141519,-0.00259008,0.02762093,0.00382588,-0.047
 52260,0.01853997,0.00262567,0.00006064,0.00006843,-0.00003073,-0.00010
 671,0.00007118,-0.00000164,0.00000681,0.00001389,0.00000118,-0.0000089
 3,-0.00002078,0.00000440,0.00000239,0.00002892,-0.00001882,-0.00018525
 ,0.00034799,0.00008815,-0.00000265,0.00003736,-0.00005288,0.00000192,-
 0.00000375,0.00000862,0.00001518,-0.00000715,0.00000100,-0.00000607,-0
 .00000953,-0.00000510,0.00001045,-0.00000485,-0.00000453,-0.00000416,0
 .00000885,0.00001256,-0.00000150,0.00000018,-0.00000005,0.00000039,0.0
 0000096,-0.00000368,0.00000029,-0.00000046,-0.00000036,0.00000025,0.00
 000042,0.00000111,-0.00000010,0.00000018,-0.00000019,-0.00000010,0.000
 00022,-0.00000031,-0.00000012,-0.00000016,-0.00000011,0.00000002,0.000
 00016,0.00000027,-0.00000005,0.00000006,-0.00000007,-0.00000001,-0.000
 00004,-0.00000009,0.00000003,-0.00000003,0.00000006,-0.00000012,0.0000
 0001,0.00000009,-0.00000009,-0.00000004,-0.00000010,0.00030946,0.00077
 191,-0.00019094,-0.00006441,0.00031501,0.00018531,0.00059263,-0.000159
 33,-0.00009421,-0.00026213,0.00095010,-0.00079883,-0.00018089,0.000341
 99,-0.00028181,-0.00200178,0.00099103,0.00079298,0.00194099,-0.0002457
 8,-0.00038972,0.00195362,-0.02058985,-0.00301180,0.05238605,-0.0000555
 7,-0.00030823,0.00015960,-0.00009527,0.00016236,0.00010216,0.00007442,
 -0.00000173,0.00002980,0.00058601,-0.00059380,-0.00010563,-0.00029681,
 0.00032650,0.00007879,-0.00005518,-0.00007069,0.00000440,0.00017764,-0
 .00010037,-0.00008231,-0.00009580,0.00006992,0.00008896,-0.00000934,-0
 .00005331,0.00008173,-0.00002755,0.00002084,0.00000898,0.00000547,-0.0
 0001740,0.00000694,-0.00000714,0.00000265,-0.00000098,0.00000298,-0.00
 000548,0.00000189,-0.00000153,0.00000108,-0.00000084,0.00000094,-0.000
 00176,0.00000079,0.00189251,-0.01407653,-0.00396204,-0.00006176,-0.000
 99180,0.00339125,-0.00025935,-0.00015327,-0.00010127,-0.00156167,-0.00
 394237,-0.00080897,0.02039660,-0.29827824,-0.04118999,0.00003503,0.000
 09075,-0.00002851,-0.00014042,0.00006944,-0.00001993,-0.00000903,0.000
 02735,-0.00000362,-0.00003139,0.00001650,0.00000427,0.00000595,0.00009
 478,-0.00002258,-0.00072518,0.00044503,0.00022356,0.00006392,0.0001048
 3,-0.00015421,-0.00000627,0.00001725,0.00000024,0.00000134,0.00000575,
 0.00004736,-0.00001135,0.00006295,-0.00001461,0.00000773,-0.00000861,-
 0.00000154,-0.00002181,0.00002551,0.00002986,0.00000023,-0.00000093,-0
 .00000023,0.00000199,0.00001069,-0.00000558,-0.00000115,-0.00000160,-0
 .00000133,-0.00000228,0.00000619,0.00000447,0.00000014,-0.00000071,-0.
 00000052,0.00000083,0.00000370,-0.00000028,-0.00000081,-0.00000071,-0.
 00000062,-0.00000118,0.00000273,0.00000162,-0.00000020,-0.00000048,-0.
 00000035,0.00000013,0.00000173,0.00000017,-0.00000049,0.00000134,0.000
 00062,-0.00000106,-0.00000003,0.00000047,-0.00000033,-0.00000030,-0.00
 000040,0.00023666,0.00130746,0.00003624,-0.00013954,0.00035572,-0.0000
 5102,0.00064559,-0.00095224,-0.00015995,0.00016137,-0.00012182,0.00013
 360,0.00013363,-0.00007902,0.00007601,0.00074063,-0.00019423,0.0003052
 2,0.00023501,0.00149678,0.00029328,0.00069753,-0.00847330,-0.00143145,
 -0.02248484,0.32369913,-0.00005086,-0.00020863,0.00030141,-0.00026633,
 0.00008949,-0.00013024,-0.00005068,0.00004871,-0.00001637,-0.00107682,
 0.00049536,0.00038537,0.00003586,-0.00022214,-0.00002663,0.00001230,0.
 00008970,-0.00000424,-0.00000539,0.00012835,0.00003481,0.00000249,-0.0
 0008672,0.00003450,-0.00000223,-0.00002687,-0.00005219,0.00000526,-0.0
 0000545,0.00000440,0.00000070,0.00000247,-0.00000405,0.00000142,0.0000
 0098,-0.00000002,0.00000048,-0.00000016,0.00000022,0.00000010,0.000000
 48,-0.00000011,0.00000017,-0.00000018,0.00000023,-0.00235545,0.0279156
 7,0.00388463,0.00090981,0.00287322,-0.00463620,0.00075167,0.00058759,-
 0.00115719,0.00056549,-0.00711980,-0.00186081,0.00283058,-0.04387804,-
 0.05334605,0.00004138,0.00004286,-0.00001786,-0.00002536,0.00005834,0.
 00002806,0.00003332,-0.00000703,0.00000262,0.00000499,-0.00001722,0.00
 001379,-0.00001424,-0.00004103,-0.00002794,0.00029914,-0.00051930,0.00
 010428,-0.00003778,-0.00007853,0.00007857,-0.00000644,-0.00002984,0.00
 000415,0.00000515,-0.00004517,-0.00003131,-0.00000144,-0.00005389,0.00
 001140,0.00000234,0.00000403,-0.00000741,0.00001986,-0.00000624,-0.000
 00411,-0.00000223,0.00000105,-0.00000351,-0.00000289,-0.00000080,-0.00
 000032,-0.00000076,-0.00000034,-0.00000019,0.00000048,-0.00000021,0.00
 000047,-0.00000024,0.00000018,-0.00000022,-0.00000031,-0.00000050,-0.0
 0000019,-0.00000021,-0.00000017,-0.00000022,0.00000020,-0.00000013,0.0
 0000006,-0.00000015,0.00000005,-0.00000011,-0.00000011,-0.00000019,-0.
 00000003,0.00000008,0.00000002,0.00000002,-0.00000024,-0.00000005,0.00
 000019,-0.00000012,-0.00000004,-0.00000020,-0.00021076,-0.00047739,0.0
 0180624,0.00014161,0.00022479,0.00013860,-0.00094673,0.00148762,0.0003
 9125,-0.00012587,-0.00020125,0.00024052,-0.00004951,-0.00004662,0.0000
 2203,0.00112097,-0.00030619,-0.00032270,-0.00027350,0.00046800,0.00106
 085,0.00221817,-0.02417533,-0.00337839,-0.00349735,0.04303648,0.056480
 12\\0.00000131,0.00000091,0.00000416,-0.00000242,-0.00000294,-0.000002
 65,0.00000803,-0.00000250,-0.00000667,-0.00000121,0.00000160,-0.000006
 01,0.00000300,0.00000195,0.00000537,-0.00000290,-0.00000198,-0.0000070
 4,0.00000646,0.00000633,-0.00000049,-0.00000295,0.00000008,0.00000058,
 -0.00000550,-0.00000331,0.00000287,0.00000125,0.00000013,-0.00000139,0
 .00000027,0.00000175,-0.00000275,0.00000064,-0.00000130,0.00000097,-0.
 00000088,0.00000001,-0.00000059,0.00000037,-0.00000140,-0.00000002,-0.
 00000059,-0.00000075,-0.00000025,0.00000072,0.00000146,0.00000202,0.00
 000830,0.00000007,0.00000347,-0.00000209,-0.00000140,-0.00000221,0.000
 00447,-0.00000186,0.00000331,-0.00000310,-0.00000144,-0.00000018,-0.00
 000045,-0.00000142,-0.00000161,-0.00000242,-0.00000172,0.00000245,-0.0
 0000115,-0.00000132,0.00000009,-0.00000232,-0.00000173,0.00000219,-0.0
 0000486,0.00000347,0.00000249,0.00000168,0.00000136,0.00000245,0.00000
 008,0.00000213,-0.00000150,-0.00000099,-0.00000006,0.00000149,-0.00000
 015,0.00000030,0.00000116,-0.00000153,-0.00000205,-0.00000028,-0.00000
 018,0.00000126,0.00000080,0.00000237,0.00000024,0.00000085,-0.00000129
 ,0.00000090,-0.00000003,0.00000054,-0.00000067,0.00000045,-0.00000002,
 -0.00000080,0.00000008,-0.00000078,-0.00000087,-0.00000046,-0.00000040
 ,-0.00000017,-0.00000063,0.00000011,-0.00000035,0.00000007,0.00000014,
 -0.00000064,-0.00000034,-0.00000037,-0.00000114,-0.00000012,-0.0000003
 6,-0.00000062,-0.00000043,0.00000006,-0.00000049,-0.00000028,-0.000000
 39,-0.00000108,-0.00000050,-0.00000011,-0.00000110,-0.00000040,0.00000
 002,-0.00000114,-0.00000052,-0.00000258,0.00000117,0.00000079,-0.00000
 143,0.00000476,-0.00000213,0.00000056,-0.00000058,-0.00000078,0.000001
 65,0.00000098,0.00000183,-0.00000049,0.00000345,0.00000051,-0.00000026
 ,-0.00000130,0.00000015,-0.00000097,0.00000139,-0.00000121,0.00000206,
 0.00000194,0.00000037,0.00000102,0.00000050,0.00000048\\\@


 ALL MEN WHO EXPLORE
 DEPLORE
 THAT FRUSTRATING HURDLE
 THE GIRDLE.

         -- COLIN FLETCHER
 Job cpu time:       1 days 13 hours  8 minutes 16.4 seconds.
 Elapsed time:       0 days  9 hours 18 minutes 54.0 seconds.
 File lengths (MBytes):  RWF=   1956 Int=      0 D2E=      0 Chk=     45 Scr=      1
 Normal termination of Gaussian 16 at Tue May 23 07:48:16 2023.
### All Done ###
