### Starting Gaussian ###
 Entering Gaussian System, Link 0=g16
 Initial command:
 /cluster/software/gaussian/gaussian-16-A.03/avx2/g16/l1.exe "/local/scratch/cz9n3/Gau-14905.inp" -scrdir="/local/scratch/cz9n3/"
 Entering Link 1 = /cluster/software/gaussian/gaussian-16-A.03/avx2/g16/l1.exe PID=     14906.
  
 Copyright (c) 1988,1990,1992,1993,1995,1998,2003,2009,2016,
            Gaussian, Inc.  All Rights Reserved.
  
 This is part of the Gaussian(R) 16 program.  It is based on
 the Gaussian(R) 09 system (copyright 2009, Gaussian, Inc.),
 the Gaussian(R) 03 system (copyright 2003, Gaussian, Inc.),
 the Gaussian(R) 98 system (copyright 1998, Gaussian, Inc.),
 the Gaussian(R) 94 system (copyright 1995, Gaussian, Inc.),
 the Gaussian 92(TM) system (copyright 1992, Gaussian, Inc.),
 the Gaussian 90(TM) system (copyright 1990, Gaussian, Inc.),
 the Gaussian 88(TM) system (copyright 1988, Gaussian, Inc.),
 the Gaussian 86(TM) system (copyright 1986, Carnegie Mellon
 University), and the Gaussian 82(TM) system (copyright 1983,
 Carnegie Mellon University). Gaussian is a federally registered
 trademark of Gaussian, Inc.
  
 This software contains proprietary and confidential information,
 including trade secrets, belonging to Gaussian, Inc.
  
 This software is provided under written license and may be
 used, copied, transmitted, or stored only in accord with that
 written license.
  
 The following legend is applicable only to US Government
 contracts under FAR:
  
                    RESTRICTED RIGHTS LEGEND
  
 Use, reproduction and disclosure by the US Government is
 subject to restrictions as set forth in subparagraphs (a)
 and (c) of the Commercial Computer Software - Restricted
 Rights clause in FAR 52.227-19.
  
 Gaussian, Inc.
 340 Quinnipiac St., Bldg. 40, Wallingford CT 06492
  
  
 ---------------------------------------------------------------
 Warning -- This program may not be used in any manner that
 competes with the business of Gaussian, Inc. or will provide
 assistance to any competitor of Gaussian, Inc.  The licensee
 of this program is prohibited from giving any competitor of
 Gaussian, Inc. access to this program.  By using this program,
 the user acknowledges that Gaussian, Inc. is engaged in the
 business of creating and licensing software in the field of
 computational chemistry and represents and warrants to the
 licensee that it is not a competitor of Gaussian, Inc. and that
 it will not use this program in any manner prohibited above.
 ---------------------------------------------------------------
  

 Cite this work as:
 Gaussian 16, Revision A.03,
 M. J. Frisch, G. W. Trucks, H. B. Schlegel, G. E. Scuseria, 
 M. A. Robb, J. R. Cheeseman, G. Scalmani, V. Barone, 
 G. A. Petersson, H. Nakatsuji, X. Li, M. Caricato, A. V. Marenich, 
 J. Bloino, B. G. Janesko, R. Gomperts, B. Mennucci, H. P. Hratchian, 
 J. V. Ortiz, A. F. Izmaylov, J. L. Sonnenberg, D. Williams-Young, 
 F. Ding, F. Lipparini, F. Egidi, J. Goings, B. Peng, A. Petrone, 
 T. Henderson, D. Ranasinghe, V. G. Zakrzewski, J. Gao, N. Rega, 
 G. Zheng, W. Liang, M. Hada, M. Ehara, K. Toyota, R. Fukuda, 
 J. Hasegawa, M. Ishida, T. Nakajima, Y. Honda, O. Kitao, H. Nakai, 
 T. Vreven, K. Throssell, J. A. Montgomery, Jr., J. E. Peralta, 
 F. Ogliaro, M. J. Bearpark, J. J. Heyd, E. N. Brothers, K. N. Kudin, 
 V. N. Staroverov, T. A. Keith, R. Kobayashi, J. Normand, 
 K. Raghavachari, A. P. Rendell, J. C. Burant, S. S. Iyengar, 
 J. Tomasi, M. Cossi, J. M. Millam, M. Klene, C. Adamo, R. Cammi, 
 J. W. Ochterski, R. L. Martin, K. Morokuma, O. Farkas, 
 J. B. Foresman, and D. J. Fox, Gaussian, Inc., Wallingford CT, 2016.
 
 ******************************************
 Gaussian 16:  ES64L-G16RevA.03 25-Dec-2016
                28-May-2023 
 ******************************************
 %chk=CdNCqCCNCrC1CCCCCdCN1.chk
 %NProcShared=20
 Will use up to   20 processors via shared memory.
 -----------------------------
 # opt freq b3lyp/6-31g(2df,p)
 -----------------------------
 1/18=20,19=15,26=3,38=1/1,3;
 2/9=110,12=2,17=6,18=5,40=1/2;
 3/5=1,6=6,7=104,11=2,25=1,30=1,71=1,74=-5/1,2,3;
 4//1;
 5/5=2,38=5/2;
 6/7=2,8=2,9=2,10=2,28=1/1;
 7//1,2,3,16;
 1/18=20,19=15,26=3/3(2);
 2/9=110/2;
 99//99;
 2/9=110/2;
 3/5=1,6=6,7=104,11=2,25=1,30=1,71=1,74=-5/1,2,3;
 4/5=5,16=3,69=1/1;
 5/5=2,38=5/2;
 7//1,2,3,16;
 1/18=20,19=15,26=3/3(-5);
 2/9=110/2;
 6/7=2,8=2,9=2,10=2,19=2,28=1/1;
 99/9=1/99;
 -------------------
 Title Card Required
 -------------------
 Symbolic Z-matrix:
 Charge =  0 Multiplicity = 1
 C                     0.99957   0.14533   0.01683 
 N                     2.23719  -0.18459  -0.15869 
 C                     2.92071  -0.86579   0.9715 
 C                     2.60243  -2.36703   0.95642 
 C                     1.12218  -2.60041   1.21983 
 N                     0.75454  -4.00544   1.22658 
 C                    -0.68844  -4.09958   1.41153 
 C                     4.47032  -0.65389   0.87649 
 C                     4.87038   0.61365   1.64819 
 C                     4.18419   1.88346   1.13969 
 C                     4.67372   2.37295  -0.22463 
 C                     6.19496   2.31945  -0.35723 
 C                     6.79824   0.98124  -0.72301 
 C                     6.23049  -0.22519  -0.83905 
 N                     4.96375  -0.67153  -0.51646 
 H                     0.43961   0.62281  -0.79874 
 H                     0.42133  -0.06801   0.9323 
 H                     2.58624  -0.45495   1.93779 
 H                     3.18909  -2.86927   1.73636 
 H                     2.89     -2.79436  -0.00945 
 H                     0.54376  -2.14617   0.41456 
 H                     0.83986  -2.12314   2.16902 
 H                     1.24709  -4.49485   1.97034 
 H                    -1.22459  -3.54849   0.62815 
 H                    -0.9879   -3.69335   2.38359 
 H                    -0.99871  -5.14312   1.35233 
 H                     4.97328  -1.48996   1.37918 
 H                     5.96025   0.72961   1.66465 
 H                     4.61996   0.47212   2.70619 
 H                     4.33145   2.67602   1.88062 
 H                     3.10041   1.75076   1.09412 
 H                     4.33208   3.40816  -0.34813 
 H                     4.1995    1.81773  -1.04191 
 H                     6.6498    2.67735   0.57688 
 H                     6.49864   3.03511  -1.12962 
 H                     7.87941   1.02114  -0.86179 
 H                     6.85489  -1.07528  -1.11386 
 H                     4.2287   -0.36873  -1.16357 
 

 GradGradGradGradGradGradGradGradGradGradGradGradGradGradGradGradGradGrad
 Berny optimization.
 Initialization pass.
                           ----------------------------
                           !    Initial Parameters    !
                           ! (Angstroms and Degrees)  !
 --------------------------                            --------------------------
 ! Name  Definition              Value          Derivative Info.                !
 --------------------------------------------------------------------------------
 ! R1    R(1,2)                  1.2928         estimate D2E/DX2                !
 ! R2    R(1,16)                 1.0985         estimate D2E/DX2                !
 ! R3    R(1,17)                 1.1036         estimate D2E/DX2                !
 ! R4    R(2,3)                  1.4861         estimate D2E/DX2                !
 ! R5    R(3,4)                  1.5347         estimate D2E/DX2                !
 ! R6    R(3,8)                  1.5669         estimate D2E/DX2                !
 ! R7    R(3,18)                 1.102          estimate D2E/DX2                !
 ! R8    R(4,5)                  1.5215         estimate D2E/DX2                !
 ! R9    R(4,19)                 1.0976         estimate D2E/DX2                !
 ! R10   R(4,20)                 1.0946         estimate D2E/DX2                !
 ! R11   R(5,6)                  1.4523         estimate D2E/DX2                !
 ! R12   R(5,21)                 1.0906         estimate D2E/DX2                !
 ! R13   R(5,22)                 1.0993         estimate D2E/DX2                !
 ! R14   R(6,7)                  1.4578         estimate D2E/DX2                !
 ! R15   R(6,23)                 1.0175         estimate D2E/DX2                !
 ! R16   R(7,24)                 1.0977         estimate D2E/DX2                !
 ! R17   R(7,25)                 1.0953         estimate D2E/DX2                !
 ! R18   R(7,26)                 1.0903         estimate D2E/DX2                !
 ! R19   R(8,9)                  1.537          estimate D2E/DX2                !
 ! R20   R(8,15)                 1.4779         estimate D2E/DX2                !
 ! R21   R(8,27)                 1.0976         estimate D2E/DX2                !
 ! R22   R(9,10)                 1.5303         estimate D2E/DX2                !
 ! R23   R(9,28)                 1.0961         estimate D2E/DX2                !
 ! R24   R(9,29)                 1.0964         estimate D2E/DX2                !
 ! R25   R(10,11)                1.5299         estimate D2E/DX2                !
 ! R26   R(10,30)                1.0949         estimate D2E/DX2                !
 ! R27   R(10,31)                1.0928         estimate D2E/DX2                !
 ! R28   R(11,12)                1.5279         estimate D2E/DX2                !
 ! R29   R(11,32)                1.0971         estimate D2E/DX2                !
 ! R30   R(11,33)                1.0959         estimate D2E/DX2                !
 ! R31   R(12,13)                1.5128         estimate D2E/DX2                !
 ! R32   R(12,34)                1.0989         estimate D2E/DX2                !
 ! R33   R(12,35)                1.0959         estimate D2E/DX2                !
 ! R34   R(13,14)                1.3384         estimate D2E/DX2                !
 ! R35   R(13,36)                1.0908         estimate D2E/DX2                !
 ! R36   R(14,15)                1.3813         estimate D2E/DX2                !
 ! R37   R(14,37)                1.09           estimate D2E/DX2                !
 ! R38   R(15,38)                1.0251         estimate D2E/DX2                !
 ! A1    A(2,1,16)             119.8754         estimate D2E/DX2                !
 ! A2    A(2,1,17)             124.3935         estimate D2E/DX2                !
 ! A3    A(16,1,17)            115.6461         estimate D2E/DX2                !
 ! A4    A(1,2,3)              117.0023         estimate D2E/DX2                !
 ! A5    A(2,3,4)              110.2139         estimate D2E/DX2                !
 ! A6    A(2,3,8)              110.289          estimate D2E/DX2                !
 ! A7    A(2,3,18)             110.8769         estimate D2E/DX2                !
 ! A8    A(4,3,8)              109.6816         estimate D2E/DX2                !
 ! A9    A(4,3,18)             108.0811         estimate D2E/DX2                !
 ! A10   A(8,3,18)             107.6327         estimate D2E/DX2                !
 ! A11   A(3,4,5)              110.4941         estimate D2E/DX2                !
 ! A12   A(3,4,19)             109.2553         estimate D2E/DX2                !
 ! A13   A(3,4,20)             109.6375         estimate D2E/DX2                !
 ! A14   A(5,4,19)             109.0743         estimate D2E/DX2                !
 ! A15   A(5,4,20)             110.3935         estimate D2E/DX2                !
 ! A16   A(19,4,20)            107.9358         estimate D2E/DX2                !
 ! A17   A(4,5,6)              113.295          estimate D2E/DX2                !
 ! A18   A(4,5,21)             108.9217         estimate D2E/DX2                !
 ! A19   A(4,5,22)             109.4354         estimate D2E/DX2                !
 ! A20   A(6,5,21)             105.7903         estimate D2E/DX2                !
 ! A21   A(6,5,22)             110.548          estimate D2E/DX2                !
 ! A22   A(21,5,22)            108.6943         estimate D2E/DX2                !
 ! A23   A(5,6,7)              108.2774         estimate D2E/DX2                !
 ! A24   A(5,6,23)             110.254          estimate D2E/DX2                !
 ! A25   A(7,6,23)             110.815          estimate D2E/DX2                !
 ! A26   A(6,7,24)             111.1317         estimate D2E/DX2                !
 ! A27   A(6,7,25)             111.0556         estimate D2E/DX2                !
 ! A28   A(6,7,26)             109.6695         estimate D2E/DX2                !
 ! A29   A(24,7,25)            108.2789         estimate D2E/DX2                !
 ! A30   A(24,7,26)            107.6246         estimate D2E/DX2                !
 ! A31   A(25,7,26)            108.9883         estimate D2E/DX2                !
 ! A32   A(3,8,9)              109.7857         estimate D2E/DX2                !
 ! A33   A(3,8,15)             112.689          estimate D2E/DX2                !
 ! A34   A(3,8,27)             108.8082         estimate D2E/DX2                !
 ! A35   A(9,8,15)             113.3398         estimate D2E/DX2                !
 ! A36   A(9,8,27)             106.1991         estimate D2E/DX2                !
 ! A37   A(15,8,27)            105.64           estimate D2E/DX2                !
 ! A38   A(8,9,10)             113.6261         estimate D2E/DX2                !
 ! A39   A(8,9,28)             110.707          estimate D2E/DX2                !
 ! A40   A(8,9,29)             108.5783         estimate D2E/DX2                !
 ! A41   A(10,9,28)            111.2871         estimate D2E/DX2                !
 ! A42   A(10,9,29)            108.9864         estimate D2E/DX2                !
 ! A43   A(28,9,29)            103.0769         estimate D2E/DX2                !
 ! A44   A(9,10,11)            114.7292         estimate D2E/DX2                !
 ! A45   A(9,10,30)            108.3894         estimate D2E/DX2                !
 ! A46   A(9,10,31)            110.9643         estimate D2E/DX2                !
 ! A47   A(11,10,30)           109.1979         estimate D2E/DX2                !
 ! A48   A(11,10,31)           108.6019         estimate D2E/DX2                !
 ! A49   A(30,10,31)           104.4478         estimate D2E/DX2                !
 ! A50   A(10,11,12)           112.6287         estimate D2E/DX2                !
 ! A51   A(10,11,32)           107.6165         estimate D2E/DX2                !
 ! A52   A(10,11,33)           111.3752         estimate D2E/DX2                !
 ! A53   A(12,11,32)           109.4696         estimate D2E/DX2                !
 ! A54   A(12,11,33)           110.3864         estimate D2E/DX2                !
 ! A55   A(32,11,33)           105.031          estimate D2E/DX2                !
 ! A56   A(11,12,13)           116.679          estimate D2E/DX2                !
 ! A57   A(11,12,34)           109.0821         estimate D2E/DX2                !
 ! A58   A(11,12,35)           108.312          estimate D2E/DX2                !
 ! A59   A(13,12,34)           109.1828         estimate D2E/DX2                !
 ! A60   A(13,12,35)           107.2627         estimate D2E/DX2                !
 ! A61   A(34,12,35)           105.7675         estimate D2E/DX2                !
 ! A62   A(12,13,14)           130.4795         estimate D2E/DX2                !
 ! A63   A(12,13,36)           113.1837         estimate D2E/DX2                !
 ! A64   A(14,13,36)           116.2579         estimate D2E/DX2                !
 ! A65   A(13,14,15)           131.3044         estimate D2E/DX2                !
 ! A66   A(13,14,37)           118.8077         estimate D2E/DX2                !
 ! A67   A(15,14,37)           109.4035         estimate D2E/DX2                !
 ! A68   A(8,15,14)            121.4977         estimate D2E/DX2                !
 ! A69   A(8,15,38)            110.6142         estimate D2E/DX2                !
 ! A70   A(14,15,38)           114.5026         estimate D2E/DX2                !
 ! D1    D(16,1,2,3)          -178.0933         estimate D2E/DX2                !
 ! D2    D(17,1,2,3)            -1.595          estimate D2E/DX2                !
 ! D3    D(2,1,16,17)          176.795          estimate D2E/DX2                !
 ! D4    D(1,2,3,4)             82.8239         estimate D2E/DX2                !
 ! D5    D(1,2,3,8)           -155.927          estimate D2E/DX2                !
 ! D6    D(1,2,3,18)           -36.8067         estimate D2E/DX2                !
 ! D7    D(2,3,4,5)            -65.3606         estimate D2E/DX2                !
 ! D8    D(2,3,4,19)           174.632          estimate D2E/DX2                !
 ! D9    D(2,3,4,20)            56.5335         estimate D2E/DX2                !
 ! D10   D(8,3,4,5)            173.0288         estimate D2E/DX2                !
 ! D11   D(8,3,4,19)            53.0214         estimate D2E/DX2                !
 ! D12   D(8,3,4,20)           -65.0771         estimate D2E/DX2                !
 ! D13   D(18,3,4,5)            55.9509         estimate D2E/DX2                !
 ! D14   D(18,3,4,19)          -64.0565         estimate D2E/DX2                !
 ! D15   D(18,3,4,20)          177.8451         estimate D2E/DX2                !
 ! D16   D(2,3,8,9)             90.3998         estimate D2E/DX2                !
 ! D17   D(2,3,8,15)           -36.9557         estimate D2E/DX2                !
 ! D18   D(2,3,8,27)          -153.7688         estimate D2E/DX2                !
 ! D19   D(4,3,8,9)           -148.0347         estimate D2E/DX2                !
 ! D20   D(4,3,8,15)            84.6098         estimate D2E/DX2                !
 ! D21   D(4,3,8,27)           -32.2032         estimate D2E/DX2                !
 ! D22   D(18,3,8,9)           -30.676          estimate D2E/DX2                !
 ! D23   D(18,3,8,15)         -158.0314         estimate D2E/DX2                !
 ! D24   D(18,3,8,27)           85.1555         estimate D2E/DX2                !
 ! D25   D(3,4,5,6)           -179.6665         estimate D2E/DX2                !
 ! D26   D(3,4,5,21)            62.8954         estimate D2E/DX2                !
 ! D27   D(3,4,5,22)           -55.8069         estimate D2E/DX2                !
 ! D28   D(19,4,5,6)           -59.5504         estimate D2E/DX2                !
 ! D29   D(19,4,5,21)         -176.9885         estimate D2E/DX2                !
 ! D30   D(19,4,5,22)           64.3092         estimate D2E/DX2                !
 ! D31   D(20,4,5,6)            58.8858         estimate D2E/DX2                !
 ! D32   D(20,4,5,21)          -58.5523         estimate D2E/DX2                !
 ! D33   D(20,4,5,22)         -177.2546         estimate D2E/DX2                !
 ! D34   D(4,5,6,7)           -176.8414         estimate D2E/DX2                !
 ! D35   D(4,5,6,23)            61.7746         estimate D2E/DX2                !
 ! D36   D(21,5,6,7)           -57.5888         estimate D2E/DX2                !
 ! D37   D(21,5,6,23)         -178.9728         estimate D2E/DX2                !
 ! D38   D(22,5,6,7)            59.9092         estimate D2E/DX2                !
 ! D39   D(22,5,6,23)          -61.4747         estimate D2E/DX2                !
 ! D40   D(5,6,7,24)            57.3037         estimate D2E/DX2                !
 ! D41   D(5,6,7,25)           -63.3008         estimate D2E/DX2                !
 ! D42   D(5,6,7,26)           176.1772         estimate D2E/DX2                !
 ! D43   D(23,6,7,24)          178.3407         estimate D2E/DX2                !
 ! D44   D(23,6,7,25)           57.7363         estimate D2E/DX2                !
 ! D45   D(23,6,7,26)          -62.7857         estimate D2E/DX2                !
 ! D46   D(3,8,9,10)           -58.7876         estimate D2E/DX2                !
 ! D47   D(3,8,9,28)           175.1282         estimate D2E/DX2                !
 ! D48   D(3,8,9,29)            62.6559         estimate D2E/DX2                !
 ! D49   D(15,8,9,10)           68.2033         estimate D2E/DX2                !
 ! D50   D(15,8,9,28)          -57.8809         estimate D2E/DX2                !
 ! D51   D(15,8,9,29)         -170.3532         estimate D2E/DX2                !
 ! D52   D(27,8,9,10)         -176.2587         estimate D2E/DX2                !
 ! D53   D(27,8,9,28)           57.6571         estimate D2E/DX2                !
 ! D54   D(27,8,9,29)          -54.8152         estimate D2E/DX2                !
 ! D55   D(3,8,15,14)          165.993          estimate D2E/DX2                !
 ! D56   D(3,8,15,38)           27.3885         estimate D2E/DX2                !
 ! D57   D(9,8,15,14)           40.5428         estimate D2E/DX2                !
 ! D58   D(9,8,15,38)          -98.0617         estimate D2E/DX2                !
 ! D59   D(27,8,15,14)         -75.3266         estimate D2E/DX2                !
 ! D60   D(27,8,15,38)         146.069          estimate D2E/DX2                !
 ! D61   D(8,9,10,11)          -71.1943         estimate D2E/DX2                !
 ! D62   D(8,9,10,30)          166.4868         estimate D2E/DX2                !
 ! D63   D(8,9,10,31)           52.3484         estimate D2E/DX2                !
 ! D64   D(28,9,10,11)          54.5826         estimate D2E/DX2                !
 ! D65   D(28,9,10,30)         -67.7362         estimate D2E/DX2                !
 ! D66   D(28,9,10,31)         178.1254         estimate D2E/DX2                !
 ! D67   D(29,9,10,11)         167.5901         estimate D2E/DX2                !
 ! D68   D(29,9,10,30)          45.2713         estimate D2E/DX2                !
 ! D69   D(29,9,10,31)         -68.8671         estimate D2E/DX2                !
 ! D70   D(9,10,11,12)         -43.5525         estimate D2E/DX2                !
 ! D71   D(9,10,11,32)        -164.2987         estimate D2E/DX2                !
 ! D72   D(9,10,11,33)          81.0885         estimate D2E/DX2                !
 ! D73   D(30,10,11,12)         78.3277         estimate D2E/DX2                !
 ! D74   D(30,10,11,32)        -42.4185         estimate D2E/DX2                !
 ! D75   D(30,10,11,33)       -157.0313         estimate D2E/DX2                !
 ! D76   D(31,10,11,12)       -168.3472         estimate D2E/DX2                !
 ! D77   D(31,10,11,32)         70.9066         estimate D2E/DX2                !
 ! D78   D(31,10,11,33)        -43.7062         estimate D2E/DX2                !
 ! D79   D(10,11,12,13)         82.1563         estimate D2E/DX2                !
 ! D80   D(10,11,12,34)        -42.1031         estimate D2E/DX2                !
 ! D81   D(10,11,12,35)       -156.771          estimate D2E/DX2                !
 ! D82   D(32,11,12,13)       -158.1651         estimate D2E/DX2                !
 ! D83   D(32,11,12,34)         77.5755         estimate D2E/DX2                !
 ! D84   D(32,11,12,35)        -37.0923         estimate D2E/DX2                !
 ! D85   D(33,11,12,13)        -43.0253         estimate D2E/DX2                !
 ! D86   D(33,11,12,34)       -167.2847         estimate D2E/DX2                !
 ! D87   D(33,11,12,35)         78.0474         estimate D2E/DX2                !
 ! D88   D(11,12,13,14)         -6.9022         estimate D2E/DX2                !
 ! D89   D(11,12,13,36)        176.5019         estimate D2E/DX2                !
 ! D90   D(34,12,13,14)        117.3059         estimate D2E/DX2                !
 ! D91   D(34,12,13,36)        -59.29           estimate D2E/DX2                !
 ! D92   D(35,12,13,14)       -128.5275         estimate D2E/DX2                !
 ! D93   D(35,12,13,36)         54.8766         estimate D2E/DX2                !
 ! D94   D(12,13,14,15)         -8.6931         estimate D2E/DX2                !
 ! D95   D(12,13,14,37)       -179.773          estimate D2E/DX2                !
 ! D96   D(36,13,14,15)        167.8176         estimate D2E/DX2                !
 ! D97   D(36,13,14,37)         -3.2624         estimate D2E/DX2                !
 ! D98   D(13,14,15,8)         -62.5062         estimate D2E/DX2                !
 ! D99   D(13,14,15,38)         74.6369         estimate D2E/DX2                !
 ! D100  D(37,14,15,8)         109.2116         estimate D2E/DX2                !
 ! D101  D(37,14,15,38)       -113.6453         estimate D2E/DX2                !
 --------------------------------------------------------------------------------
 Trust Radius=3.00D-01 FncErr=1.00D-07 GrdErr=1.00D-06 EigMax=2.50D+02 EigMin=1.00D-04
 Number of steps in this run=    219 maximum allowed number of steps=    228.
 GradGradGradGradGradGradGradGradGradGradGradGradGradGradGradGradGradGrad

                          Input orientation:                          
 ---------------------------------------------------------------------
 Center     Atomic      Atomic             Coordinates (Angstroms)
 Number     Number       Type             X           Y           Z
 ---------------------------------------------------------------------
      1          6           0        0.999570    0.145330    0.016830
      2          7           0        2.237190   -0.184590   -0.158690
      3          6           0        2.920710   -0.865790    0.971500
      4          6           0        2.602430   -2.367030    0.956420
      5          6           0        1.122180   -2.600410    1.219830
      6          7           0        0.754540   -4.005440    1.226580
      7          6           0       -0.688440   -4.099580    1.411530
      8          6           0        4.470320   -0.653890    0.876490
      9          6           0        4.870380    0.613650    1.648190
     10          6           0        4.184190    1.883460    1.139690
     11          6           0        4.673720    2.372950   -0.224630
     12          6           0        6.194960    2.319450   -0.357230
     13          6           0        6.798240    0.981240   -0.723010
     14          6           0        6.230490   -0.225190   -0.839050
     15          7           0        4.963750   -0.671530   -0.516460
     16          1           0        0.439610    0.622810   -0.798740
     17          1           0        0.421330   -0.068010    0.932300
     18          1           0        2.586240   -0.454950    1.937790
     19          1           0        3.189090   -2.869270    1.736360
     20          1           0        2.890000   -2.794360   -0.009450
     21          1           0        0.543760   -2.146170    0.414560
     22          1           0        0.839860   -2.123140    2.169020
     23          1           0        1.247090   -4.494850    1.970340
     24          1           0       -1.224590   -3.548490    0.628150
     25          1           0       -0.987900   -3.693350    2.383590
     26          1           0       -0.998710   -5.143120    1.352330
     27          1           0        4.973280   -1.489960    1.379180
     28          1           0        5.960250    0.729610    1.664650
     29          1           0        4.619960    0.472120    2.706190
     30          1           0        4.331450    2.676020    1.880620
     31          1           0        3.100410    1.750760    1.094120
     32          1           0        4.332080    3.408160   -0.348130
     33          1           0        4.199500    1.817730   -1.041910
     34          1           0        6.649800    2.677350    0.576880
     35          1           0        6.498640    3.035110   -1.129620
     36          1           0        7.879410    1.021140   -0.861790
     37          1           0        6.854890   -1.075280   -1.113860
     38          1           0        4.228700   -0.368730   -1.163570
 ---------------------------------------------------------------------
                    Distance matrix (angstroms):
                    1          2          3          4          5
     1  C    0.000000
     2  N    1.292810   0.000000
     3  C    2.371611   1.486123   0.000000
     4  C    3.124731   2.477885   1.534683   0.000000
     5  C    3.000222   2.996623   2.511033   1.521509   0.000000
     6  N    4.330407   4.326213   3.822926   2.484365   1.452348
     7  C    4.776382   5.133425   4.865901   3.746823   2.358517
     8  C    3.663860   2.505735   1.566914   2.535794   3.888041
     9  C    4.226562   3.291761   2.539265   3.808753   4.956075
    10  C    3.797857   3.123048   3.030354   4.538967   5.430232
    11  C    4.303484   3.532993   3.872106   5.305896   6.279666
    12  C    5.644360   4.687598   4.757309   6.049384   7.240527
    13  C    5.905140   4.741392   4.617155   5.624608   6.987167
    14  C    5.313411   4.051047   3.826631   4.579739   5.997957
    15  N    4.082448   2.792712   2.534911   3.258823   4.636048
    16  H    1.098498   2.071920   3.391981   4.086260   3.863894
    17  H    1.103613   2.121603   2.623907   3.169112   2.643277
    18  H    2.562800   2.142466   1.101987   2.149279   2.694798
    19  H    4.103486   3.421233   2.161243   1.097598   2.147372
    20  H    3.495167   2.694315   2.163929   1.094629   2.161928
    21  H    2.370005   2.654076   2.756709   2.140213   1.090579
    22  H    3.131036   3.335977   2.710151   2.153261   1.099297
    23  H    5.040708   4.908300   4.119316   2.718933   2.041512
    24  H    4.354872   4.890691   4.949574   4.018668   2.599283
    25  H    4.928190   5.401462   5.026562   4.084900   2.645996
    26  H    5.808992   6.110749   5.813986   4.564168   3.313775
    27  H    4.507831   3.399297   2.183766   2.562988   4.011167
    28  H    5.259757   4.245174   3.502080   4.622307   5.890146
    29  H    4.521800   3.783702   2.772472   3.897806   4.887143
    30  H    4.580342   4.089963   3.919325   5.410731   6.211020
    31  H    2.855081   2.461760   2.625578   4.150077   4.781410
    32  H    4.678128   4.163208   4.690420   6.168173   6.990341
    33  H    3.762633   2.939392   3.590321   4.904709   5.839977
    34  H    6.216903   5.310639   5.159038   6.478505   7.669597
    35  H    6.317036   5.428548   5.695025   6.979623   8.135436
    36  H    6.990795   5.812296   5.613391   6.529326   7.944113
    37  H    6.087127   4.798836   4.457621   4.902866   6.374645
    38  H    3.476332   2.238259   2.552730   3.336512   4.506823
                    6          7          8          9         10
     6  N    0.000000
     7  C    1.457827   0.000000
     8  C    5.016221   6.226705   0.000000
     9  C    6.201120   7.291846   1.536954   0.000000
    10  C    6.815364   7.720958   2.566961   1.530309   0.000000
    11  C    7.625604   8.562910   3.227320   2.577065   1.529905
    12  C    8.491811   9.576725   3.652013   2.947198   2.544416
    13  C    8.074292   9.296309   3.263627   3.078044   3.334203
    14  C    6.967291   8.243033   2.495007   2.956335   3.542479
    15  N    5.645405   6.885922   1.477868   2.519150   3.143011
    16  H    5.061798   5.334675   4.547855   5.061548   4.400980
    17  H    3.962447   4.208896   4.091539   4.557544   4.243862
    18  H    4.057946   4.927860   2.171564   2.538320   2.942545
    19  H    2.734555   4.080982   2.699784   3.868493   4.892308
    20  H    2.748577   4.065466   2.804267   4.276004   4.987730
    21  H    2.039777   2.515567   4.225891   5.278076   5.478728
    22  H    2.106781   2.610710   4.124266   4.899630   5.319484
    23  H    1.017500   2.052994   5.132124   6.271266   7.071024
    24  H    2.117517   1.097653   6.393151   7.450674   7.682620
    25  H    2.114750   1.095262   6.426650   7.308249   7.707049
    26  H    2.093804   1.090297   7.091537   8.226430   8.733871
    27  H    4.914132   6.234279   1.097579   2.123236   3.472748
    28  H    7.050675   8.221327   2.180633   1.096145   2.182050
    29  H    6.097480   7.124303   2.153623   1.096405   2.153067
    30  H    7.606836   8.445596   3.480785   2.144257   1.094904
    31  H    6.217274   6.977293   2.776033   2.175501   1.092824
    32  H    8.380929   9.201532   4.244886   3.476255   2.135460
    33  H    7.136043   8.057660   3.140463   3.022669   2.182644
    34  H    8.935093  10.023631   3.992125   2.927951   2.650707
    35  H    9.386997  10.441042   4.663398   4.028763   3.439876
    36  H    8.966135  10.237080   4.177228   3.939582   4.290008
    37  H    7.160850   8.510336   3.134523   3.797326   4.578785
    38  H    5.568506   6.687948   2.074016   3.046772   3.221699
                   11         12         13         14         15
    11  C    0.000000
    12  C    1.527945   0.000000
    13  C    2.588209   1.512795   0.000000
    14  C    3.090530   2.590098   1.338387   0.000000
    15  N    3.072156   3.238394   2.477835   1.381273   0.000000
    16  H    4.617389   6.016442   6.369174   5.852779   4.714111
    17  H    5.037816   6.379471   6.671279   6.075255   4.805905
    18  H    4.126821   5.097771   5.184925   4.587394   3.423858
    19  H    5.790551   6.351471   5.822447   4.782678   3.613126
    20  H    5.470745   6.098751   5.480754   4.295084   3.010632
    21  H    6.155289   7.243858   7.084722   6.131933   4.751597
    22  H    6.375176   7.402408   7.314595   6.458296   5.130833
    23  H    7.982879   8.736915   8.249664   7.138413   5.883495
    24  H    8.401235   9.510700   9.311814   8.293082   6.919724
    25  H    8.698089   9.760089   9.598267   8.632421   7.277625
    26  H    9.547490  10.505305  10.129524   9.013851   7.683646
    27  H    4.193330   4.361104   3.722434   2.846184   2.064793
    28  H    2.815156   2.582766   2.542925   2.693174   2.777309
    29  H    3.493673   3.908682   4.094328   3.955853   3.436801
    30  H    2.154316   2.933903   3.966891   4.406810   4.165560
    31  H    2.145117   3.464977   4.191428   4.175994   3.454489
    32  H    1.097101   2.157706   3.480290   4.128704   4.131732
    33  H    1.095947   2.168495   2.748611   2.887836   2.656424
    34  H    2.154059   1.098878   2.142087   3.256596   3.905529
    35  H    2.141914   1.095891   2.115059   3.284188   4.058452
    36  H    3.536921   2.185763   1.090771   2.067073   3.389020
    37  H    4.175946   3.540083   2.094098   1.089977   2.023935
    38  H    2.931972   3.426759   2.935822   2.032998   1.025055
                   16         17         18         19         20
    16  H    0.000000
    17  H    1.863885   0.000000
    18  H    3.641179   2.418175   0.000000
    19  H    5.116737   4.019212   2.496586   0.000000
    20  H    4.278369   3.796605   3.058897   1.772828   0.000000
    21  H    3.024929   2.145179   3.058133   3.044306   2.470785
    22  H    4.063009   2.434790   2.426143   2.502556   3.065835
    23  H    5.874544   4.621290   4.256192   2.543348   3.083892
    24  H    4.712252   3.862033   5.080115   4.601091   4.231441
    25  H    5.549256   4.151537   4.843599   4.306421   4.644667
    26  H    6.319954   5.286746   5.930731   4.780747   4.742698
    27  H    5.455391   4.789770   2.661062   2.283289   2.823085
    28  H    6.046252   5.643773   3.586326   4.542731   4.964616
    29  H    5.457341   4.589871   2.363454   3.762027   4.586650
    30  H    5.151802   4.870118   3.584969   5.663571   5.964495
    31  H    3.454714   3.242157   2.416879   4.665299   4.681907
    32  H    4.807551   5.386764   4.816327   6.712500   6.376955
    33  H    3.952687   4.661340   4.079987   5.541451   4.904298
    34  H    6.684304   6.815949   5.308098   6.639721   6.664795
    35  H    6.529971   7.128434   6.074240   7.350419   6.946926
    36  H    7.450723   7.747772   6.167182   6.624558   6.338670
    37  H    6.643691   6.825838   5.283820   4.977976   4.460416
    38  H    3.933631   4.356509   3.510490   3.967755   3.001298
                   21         22         23         24         25
    21  H    0.000000
    22  H    1.779420   0.000000
    23  H    2.903691   2.414605   0.000000
    24  H    2.266977   2.944122   2.967537   0.000000
    25  H    2.935443   2.419154   2.410054   1.777238   0.000000
    26  H    3.498619   3.628719   2.417811   1.765872   1.779170
    27  H    4.580584   4.255576   4.823207   6.573826   6.434239
    28  H    6.258690   5.883108   7.042890   8.426055   8.267783
    29  H    5.359330   4.616609   6.048844   7.392044   6.993090
    30  H    6.304716   5.941911   7.806581   8.436989   8.313684
    31  H    4.710024   4.612223   6.573447   6.856005   6.929311
    32  H    6.766361   7.009060   8.794887   8.956823   9.284176
    33  H    5.585539   6.093251   7.592038   7.810645   8.307537
    34  H    7.783085   7.702923   9.086884  10.038413  10.108634
    35  H    8.043056   8.337287   9.689625  10.299603  10.661290
    36  H    8.091519   8.284176   9.079360  10.294865  10.554056
    37  H    6.581279   6.932236   7.256250   8.627245   8.977516
    38  H    4.385039   5.066394   5.977981   6.561974   7.130803
                   26         27         28         29         30
    26  H    0.000000
    27  H    7.000783   0.000000
    28  H    9.111181   2.445832   0.000000
    29  H    8.058121   2.394901   1.716824   0.000000
    30  H    9.477798   4.244853   2.547184   2.371071   0.000000
    31  H    8.024652   3.753820   3.089812   2.557875   1.729204
    32  H   10.219260   5.233194   3.725165   4.246419   2.345923
    33  H    9.011504   4.171478   3.407303   4.004461   3.048812
    34  H   10.966348   4.562990   2.335040   3.676581   2.659791
    35  H   11.368983   5.394169   3.662395   4.981144   3.726554
    36  H   11.032744   4.446702   3.186073   4.863735   4.779902
    37  H    9.181963   3.150820   3.431928   4.688512   5.422814
    38  H    7.513346   2.877001   3.493343   3.979341   4.306757
                   31         32         33         34         35
    31  H    0.000000
    32  H    2.518744   0.000000
    33  H    2.403145   1.740223   0.000000
    34  H    3.704629   2.600299   3.059967   0.000000
    35  H    4.259406   2.333211   2.603027   1.750138   0.000000
    36  H    5.215052   4.306421   3.769448   2.514904   2.456488
    37  H    5.192090   5.201168   3.927567   4.121031   4.125829
    38  H    3.295822   3.865298   2.190037   4.262569   4.091443
                   36         37         38
    36  H    0.000000
    37  H    2.346946   0.000000
    38  H    3.917971   2.720029   0.000000
 Stoichiometry    C12H23N3
 Framework group  C1[X(C12H23N3)]
 Deg. of freedom   108
 Full point group                 C1      NOp   1
 Largest Abelian subgroup         C1      NOp   1
 Largest concise Abelian subgroup C1      NOp   1
                         Standard orientation:                         
 ---------------------------------------------------------------------
 Center     Atomic      Atomic             Coordinates (Angstroms)
 Number     Number       Type             X           Y           Z
 ---------------------------------------------------------------------
      1          6           0       -1.249285    2.024629   -0.884655
      2          7           0       -0.517629    0.959783   -0.838387
      3          6           0       -0.663736    0.092249    0.359361
      4          6           0       -1.870249   -0.841634    0.193713
      5          6           0       -3.162799   -0.039969    0.153239
      6          7           0       -4.347323   -0.867201    0.005234
      7          6           0       -5.507521    0.009627   -0.096610
      8          6           0        0.635005   -0.756983    0.576837
      9          6           0        1.610649    0.007809    1.485375
     10          6           0        2.022168    1.373619    0.931245
     11          6           0        2.952790    1.318159   -0.281799
     12          6           0        4.065267    0.282967   -0.122454
     13          6           0        3.709403   -1.151621   -0.444731
     14          6           0        2.528737   -1.708714   -0.739614
     15          7           0        1.244630   -1.201877   -0.693800
     16          1           0       -1.202235    2.683128   -1.762643
     17          1           0       -1.983361    2.310686   -0.111827
     18          1           0       -0.822144    0.698110    1.266122
     19          1           0       -1.907092   -1.539054    1.040453
     20          1           0       -1.757236   -1.429633   -0.722637
     21          1           0       -3.146358    0.613675   -0.719597
     22          1           0       -3.236448    0.581162    1.057244
     23          1           0       -4.438623   -1.496941    0.799211
     24          1           0       -5.401059    0.711147   -0.934092
     25          1           0       -5.644146    0.589813    0.822257
     26          1           0       -6.402912   -0.585881   -0.276590
     27          1           0        0.370846   -1.675806    1.115968
     28          1           0        2.487252   -0.607836    1.717932
     29          1           0        1.138841    0.147793    2.465123
     30          1           0        2.508620    1.939215    1.732669
     31          1           0        1.144563    1.970281    0.670345
     32          1           0        3.395330    2.314259   -0.406594
     33          1           0        2.393155    1.137874   -1.206681
     34          1           0        4.460980    0.335567    0.901352
     35          1           0        4.896351    0.566991   -0.777898
     36          1           0        4.558849   -1.831846   -0.370454
     37          1           0        2.488500   -2.779439   -0.939561
     38          1           0        1.018009   -0.549018   -1.450871
 ---------------------------------------------------------------------
 Rotational constants (GHZ):           1.3862588           0.2745622           0.2544585
 Standard basis: 6-31G(2df,p) (6D, 7F)
 There are   580 symmetry adapted cartesian basis functions of A   symmetry.
 There are   535 symmetry adapted basis functions of A   symmetry.
   535 basis functions,   821 primitive gaussians,   580 cartesian basis functions
    58 alpha electrons       58 beta electrons
       nuclear repulsion energy      1058.6386287710 Hartrees.
 NAtoms=   38 NActive=   38 NUniq=   38 SFac= 1.00D+00 NAtFMM=   60 NAOKFM=F Big=F
 Integral buffers will be    131072 words long.
 Raffenetti 2 integral format.
 Two-electron integral symmetry is turned on.
 One-electron integrals computed using PRISM.
 PrsmSu:  requested number of processors reduced to:  12 ShMem   1 Linda.
 NBasis=   535 RedAO= T EigKep=  2.74D-04  NBF=   535
 NBsUse=   535 1.00D-06 EigRej= -1.00D+00 NBFU=   535
 ExpMin= 1.61D-01 ExpMax= 4.17D+03 ExpMxC= 6.27D+02 IAcc=3 IRadAn=         5 AccDes= 0.00D+00
 Harris functional with IExCor=  402 and IRadAn=       5 diagonalized for initial guess.
 HarFok:  IExCor=  402 AccDes= 0.00D+00 IRadAn=         5 IDoV= 1 UseB2=F ITyADJ=14
 ICtDFT=  3500011 ScaDFX=  1.000000  1.000000  1.000000  1.000000
 FoFCou: FMM=F IPFlag=           0 FMFlag=      100000 FMFlg1=           0
         NFxFlg=           0 DoJE=T BraDBF=F KetDBF=T FulRan=T
         wScrn=  0.000000 ICntrl=       500 IOpCl=  0 I1Cent=   200000004 NGrid=           0
         NMat0=    1 NMatS0=      1 NMatT0=    0 NMatD0=    1 NMtDS0=    0 NMtDT0=    0
 Petite list used in FoFCou.
 Requested convergence on RMS density matrix=1.00D-08 within 128 cycles.
 Requested convergence on MAX density matrix=1.00D-06.
 Requested convergence on             energy=1.00D-06.
 No special actions if energy rises.
 Integral accuracy reduced to 1.0D-05 until final iterations.
 Initial convergence to 1.0D-05 achieved.  Increase integral accuracy.
 SCF Done:  E(RB3LYP) =  -635.335220626     A.U. after   13 cycles
            NFock= 13  Conv=0.80D-08     -V/T= 2.0082

 **********************************************************************

            Population analysis using the SCF density.

 **********************************************************************

 Orbital symmetries:
       Occupied  (A) (A) (A) (A) (A) (A) (A) (A) (A) (A) (A) (A)
                 (A) (A) (A) (A) (A) (A) (A) (A) (A) (A) (A) (A)
                 (A) (A) (A) (A) (A) (A) (A) (A) (A) (A) (A) (A)
                 (A) (A) (A) (A) (A) (A) (A) (A) (A) (A) (A) (A)
                 (A) (A) (A) (A) (A) (A) (A) (A) (A) (A)
       Virtual   (A) (A) (A) (A) (A) (A) (A) (A) (A) (A) (A) (A)
                 (A) (A) (A) (A) (A) (A) (A) (A) (A) (A) (A) (A)
                 (A) (A) (A) (A) (A) (A) (A) (A) (A) (A) (A) (A)
                 (A) (A) (A) (A) (A) (A) (A) (A) (A) (A) (A) (A)
                 (A) (A) (A) (A) (A) (A) (A) (A) (A) (A) (A) (A)
                 (A) (A) (A) (A) (A) (A) (A) (A) (A) (A) (A) (A)
                 (A) (A) (A) (A) (A) (A) (A) (A) (A) (A) (A) (A)
                 (A) (A) (A) (A) (A) (A) (A) (A) (A) (A) (A) (A)
                 (A) (A) (A) (A) (A) (A) (A) (A) (A) (A) (A) (A)
                 (A) (A) (A) (A) (A) (A) (A) (A) (A) (A) (A) (A)
                 (A) (A) (A) (A) (A) (A) (A) (A) (A) (A) (A) (A)
                 (A) (A) (A) (A) (A) (A) (A) (A) (A) (A) (A) (A)
                 (A) (A) (A) (A) (A) (A) (A) (A) (A) (A) (A) (A)
                 (A) (A) (A) (A) (A) (A) (A) (A) (A) (A) (A) (A)
                 (A) (A) (A) (A) (A) (A) (A) (A) (A) (A) (A) (A)
                 (A) (A) (A) (A) (A) (A) (A) (A) (A) (A) (A) (A)
                 (A) (A) (A) (A) (A) (A) (A) (A) (A) (A) (A) (A)
                 (A) (A) (A) (A) (A) (A) (A) (A) (A) (A) (A) (A)
                 (A) (A) (A) (A) (A) (A) (A) (A) (A) (A) (A) (A)
                 (A) (A) (A) (A) (A) (A) (A) (A) (A) (A) (A) (A)
                 (A) (A) (A) (A) (A) (A) (A) (A) (A) (A) (A) (A)
                 (A) (A) (A) (A) (A) (A) (A) (A) (A) (A) (A) (A)
                 (A) (A) (A) (A) (A) (A) (A) (A) (A) (A) (A) (A)
                 (A) (A) (A) (A) (A) (A) (A) (A) (A) (A) (A) (A)
                 (A) (A) (A) (A) (A) (A) (A) (A) (A) (A) (A) (A)
                 (A) (A) (A) (A) (A) (A) (A) (A) (A) (A) (A) (A)
                 (A) (A) (A) (A) (A) (A) (A) (A) (A) (A) (A) (A)
                 (A) (A) (A) (A) (A) (A) (A) (A) (A) (A) (A) (A)
                 (A) (A) (A) (A) (A) (A) (A) (A) (A) (A) (A) (A)
                 (A) (A) (A) (A) (A) (A) (A) (A) (A) (A) (A) (A)
                 (A) (A) (A) (A) (A) (A) (A) (A) (A) (A) (A) (A)
                 (A) (A) (A) (A) (A) (A) (A) (A) (A) (A) (A) (A)
                 (A) (A) (A) (A) (A) (A) (A) (A) (A) (A) (A) (A)
                 (A) (A) (A) (A) (A) (A) (A) (A) (A) (A) (A) (A)
                 (A) (A) (A) (A) (A) (A) (A) (A) (A) (A) (A) (A)
                 (A) (A) (A) (A) (A) (A) (A) (A) (A) (A) (A) (A)
                 (A) (A) (A) (A) (A) (A) (A) (A) (A) (A) (A) (A)
                 (A) (A) (A) (A) (A) (A) (A) (A) (A) (A) (A) (A)
                 (A) (A) (A) (A) (A) (A) (A) (A) (A) (A) (A) (A)
                 (A) (A) (A) (A) (A) (A) (A) (A) (A)
 The electronic state is 1-A.
 Alpha  occ. eigenvalues --  -14.34144 -14.30979 -14.28907 -10.23427 -10.21688
 Alpha  occ. eigenvalues --  -10.20305 -10.19847 -10.19757 -10.18385 -10.17947
 Alpha  occ. eigenvalues --  -10.17516 -10.16844 -10.16585 -10.16499 -10.16240
 Alpha  occ. eigenvalues --   -0.92380  -0.90058  -0.88889  -0.79320  -0.78619
 Alpha  occ. eigenvalues --   -0.75660  -0.70530  -0.69101  -0.66246  -0.64438
 Alpha  occ. eigenvalues --   -0.60784  -0.59187  -0.56966  -0.56148  -0.52249
 Alpha  occ. eigenvalues --   -0.49679  -0.48796  -0.46802  -0.46242  -0.46074
 Alpha  occ. eigenvalues --   -0.44318  -0.43524  -0.43031  -0.42329  -0.41456
 Alpha  occ. eigenvalues --   -0.40609  -0.40239  -0.38159  -0.37392  -0.36926
 Alpha  occ. eigenvalues --   -0.35916  -0.35457  -0.34821  -0.33475  -0.32323
 Alpha  occ. eigenvalues --   -0.31870  -0.31111  -0.30511  -0.28558  -0.26463
 Alpha  occ. eigenvalues --   -0.22930  -0.21998  -0.19279
 Alpha virt. eigenvalues --   -0.02666   0.03142   0.08195   0.08999   0.10369
 Alpha virt. eigenvalues --    0.11099   0.12134   0.12246   0.13392   0.13603
 Alpha virt. eigenvalues --    0.14135   0.14577   0.15204   0.15382   0.16398
 Alpha virt. eigenvalues --    0.16595   0.17265   0.17947   0.18737   0.19342
 Alpha virt. eigenvalues --    0.19709   0.19927   0.20927   0.21237   0.21625
 Alpha virt. eigenvalues --    0.22267   0.22533   0.23541   0.25123   0.25633
 Alpha virt. eigenvalues --    0.26694   0.27607   0.28012   0.28603   0.29048
 Alpha virt. eigenvalues --    0.30540   0.32064   0.35130   0.36380   0.43026
 Alpha virt. eigenvalues --    0.44227   0.46059   0.46311   0.46770   0.47862
 Alpha virt. eigenvalues --    0.49153   0.49643   0.50312   0.50470   0.51716
 Alpha virt. eigenvalues --    0.52006   0.52599   0.54054   0.54482   0.54958
 Alpha virt. eigenvalues --    0.55759   0.55895   0.57205   0.57768   0.58430
 Alpha virt. eigenvalues --    0.58621   0.59156   0.60759   0.61194   0.61858
 Alpha virt. eigenvalues --    0.63307   0.63611   0.63929   0.65812   0.66899
 Alpha virt. eigenvalues --    0.68607   0.69217   0.70381   0.70921   0.71638
 Alpha virt. eigenvalues --    0.72110   0.72636   0.73434   0.73790   0.74231
 Alpha virt. eigenvalues --    0.74698   0.74944   0.75278   0.76425   0.77294
 Alpha virt. eigenvalues --    0.77377   0.78195   0.78978   0.80135   0.80709
 Alpha virt. eigenvalues --    0.81536   0.81972   0.82167   0.82792   0.83458
 Alpha virt. eigenvalues --    0.84018   0.84300   0.85322   0.85669   0.85904
 Alpha virt. eigenvalues --    0.86646   0.87439   0.88077   0.88417   0.90312
 Alpha virt. eigenvalues --    0.91362   0.92291   0.94636   0.95677   0.96493
 Alpha virt. eigenvalues --    0.98109   1.00240   1.01099   1.02090   1.03007
 Alpha virt. eigenvalues --    1.05047   1.07663   1.08732   1.11190   1.11652
 Alpha virt. eigenvalues --    1.13858   1.15871   1.16083   1.16828   1.18223
 Alpha virt. eigenvalues --    1.19495   1.21974   1.22639   1.23552   1.25537
 Alpha virt. eigenvalues --    1.27107   1.29136   1.29703   1.30145   1.32090
 Alpha virt. eigenvalues --    1.33375   1.33817   1.35644   1.36032   1.37441
 Alpha virt. eigenvalues --    1.38137   1.38950   1.41637   1.42838   1.44096
 Alpha virt. eigenvalues --    1.45958   1.46859   1.47772   1.48187   1.48885
 Alpha virt. eigenvalues --    1.49624   1.50690   1.52416   1.53499   1.54172
 Alpha virt. eigenvalues --    1.55337   1.56438   1.58077   1.59982   1.60893
 Alpha virt. eigenvalues --    1.61877   1.63050   1.65383   1.66467   1.66786
 Alpha virt. eigenvalues --    1.68128   1.68778   1.70171   1.71327   1.71695
 Alpha virt. eigenvalues --    1.72845   1.74101   1.76732   1.78271   1.78880
 Alpha virt. eigenvalues --    1.80540   1.81437   1.83463   1.83764   1.85610
 Alpha virt. eigenvalues --    1.86878   1.87863   1.89111   1.91471   1.92363
 Alpha virt. eigenvalues --    1.94873   1.95489   1.96766   1.97752   1.99460
 Alpha virt. eigenvalues --    2.00140   2.01044   2.02903   2.05413   2.05994
 Alpha virt. eigenvalues --    2.09836   2.10896   2.13684   2.17856   2.20254
 Alpha virt. eigenvalues --    2.21089   2.22723   2.23831   2.26791   2.26967
 Alpha virt. eigenvalues --    2.27738   2.29048   2.30171   2.31355   2.32407
 Alpha virt. eigenvalues --    2.34539   2.35349   2.36669   2.39246   2.41852
 Alpha virt. eigenvalues --    2.41917   2.43316   2.44999   2.48174   2.49287
 Alpha virt. eigenvalues --    2.50183   2.51408   2.52703   2.54054   2.55347
 Alpha virt. eigenvalues --    2.57306   2.58135   2.59634   2.60640   2.62036
 Alpha virt. eigenvalues --    2.63256   2.64441   2.68961   2.72010   2.72600
 Alpha virt. eigenvalues --    2.74038   2.75158   2.76214   2.77923   2.78907
 Alpha virt. eigenvalues --    2.78956   2.80839   2.81124   2.81568   2.83224
 Alpha virt. eigenvalues --    2.84142   2.84976   2.85988   2.86623   2.88111
 Alpha virt. eigenvalues --    2.88227   2.90181   2.90480   2.91027   2.92417
 Alpha virt. eigenvalues --    2.93270   2.93725   2.94751   2.95218   2.96896
 Alpha virt. eigenvalues --    2.97786   2.98093   2.98746   2.99690   3.00563
 Alpha virt. eigenvalues --    3.02083   3.02968   3.05736   3.06153   3.07414
 Alpha virt. eigenvalues --    3.08463   3.09805   3.11343   3.14213   3.15002
 Alpha virt. eigenvalues --    3.17298   3.17799   3.18908   3.20518   3.21736
 Alpha virt. eigenvalues --    3.22929   3.25180   3.26709   3.27901   3.28928
 Alpha virt. eigenvalues --    3.29715   3.30020   3.31391   3.33278   3.34304
 Alpha virt. eigenvalues --    3.34599   3.36408   3.36681   3.37255   3.38380
 Alpha virt. eigenvalues --    3.40608   3.40865   3.42989   3.45037   3.45457
 Alpha virt. eigenvalues --    3.46231   3.48226   3.49372   3.49846   3.51760
 Alpha virt. eigenvalues --    3.52799   3.54524   3.55989   3.57574   3.59086
 Alpha virt. eigenvalues --    3.60948   3.61839   3.62754   3.63686   3.64979
 Alpha virt. eigenvalues --    3.65818   3.67137   3.67687   3.68449   3.69577
 Alpha virt. eigenvalues --    3.70387   3.71612   3.73879   3.75053   3.75856
 Alpha virt. eigenvalues --    3.78170   3.79226   3.79548   3.81206   3.82051
 Alpha virt. eigenvalues --    3.83037   3.86281   3.88809   3.91417   3.91483
 Alpha virt. eigenvalues --    3.94361   3.95671   3.97585   3.98003   4.00477
 Alpha virt. eigenvalues --    4.03264   4.05424   4.07519   4.08466   4.10595
 Alpha virt. eigenvalues --    4.11405   4.12738   4.14478   4.16307   4.19352
 Alpha virt. eigenvalues --    4.21216   4.23300   4.25648   4.29873   4.30997
 Alpha virt. eigenvalues --    4.33313   4.34169   4.35168   4.36273   4.38379
 Alpha virt. eigenvalues --    4.38553   4.39246   4.40477   4.42264   4.43602
 Alpha virt. eigenvalues --    4.44376   4.45657   4.46097   4.47768   4.48988
 Alpha virt. eigenvalues --    4.49675   4.50164   4.51092   4.52676   4.54696
 Alpha virt. eigenvalues --    4.54940   4.57543   4.58047   4.60327   4.60413
 Alpha virt. eigenvalues --    4.60989   4.62572   4.63360   4.63740   4.65563
 Alpha virt. eigenvalues --    4.66584   4.67506   4.69040   4.69794   4.70140
 Alpha virt. eigenvalues --    4.70324   4.71522   4.72756   4.74031   4.76223
 Alpha virt. eigenvalues --    4.77340   4.77651   4.78163   4.79196   4.80139
 Alpha virt. eigenvalues --    4.81483   4.81931   4.82610   4.83102   4.84896
 Alpha virt. eigenvalues --    4.85780   4.86773   4.87372   4.88519   4.89917
 Alpha virt. eigenvalues --    4.90542   4.91516   4.92786   4.93211   4.95160
 Alpha virt. eigenvalues --    4.95694   4.96575   4.97338   5.00172   5.01131
 Alpha virt. eigenvalues --    5.01768   5.03758   5.04273   5.04634   5.06136
 Alpha virt. eigenvalues --    5.08254   5.11509   5.12296   5.13300   5.18134
 Alpha virt. eigenvalues --    5.18507   5.20205   5.23676   5.25587   5.27354
 Alpha virt. eigenvalues --    5.29223   5.32159   5.33405   5.35567   5.41382
 Alpha virt. eigenvalues --    5.42137   5.44732   5.47050   5.48088   5.51141
 Alpha virt. eigenvalues --    5.51603   5.55629   5.58781   5.61022   5.63294
 Alpha virt. eigenvalues --    5.66951   5.73694   5.77053   5.80756   5.88413
 Alpha virt. eigenvalues --    6.09460   6.26909   6.48821   6.78079  10.44553
 Alpha virt. eigenvalues --   10.73254  10.76230  11.18577  11.33581  11.45109
 Alpha virt. eigenvalues --   11.46137  11.57253  11.64107  11.94528  12.14303
 Alpha virt. eigenvalues --   12.38350  12.47474  12.64018  12.80806  13.81854
 Alpha virt. eigenvalues --   14.94848  18.32994
          Condensed to atoms (all electrons):
               1          2          3          4          5          6
     1  C    4.952160   0.641925  -0.094376  -0.002910  -0.006406   0.000227
     2  N    0.641925   6.246464   0.372062  -0.028701  -0.005975   0.000179
     3  C   -0.094376   0.372062   4.789752   0.356737  -0.034317   0.001472
     4  C   -0.002910  -0.028701   0.356737   4.925830   0.419700  -0.031303
     5  C   -0.006406  -0.005975  -0.034317   0.419700   4.850476   0.408766
     6  N    0.000227   0.000179   0.001472  -0.031303   0.408766   6.344122
     7  C    0.000025   0.000002  -0.000230   0.003645  -0.075805   0.389172
     8  C    0.003839  -0.029749   0.375873  -0.027928   0.002191  -0.000034
     9  C    0.000122  -0.003262  -0.002969   0.002191  -0.000103   0.000000
    10  C   -0.002458  -0.007296  -0.005773   0.000403   0.000003   0.000000
    11  C    0.000166  -0.000925  -0.001172  -0.000019  -0.000000  -0.000000
    12  C    0.000003   0.000096   0.000005   0.000002  -0.000000   0.000000
    13  C   -0.000001  -0.000013   0.000477   0.000001   0.000000   0.000000
    14  C   -0.000031   0.000041   0.003332   0.000049   0.000002  -0.000000
    15  N    0.000392  -0.013945  -0.017162  -0.001741   0.000094   0.000000
    16  H    0.361874  -0.021069   0.006537  -0.000306   0.000113  -0.000006
    17  H    0.351504  -0.036596  -0.013863   0.001200  -0.004921   0.000036
    18  H   -0.008980  -0.040640   0.353049  -0.041417  -0.009371   0.000075
    19  H   -0.000045   0.002803  -0.022523   0.359035  -0.037666  -0.001905
    20  H    0.000337  -0.002832  -0.016663   0.349395  -0.026774   0.002728
    21  H    0.006400   0.001419  -0.008746  -0.015479   0.345376  -0.021271
    22  H   -0.002449  -0.000518   0.005795  -0.051205   0.352275  -0.053996
    23  H   -0.000003  -0.000008  -0.000281   0.000731  -0.054521   0.344171
    24  H   -0.000028  -0.000006  -0.000007   0.000428  -0.006366  -0.024006
    25  H   -0.000022   0.000000   0.000074  -0.000003  -0.000907  -0.047141
    26  H   -0.000000   0.000000   0.000000  -0.000256   0.004328  -0.024112
    27  H   -0.000162   0.001952  -0.043617  -0.006579   0.000226  -0.000002
    28  H    0.000000  -0.000094   0.003127  -0.000144   0.000001  -0.000000
    29  H    0.000022   0.000402  -0.007182  -0.000049  -0.000024   0.000000
    30  H    0.000069   0.000120  -0.000132  -0.000012  -0.000000  -0.000000
    31  H    0.003845   0.004319   0.004391   0.000346  -0.000003  -0.000000
    32  H    0.000006   0.000017   0.000024   0.000001   0.000000   0.000000
    33  H    0.000239   0.004757  -0.000906  -0.000005   0.000000  -0.000000
    34  H   -0.000000  -0.000001  -0.000011   0.000000   0.000000  -0.000000
    35  H    0.000000   0.000001   0.000001  -0.000000   0.000000  -0.000000
    36  H   -0.000000   0.000000   0.000002  -0.000000  -0.000000  -0.000000
    37  H    0.000001  -0.000006  -0.000224  -0.000009  -0.000000   0.000000
    38  H   -0.000910   0.031524  -0.008877   0.000146  -0.000029   0.000001
               7          8          9         10         11         12
     1  C    0.000025   0.003839   0.000122  -0.002458   0.000166   0.000003
     2  N    0.000002  -0.029749  -0.003262  -0.007296  -0.000925   0.000096
     3  C   -0.000230   0.375873  -0.002969  -0.005773  -0.001172   0.000005
     4  C    0.003645  -0.027928   0.002191   0.000403  -0.000019   0.000002
     5  C   -0.075805   0.002191  -0.000103   0.000003  -0.000000  -0.000000
     6  N    0.389172  -0.000034   0.000000   0.000000  -0.000000   0.000000
     7  C    4.917965   0.000001  -0.000000   0.000000  -0.000000  -0.000000
     8  C    0.000001   4.782996   0.339662  -0.021287  -0.002587  -0.000337
     9  C   -0.000000   0.339662   5.032272   0.411970  -0.041985  -0.003434
    10  C    0.000000  -0.021287   0.411970   4.811739   0.429122  -0.028289
    11  C   -0.000000  -0.002587  -0.041985   0.429122   4.841338   0.399931
    12  C   -0.000000  -0.000337  -0.003434  -0.028289   0.399931   4.921869
    13  C    0.000000  -0.007437   0.001374  -0.002205  -0.020139   0.400040
    14  C    0.000000  -0.076584  -0.000263  -0.000298  -0.010409  -0.010453
    15  N    0.000000   0.423509  -0.061674  -0.004158   0.005329  -0.018921
    16  H   -0.000000  -0.000092  -0.000003   0.000005   0.000012  -0.000000
    17  H    0.000024  -0.000105  -0.000065  -0.000054  -0.000000   0.000000
    18  H    0.000002  -0.042425  -0.007029   0.000552   0.000138   0.000007
    19  H    0.000030  -0.005519   0.000311   0.000010   0.000000  -0.000000
    20  H    0.000107  -0.004230   0.000356  -0.000011   0.000000   0.000000
    21  H   -0.005954  -0.000067   0.000005  -0.000001   0.000000   0.000000
    22  H   -0.002798   0.000230   0.000003   0.000003  -0.000000  -0.000000
    23  H   -0.043780   0.000000   0.000000  -0.000000   0.000000   0.000000
    24  H    0.380450   0.000000   0.000000  -0.000000   0.000000   0.000000
    25  H    0.365870   0.000000   0.000000   0.000000  -0.000000  -0.000000
    26  H    0.379180  -0.000000   0.000000  -0.000000   0.000000  -0.000000
    27  H    0.000000   0.362648  -0.072304   0.005090   0.000233  -0.000052
    28  H    0.000000  -0.022855   0.358856  -0.031994  -0.009348   0.003977
    29  H   -0.000000  -0.023493   0.341231  -0.030644   0.005911  -0.000147
    30  H   -0.000000   0.003446  -0.032735   0.359922  -0.034643  -0.003680
    31  H   -0.000000  -0.007906  -0.034966   0.363103  -0.035013   0.004205
    32  H   -0.000000   0.000044   0.004731  -0.034186   0.354984  -0.025855
    33  H   -0.000000   0.002399  -0.003833  -0.033418   0.367787  -0.034996
    34  H    0.000000   0.000490   0.001290  -0.008194  -0.036815   0.353255
    35  H    0.000000  -0.000045   0.000197   0.004244  -0.030322   0.357384
    36  H   -0.000000   0.000097  -0.000470   0.000074   0.004681  -0.061835
    37  H   -0.000000   0.002444  -0.001214  -0.000018  -0.000016   0.006125
    38  H   -0.000000  -0.059674   0.001967   0.000773  -0.001394   0.000547
              13         14         15         16         17         18
     1  C   -0.000001  -0.000031   0.000392   0.361874   0.351504  -0.008980
     2  N   -0.000013   0.000041  -0.013945  -0.021069  -0.036596  -0.040640
     3  C    0.000477   0.003332  -0.017162   0.006537  -0.013863   0.353049
     4  C    0.000001   0.000049  -0.001741  -0.000306   0.001200  -0.041417
     5  C    0.000000   0.000002   0.000094   0.000113  -0.004921  -0.009371
     6  N    0.000000  -0.000000   0.000000  -0.000006   0.000036   0.000075
     7  C    0.000000   0.000000   0.000000  -0.000000   0.000024   0.000002
     8  C   -0.007437  -0.076584   0.423509  -0.000092  -0.000105  -0.042425
     9  C    0.001374  -0.000263  -0.061674  -0.000003  -0.000065  -0.007029
    10  C   -0.002205  -0.000298  -0.004158   0.000005  -0.000054   0.000552
    11  C   -0.020139  -0.010409   0.005329   0.000012  -0.000000   0.000138
    12  C    0.400040  -0.010453  -0.018921  -0.000000   0.000000   0.000007
    13  C    4.863262   0.618620  -0.034640  -0.000000   0.000000  -0.000006
    14  C    0.618620   4.785842   0.420122  -0.000000   0.000000  -0.000225
    15  N   -0.034640   0.420122   6.373785   0.000017  -0.000014   0.001844
    16  H   -0.000000  -0.000000   0.000017   0.584637  -0.058466  -0.000241
    17  H    0.000000   0.000000  -0.000014  -0.058466   0.627713   0.011253
    18  H   -0.000006  -0.000225   0.001844  -0.000241   0.011253   0.680377
    19  H   -0.000000  -0.000006   0.000092   0.000011  -0.000174  -0.002435
    20  H    0.000009  -0.000012   0.004073  -0.000018   0.000406   0.006371
    21  H    0.000000   0.000000   0.000009   0.000691  -0.002952  -0.000020
    22  H   -0.000000  -0.000000  -0.000008   0.000034   0.005952   0.008167
    23  H    0.000000   0.000000   0.000000   0.000000  -0.000019  -0.000026
    24  H   -0.000000   0.000000   0.000000  -0.000001  -0.000015  -0.000001
    25  H    0.000000  -0.000000  -0.000000   0.000001   0.000079   0.000002
    26  H   -0.000000  -0.000000   0.000000  -0.000000  -0.000001   0.000000
    27  H   -0.001218  -0.002537  -0.038755   0.000005  -0.000012   0.003968
    28  H    0.003153   0.005492  -0.006729  -0.000000  -0.000000  -0.000051
    29  H   -0.000141   0.000151   0.004415  -0.000000   0.000003   0.004727
    30  H   -0.000286   0.000015  -0.000065  -0.000000   0.000007  -0.000121
    31  H    0.000092  -0.000324   0.000040  -0.000069   0.000260   0.000224
    32  H    0.003011   0.000485   0.000349   0.000000   0.000000   0.000005
    33  H   -0.009692   0.003788   0.002946  -0.000047   0.000027   0.000056
    34  H   -0.029701  -0.001535   0.000220  -0.000000   0.000000   0.000001
    35  H   -0.025102   0.000379   0.000103   0.000000  -0.000000  -0.000000
    36  H    0.352215  -0.027697   0.005296  -0.000000   0.000000  -0.000000
    37  H   -0.084049   0.381446  -0.062130   0.000000  -0.000000   0.000003
    38  H   -0.002269  -0.045871   0.347944  -0.000078   0.000134   0.000911
              19         20         21         22         23         24
     1  C   -0.000045   0.000337   0.006400  -0.002449  -0.000003  -0.000028
     2  N    0.002803  -0.002832   0.001419  -0.000518  -0.000008  -0.000006
     3  C   -0.022523  -0.016663  -0.008746   0.005795  -0.000281  -0.000007
     4  C    0.359035   0.349395  -0.015479  -0.051205   0.000731   0.000428
     5  C   -0.037666  -0.026774   0.345376   0.352275  -0.054521  -0.006366
     6  N   -0.001905   0.002728  -0.021271  -0.053996   0.344171  -0.024006
     7  C    0.000030   0.000107  -0.005954  -0.002798  -0.043780   0.380450
     8  C   -0.005519  -0.004230  -0.000067   0.000230   0.000000   0.000000
     9  C    0.000311   0.000356   0.000005   0.000003   0.000000   0.000000
    10  C    0.000010  -0.000011  -0.000001   0.000003  -0.000000  -0.000000
    11  C    0.000000   0.000000   0.000000  -0.000000   0.000000   0.000000
    12  C   -0.000000   0.000000   0.000000  -0.000000   0.000000   0.000000
    13  C   -0.000000   0.000009   0.000000  -0.000000   0.000000  -0.000000
    14  C   -0.000006  -0.000012   0.000000  -0.000000   0.000000   0.000000
    15  N    0.000092   0.004073   0.000009  -0.000008   0.000000   0.000000
    16  H    0.000011  -0.000018   0.000691   0.000034   0.000000  -0.000001
    17  H   -0.000174   0.000406  -0.002952   0.005952  -0.000019  -0.000015
    18  H   -0.002435   0.006371  -0.000020   0.008167  -0.000026  -0.000001
    19  H    0.637754  -0.036295   0.006394  -0.006086   0.004852   0.000011
    20  H   -0.036295   0.592917  -0.005919   0.006762  -0.000546  -0.000024
    21  H    0.006394  -0.005919   0.631996  -0.056497   0.007569   0.008467
    22  H   -0.006086   0.006762  -0.056497   0.725626  -0.007625  -0.002056
    23  H    0.004852  -0.000546   0.007569  -0.007625   0.537405   0.005884
    24  H    0.000011  -0.000024   0.008467  -0.002056   0.005884   0.589110
    25  H   -0.000020   0.000031  -0.002313   0.015284  -0.006577  -0.044618
    26  H    0.000009   0.000004   0.000250  -0.000254  -0.000766  -0.029115
    27  H    0.005029  -0.000284   0.000000   0.000044  -0.000002  -0.000000
    28  H   -0.000011   0.000003   0.000000   0.000000   0.000000   0.000000
    29  H    0.000100  -0.000018   0.000000  -0.000004   0.000000   0.000000
    30  H   -0.000000   0.000000   0.000000  -0.000000   0.000000   0.000000
    31  H   -0.000011  -0.000001   0.000006  -0.000005   0.000000   0.000000
    32  H    0.000000  -0.000000  -0.000000   0.000000  -0.000000   0.000000
    33  H   -0.000001  -0.000003   0.000000  -0.000000   0.000000   0.000000
    34  H   -0.000000   0.000000   0.000000  -0.000000   0.000000  -0.000000
    35  H   -0.000000   0.000000  -0.000000  -0.000000   0.000000   0.000000
    36  H   -0.000000  -0.000000  -0.000000   0.000000  -0.000000  -0.000000
    37  H    0.000003  -0.000033  -0.000000   0.000000  -0.000000   0.000000
    38  H   -0.000016   0.000977   0.000003   0.000001  -0.000000   0.000000
              25         26         27         28         29         30
     1  C   -0.000022  -0.000000  -0.000162   0.000000   0.000022   0.000069
     2  N    0.000000   0.000000   0.001952  -0.000094   0.000402   0.000120
     3  C    0.000074   0.000000  -0.043617   0.003127  -0.007182  -0.000132
     4  C   -0.000003  -0.000256  -0.006579  -0.000144  -0.000049  -0.000012
     5  C   -0.000907   0.004328   0.000226   0.000001  -0.000024  -0.000000
     6  N   -0.047141  -0.024112  -0.000002  -0.000000   0.000000  -0.000000
     7  C    0.365870   0.379180   0.000000   0.000000  -0.000000  -0.000000
     8  C    0.000000  -0.000000   0.362648  -0.022855  -0.023493   0.003446
     9  C    0.000000   0.000000  -0.072304   0.358856   0.341231  -0.032735
    10  C    0.000000  -0.000000   0.005090  -0.031994  -0.030644   0.359922
    11  C   -0.000000   0.000000   0.000233  -0.009348   0.005911  -0.034643
    12  C   -0.000000  -0.000000  -0.000052   0.003977  -0.000147  -0.003680
    13  C    0.000000  -0.000000  -0.001218   0.003153  -0.000141  -0.000286
    14  C   -0.000000  -0.000000  -0.002537   0.005492   0.000151   0.000015
    15  N   -0.000000   0.000000  -0.038755  -0.006729   0.004415  -0.000065
    16  H    0.000001  -0.000000   0.000005  -0.000000  -0.000000  -0.000000
    17  H    0.000079  -0.000001  -0.000012  -0.000000   0.000003   0.000007
    18  H    0.000002   0.000000   0.003968  -0.000051   0.004727  -0.000121
    19  H   -0.000020   0.000009   0.005029  -0.000011   0.000100  -0.000000
    20  H    0.000031   0.000004  -0.000284   0.000003  -0.000018   0.000000
    21  H   -0.002313   0.000250   0.000000   0.000000   0.000000   0.000000
    22  H    0.015284  -0.000254   0.000044   0.000000  -0.000004  -0.000000
    23  H   -0.006577  -0.000766  -0.000002   0.000000   0.000000   0.000000
    24  H   -0.044618  -0.029115  -0.000000   0.000000   0.000000   0.000000
    25  H    0.668880  -0.039840   0.000000  -0.000000  -0.000000   0.000000
    26  H   -0.039840   0.596194  -0.000000  -0.000000   0.000000   0.000000
    27  H    0.000000  -0.000000   0.713269  -0.002287   0.000382  -0.000254
    28  H   -0.000000  -0.000000  -0.002287   0.631136  -0.038978  -0.001586
    29  H   -0.000000   0.000000   0.000382  -0.038978   0.677102  -0.006239
    30  H    0.000000   0.000000  -0.000254  -0.001586  -0.006239   0.674686
    31  H    0.000000  -0.000000   0.000089   0.005521  -0.001796  -0.038876
    32  H   -0.000000   0.000000   0.000009   0.000025  -0.000136  -0.010022
    33  H   -0.000000   0.000000   0.000024  -0.000137  -0.000075   0.006164
    34  H   -0.000000   0.000000  -0.000037  -0.000212  -0.000199   0.004260
    35  H   -0.000000  -0.000000   0.000002   0.000127  -0.000007  -0.000115
    36  H    0.000000  -0.000000   0.000035   0.000526   0.000000  -0.000001
    37  H   -0.000000   0.000000   0.002286   0.000152   0.000032  -0.000000
    38  H   -0.000000   0.000000   0.006153  -0.000035  -0.000114   0.000023
              31         32         33         34         35         36
     1  C    0.003845   0.000006   0.000239  -0.000000   0.000000  -0.000000
     2  N    0.004319   0.000017   0.004757  -0.000001   0.000001   0.000000
     3  C    0.004391   0.000024  -0.000906  -0.000011   0.000001   0.000002
     4  C    0.000346   0.000001  -0.000005   0.000000  -0.000000  -0.000000
     5  C   -0.000003   0.000000   0.000000   0.000000   0.000000  -0.000000
     6  N   -0.000000   0.000000  -0.000000  -0.000000  -0.000000  -0.000000
     7  C   -0.000000  -0.000000  -0.000000   0.000000   0.000000  -0.000000
     8  C   -0.007906   0.000044   0.002399   0.000490  -0.000045   0.000097
     9  C   -0.034966   0.004731  -0.003833   0.001290   0.000197  -0.000470
    10  C    0.363103  -0.034186  -0.033418  -0.008194   0.004244   0.000074
    11  C   -0.035013   0.354984   0.367787  -0.036815  -0.030322   0.004681
    12  C    0.004205  -0.025855  -0.034996   0.353255   0.357384  -0.061835
    13  C    0.000092   0.003011  -0.009692  -0.029701  -0.025102   0.352215
    14  C   -0.000324   0.000485   0.003788  -0.001535   0.000379  -0.027697
    15  N    0.000040   0.000349   0.002946   0.000220   0.000103   0.005296
    16  H   -0.000069   0.000000  -0.000047  -0.000000   0.000000  -0.000000
    17  H    0.000260   0.000000   0.000027   0.000000  -0.000000   0.000000
    18  H    0.000224   0.000005   0.000056   0.000001  -0.000000  -0.000000
    19  H   -0.000011   0.000000  -0.000001  -0.000000  -0.000000  -0.000000
    20  H   -0.000001  -0.000000  -0.000003   0.000000   0.000000  -0.000000
    21  H    0.000006  -0.000000   0.000000   0.000000  -0.000000  -0.000000
    22  H   -0.000005   0.000000  -0.000000  -0.000000  -0.000000   0.000000
    23  H    0.000000  -0.000000   0.000000   0.000000   0.000000  -0.000000
    24  H    0.000000   0.000000   0.000000  -0.000000   0.000000  -0.000000
    25  H    0.000000  -0.000000  -0.000000  -0.000000  -0.000000   0.000000
    26  H   -0.000000   0.000000   0.000000   0.000000  -0.000000  -0.000000
    27  H    0.000089   0.000009   0.000024  -0.000037   0.000002   0.000035
    28  H    0.005521   0.000025  -0.000137  -0.000212   0.000127   0.000526
    29  H   -0.001796  -0.000136  -0.000075  -0.000199  -0.000007   0.000000
    30  H   -0.038876  -0.010022   0.006164   0.004260  -0.000115  -0.000001
    31  H    0.643739   0.001012  -0.006747   0.000033  -0.000208   0.000007
    32  H    0.001012   0.670558  -0.037829  -0.000659  -0.007364  -0.000169
    33  H   -0.006747  -0.037829   0.626978   0.006025   0.000087   0.000162
    34  H    0.000033  -0.000659   0.006025   0.647286  -0.038406   0.000097
    35  H   -0.000208  -0.007364   0.000087  -0.038406   0.641854  -0.002820
    36  H    0.000007  -0.000169   0.000162   0.000097  -0.002820   0.660387
    37  H   -0.000001   0.000010   0.000052  -0.000227  -0.000179  -0.008595
    38  H   -0.000188   0.000032   0.003670  -0.000070   0.000088  -0.000135
              37         38
     1  C    0.000001  -0.000910
     2  N   -0.000006   0.031524
     3  C   -0.000224  -0.008877
     4  C   -0.000009   0.000146
     5  C   -0.000000  -0.000029
     6  N    0.000000   0.000001
     7  C   -0.000000  -0.000000
     8  C    0.002444  -0.059674
     9  C   -0.001214   0.001967
    10  C   -0.000018   0.000773
    11  C   -0.000016  -0.001394
    12  C    0.006125   0.000547
    13  C   -0.084049  -0.002269
    14  C    0.381446  -0.045871
    15  N   -0.062130   0.347944
    16  H    0.000000  -0.000078
    17  H   -0.000000   0.000134
    18  H    0.000003   0.000911
    19  H    0.000003  -0.000016
    20  H   -0.000033   0.000977
    21  H   -0.000000   0.000003
    22  H    0.000000   0.000001
    23  H   -0.000000  -0.000000
    24  H    0.000000   0.000000
    25  H   -0.000000  -0.000000
    26  H    0.000000   0.000000
    27  H    0.002286   0.006153
    28  H    0.000152  -0.000035
    29  H    0.000032  -0.000114
    30  H   -0.000000   0.000023
    31  H   -0.000001  -0.000188
    32  H    0.000010   0.000032
    33  H    0.000052   0.003670
    34  H   -0.000227  -0.000070
    35  H   -0.000179   0.000088
    36  H   -0.008595  -0.000135
    37  H    0.689048   0.004677
    38  H    0.004677   0.480863
 Mulliken charges:
               1
     1  C   -0.204376
     2  N   -0.116443
     3  C    0.006320
     4  C   -0.211774
     5  C   -0.120363
     6  N   -0.287175
     7  C   -0.307904
     8  C    0.032483
     9  C   -0.230229
    10  C   -0.176730
    11  C   -0.184844
    12  C   -0.259447
    13  C   -0.025355
    14  C   -0.043519
    15  N   -0.330636
    16  H    0.126460
    17  H    0.118658
    18  H    0.081258
    19  H    0.096270
    20  H    0.129185
    21  H    0.110633
    22  H    0.063325
    23  H    0.213541
    24  H    0.121891
    25  H    0.091220
    26  H    0.114378
    27  H    0.066660
    28  H    0.102363
    29  H    0.074766
    30  H    0.080057
    31  H    0.094883
    32  H    0.080917
    33  H    0.102527
    34  H    0.103110
    35  H    0.100102
    36  H    0.078142
    37  H    0.070424
    38  H    0.239224
 Sum of Mulliken charges =  -0.00000
 Mulliken charges with hydrogens summed into heavy atoms:
               1
     1  C    0.040742
     2  N   -0.116443
     3  C    0.087578
     4  C    0.013682
     5  C    0.053594
     6  N   -0.073634
     7  C    0.019585
     8  C    0.099144
     9  C   -0.053100
    10  C   -0.001791
    11  C   -0.001400
    12  C   -0.056235
    13  C    0.052786
    14  C    0.026904
    15  N   -0.091412
 Electronic spatial extent (au):  <R**2>=           4550.5274
 Charge=             -0.0000 electrons
 Dipole moment (field-independent basis, Debye):
    X=             -1.4373    Y=              1.9104    Z=              1.6621  Tot=              2.9117
 Quadrupole moment (field-independent basis, Debye-Ang):
   XX=            -89.1908   YY=            -93.1269   ZZ=            -94.0930
   XY=             -1.8683   XZ=             -2.5280   YZ=             -4.3346
 Traceless Quadrupole moment (field-independent basis, Debye-Ang):
   XX=              2.9461   YY=             -0.9900   ZZ=             -1.9561
   XY=             -1.8683   XZ=             -2.5280   YZ=             -4.3346
 Octapole moment (field-independent basis, Debye-Ang**2):
  XXX=            -19.2366  YYY=              7.2628  ZZZ=             -2.1160  XYY=            -10.3979
  XXY=              5.9497  XXZ=             15.6381  XZZ=             -8.3598  YZZ=              2.4470
  YYZ=             -0.5484  XYZ=              9.7783
 Hexadecapole moment (field-independent basis, Debye-Ang**3):
 XXXX=          -4728.6159 YYYY=           -815.3731 ZZZZ=           -428.6359 XXXY=             12.0263
 XXXZ=            -46.9570 YYYX=             -4.1292 YYYZ=            -22.9389 ZZZX=              0.5013
 ZZZY=            -10.5330 XXYY=           -951.9481 XXZZ=           -893.2069 YYZZ=           -204.2440
 XXYZ=            -49.4735 YYXZ=             -5.7478 ZZXY=              5.8357
 N-N= 1.058638628771D+03 E-N=-3.590887310476D+03  KE= 6.301586757966D+02
 PrsmSu:  requested number of processors reduced to:  13 ShMem   1 Linda.
 Calling FoFJK, ICntrl=      2127 FMM=F ISym2X=0 I1Cent= 0 IOpClX= 0 NMat=1 NMatS=1 NMatT=0.
 ***** Axes restored to original set *****
 -------------------------------------------------------------------
 Center     Atomic                   Forces (Hartrees/Bohr)
 Number     Number              X              Y              Z
 -------------------------------------------------------------------
      1        6           0.024751463   -0.007653669   -0.007016583
      2        7          -0.030168809    0.004517309    0.014307923
      3        6           0.012749334   -0.003150686   -0.011257018
      4        6          -0.007500465   -0.000229659   -0.001757770
      5        6           0.007185949   -0.013201026   -0.002274632
      6        7          -0.002557346    0.002605936   -0.009283563
      7        6           0.004336365   -0.010023833    0.003267818
      8        6           0.010787534    0.012137521   -0.000207639
      9        6          -0.003500801    0.000674376    0.007483165
     10        6          -0.001286596    0.003275640    0.003455700
     11        6          -0.003847565    0.003859041   -0.001744370
     12        6          -0.000566547   -0.003360892   -0.006159999
     13        6           0.000273151    0.002461680    0.003825546
     14        6           0.029254647   -0.003849757    0.005823098
     15        7          -0.055892932   -0.002185517   -0.006225886
     16        1           0.005222668   -0.001760228    0.002329741
     17        1           0.005214219    0.005845913   -0.002304188
     18        1           0.000240778    0.000057836   -0.002879585
     19        1           0.001576879    0.002174308   -0.001145023
     20        1           0.000132348   -0.000993564    0.000805834
     21        1          -0.002336170    0.001218414    0.001204583
     22        1          -0.002363063    0.007129026    0.002934051
     23        1          -0.003131147    0.000477266   -0.000923631
     24        1           0.003685028   -0.000552573    0.000368273
     25        1          -0.007565509    0.002030504    0.003823657
     26        1          -0.002365151   -0.002475509    0.001141192
     27        1          -0.004155884   -0.002423476    0.003156121
     28        1          -0.001882434   -0.000419382   -0.003633467
     29        1          -0.003963943   -0.001741242    0.001448926
     30        1           0.003678996    0.002254347    0.000429538
     31        1           0.000170313   -0.001121454    0.001332732
[...]
 ,0.00000747,0.00000231,-0.00000208,-0.00000037,-0.00000237,-0.00000284
 ,0.00000412,0.00000161,0.00000089,0.00000162,-0.00000189,0.00000079,0.
 00000195,-0.00000088,-0.00000335,-0.00000009,-0.00002123,-0.00001196,0
 .00006146,0.00005409,-0.00013555,0.00008590,0.00004919,-0.00011304,0.0
 0005071,0.00009689,0.00043365,0.00107003,0.00034200,0.00031570,-0.0000
 5505,0.00111565,0.00025943,-0.00029569,-0.00577547,0.00182049,0.002362
 38,0.14898107,0.00001098,0.00001149,0.00000194,-0.00004129,0.00008678,
 0.00000167,0.00009700,0.00006607,0.00009343,0.00000222,-0.00001485,-0.
 00004769,0.00003166,0.00002660,0.00000929,-0.00004085,-0.00001620,0.00
 000452,0.00003327,0.00000388,-0.00000239,0.00028173,-0.00002952,-0.000
 84317,-0.00029521,0.00004687,0.00012090,-0.00014325,-0.00000209,0.0002
 6609,0.00298407,0.00289275,0.00240525,-0.09197236,-0.14117832,-0.07914
 687,-0.01764155,-0.02761018,-0.01369451,0.00418169,-0.00208849,-0.0007
 0693,-0.00034269,-0.00002274,-0.00021158,-0.00001420,0.00001409,-0.000
 00250,-0.00001713,-0.00000932,0.00001212,-0.00010163,0.00000116,0.0000
 1564,0.00000464,0.00001201,-0.00000629,0.00003103,0.00002960,0.0000334
 7,-0.00000904,-0.00000076,-0.00000424,-0.00001844,-0.00000616,0.000009
 22,0.00000706,0.00000356,-0.00000697,-0.00000317,0.00000261,-0.0000009
 0,-0.00000974,0.00000153,0.00000781,-0.00000382,-0.00000729,0.00000029
 ,0.00003711,0.00003930,0.00003715,0.00008230,-0.00019826,0.00002729,0.
 00002826,0.00007925,0.00004266,-0.00029155,0.00007155,0.00027549,0.000
 07881,0.00004547,0.00017249,-0.00017691,0.00082274,0.00037810,0.001515
 20,0.00112345,-0.00034247,0.09705382,0.16026741,0.00000593,-0.00000482
 ,-0.00000341,-0.00000846,0.00004815,-0.00001242,0.00004124,-0.00003247
 ,0.00002135,-0.00001571,0.00000562,-0.00001277,0.00001523,0.00000801,-
 0.00000600,-0.00002346,-0.00001399,-0.00000077,0.00001729,0.00000173,-
 0.00000017,-0.00004790,0.00010057,0.00007577,-0.00004656,0.00007022,0.
 00001989,0.00013721,0.00079728,0.00121923,0.00644718,0.00646767,0.0046
 7868,-0.07157119,-0.07839913,-0.10586867,0.00312902,0.00565393,0.00344
 290,0.00013208,0.00037205,-0.00023885,0.00004500,0.00023956,0.00026170
 ,-0.00000151,0.00000826,-0.00000005,-0.00000149,-0.00000462,-0.0000006
 5,-0.00001278,0.00000049,-0.00001082,0.00000057,0.00000523,0.00000107,
 0.00000338,0.00000069,-0.00000099,-0.00000180,-0.00000015,-0.00000138,
 -0.00000280,-0.00000299,0.00000171,0.00000252,0.00000179,-0.00000079,-
 0.00000117,0.00000165,-0.00000065,-0.00000484,0.00000081,0.00000381,-0
 .00000235,-0.00000468,0.00000004,0.00000661,-0.00002206,0.00002537,-0.
 00006991,0.00004896,-0.00007765,-0.00007891,-0.00002921,-0.00000977,-0
 .00030374,-0.00026475,0.00021313,-0.00016751,-0.00004690,0.00012207,-0
 .00078530,0.00027809,0.00002980,0.00239334,0.00002085,0.00044765,0.079
 75357,0.08528225,0.11451941,0.00005663,-0.00004997,0.00000575,-0.00003
 842,-0.00006913,-0.00006733,-0.00005696,0.00000072,-0.00010416,0.00000
 054,0.00002758,0.00005508,-0.00001437,-0.00000730,-0.00001298,0.000016
 86,-0.00000438,-0.00001100,-0.00001281,-0.00000279,0.00000516,0.000026
 56,-0.00015213,0.00081467,-0.00018121,0.00038220,-0.00054756,-0.005982
 85,0.00125810,-0.00096840,-0.00538192,-0.00673309,0.03323436,-0.046555
 06,-0.00427135,0.01854950,0.00214626,0.00308107,-0.01046933,-0.0020822
 4,0.00017734,0.00012175,0.00149511,0.00012502,-0.00077526,0.00000833,-
 0.00000582,0.00001128,0.00002900,0.00002794,-0.00002116,0.00010191,0.0
 0000547,-0.00003060,-0.00000491,-0.00001361,0.00000126,-0.00002677,-0.
 00003390,-0.00003310,0.00000790,0.00000303,0.00000577,0.00001484,0.000
 00174,-0.00001199,-0.00000484,-0.00000189,0.00000657,0.00000057,0.0000
 0005,0.00000046,0.00000412,-0.00000055,-0.00000522,0.00000060,0.000001
 25,-0.00000004,-0.00002103,-0.00009548,-0.00001783,0.00008424,-0.00004
 062,0.00013721,0.00005398,-0.00027091,0.00002157,0.00012275,0.00018883
 ,0.00001940,-0.00065464,0.00014523,0.00205190,0.00133929,0.00003655,-0
 .00016207,0.00095125,-0.00068361,-0.00063375,0.00086750,0.00437952,-0.
 01926869,0.05346899,0.00000041,0.00001291,0.00001419,-0.00004721,0.000
 03405,-0.00000426,0.00009898,0.00002461,0.00014525,-0.00001995,-0.0000
 0452,-0.00003420,0.00003394,0.00001490,0.00001258,-0.00003748,-0.00001
 747,-0.00000425,0.00002790,0.00000079,0.00000245,-0.00006565,0.0002672
 7,-0.00075588,0.00010411,-0.00009105,0.00002056,0.00113567,0.00047916,
 -0.00015192,0.00080490,0.00013264,-0.00475325,-0.00591964,-0.05813637,
 0.06317449,-0.00320043,-0.01612134,0.03226042,0.00560928,-0.00076359,-
 0.00056321,-0.00142552,0.00033126,0.00155417,-0.00001994,0.00001629,-0
 .00000440,-0.00001244,-0.00000329,0.00000565,-0.00010761,-0.00000105,0
 .00000904,0.00000417,0.00001500,-0.00000893,0.00003291,0.00002519,0.00
 002806,-0.00001223,0.00000036,-0.00000447,-0.00001296,-0.00000521,0.00
 000327,0.00000551,0.00000446,-0.00000493,-0.00000437,0.00000308,-0.000
 00135,-0.00000760,0.00000087,0.00000425,-0.00000425,-0.00000678,0.0000
 0074,0.00003558,0.00002470,0.00002099,-0.00002198,-0.00009952,-0.00009
 904,-0.00005897,0.00016793,0.00001989,-0.00009574,0.00014699,0.0003254
 2,0.00028282,0.00021011,-0.00027542,-0.00003776,0.00043809,-0.00065707
 ,-0.00008675,-0.00013553,0.00036319,0.00113616,0.00482792,-0.01997758,
 0.00222559,0.06945804,-0.00007407,0.00006026,0.00000475,0.00013025,0.0
 0004109,0.00001585,-0.00007284,-0.00001748,-0.00000058,0.00003768,-0.0
 0001998,-0.00000007,-0.00003530,-0.00001778,0.00000432,0.00004423,0.00
 003833,0.00000848,-0.00003745,-0.00000012,-0.00000125,-0.00007974,-0.0
 0012897,0.00007341,-0.00008733,-0.00015002,0.00034523,0.00235060,-0.00
 058934,0.00148198,0.00050277,0.00151999,-0.00896083,0.02185312,0.05888
 143,-0.27203082,-0.00020305,0.00517680,-0.00133534,-0.00209446,-0.0012
 4925,0.00053185,0.00051462,0.00004050,-0.00030888,0.00000786,-0.000014
 16,0.00000007,-0.00000748,-0.00002211,-0.00000205,0.00001692,-0.000008
 24,0.00000307,-0.00000076,-0.00000334,0.00000124,-0.00001219,-0.000006
 44,-0.00000307,0.00000203,-0.00000330,-0.00000062,0.00000468,0.0000077
 5,0.00000438,-0.00000052,-0.00000664,0.00000109,0.00000425,-0.00000435
 ,-0.00000006,0.00000996,-0.00000161,-0.00000550,0.00000666,0.00001019,
 -0.00000129,-0.00000353,0.00005715,-0.00000564,-0.00003529,-0.00003228
 ,0.00005310,0.00001881,-0.00000135,-0.00005028,-0.00015219,0.00008011,
 0.00030483,0.00024323,0.00014007,-0.00080149,0.00001406,-0.00077554,0.
 00041480,0.00026002,0.00028154,0.00061514,0.00058345,0.00325112,-0.018
 62388,-0.02342450,-0.06743077,0.29808346,0.00005641,-0.00003022,-0.000
 02655,-0.00010331,-0.00006458,0.00002019,0.00004173,0.00009178,0.00029
 445,-0.00001964,0.00005327,-0.00001480,0.00004135,0.00004071,0.0000091
 1,-0.00005286,-0.00005092,-0.00001591,0.00004352,0.00000113,0.00000170
 ,-0.00044801,-0.00081968,-0.00076252,-0.00007031,0.00005798,-0.0000553
 3,-0.00000282,-0.00002206,-0.00024312,0.00169568,0.00221891,-0.0009014
 1,-0.01095138,-0.00111470,0.00278063,-0.31596919,0.00964796,0.04395118
 ,-0.01558723,0.00364575,0.00175274,0.00140341,-0.00226857,0.00307188,-
 0.00000404,0.00001558,-0.00000423,-0.00000046,0.00001306,0.00002241,-0
 .00013439,0.00000037,0.00002449,0.00000320,-0.00000546,0.00001158,0.00
 002843,0.00003796,0.00002069,0.00000198,0.00000185,0.00000079,-0.00001
 378,-0.00001592,-0.00000534,0.00000031,0.00000710,0.00000356,-0.000003
 15,0.00000483,0.00000095,-0.00001210,0.00000229,0.00000683,-0.00000890
 ,-0.00001448,0.00000081,-0.00002091,-0.00004219,0.00013933,0.00003187,
 -0.00001950,0.00003893,-0.00000097,-0.00001297,0.00006705,0.00000150,0
 .00005062,0.00004438,-0.00001647,-0.00003178,0.00011208,-0.00079788,0.
 00011337,0.00029230,0.00012875,-0.00013294,-0.00001794,0.00094893,0.00
 043521,0.00031931,0.00005957,0.00018908,-0.00039810,0.33799391,-0.0000
 1631,0.00001413,0.00002426,0.00000695,0.00006221,0.00000647,0.00002008
 ,0.00006629,0.00049709,-0.00000873,0.00003940,-0.00003717,0.00003306,0
 .00001564,0.00002550,-0.00003568,-0.00001978,-0.00000799,0.00002540,0.
 00000097,0.00000171,-0.00083547,-0.00097305,-0.00120674,-0.00002892,-0
 .00013184,0.00002797,0.00000290,-0.00001206,0.00044589,-0.00051918,-0.
 00481032,0.00199021,0.02907623,-0.00167385,-0.00569184,0.01459037,-0.0
 5241464,0.00097489,-0.02995645,0.00113654,0.00409833,-0.00123135,-0.00
 259591,0.00479639,-0.00002468,0.00002067,-0.00000898,-0.00002083,-0.00
 001349,-0.00000113,-0.00022582,-0.00000456,0.00002112,0.00000402,0.000
 00773,0.00000618,0.00004477,0.00004904,0.00003036,-0.00000976,-0.00000
 099,-0.00000611,-0.00001557,-0.00001098,-0.00000114,0.00000281,0.00000
 501,-0.00000104,-0.00000275,0.00000201,-0.00000096,-0.00000670,0.00000
 105,0.00000426,-0.00000489,-0.00000668,0.00000039,-0.00000954,0.000039
 91,0.00012699,0.00001902,0.00005190,-0.00006910,-0.00000993,0.00015906
 ,-0.00001219,-0.00000532,0.00001974,-0.00009158,0.00002893,0.00003872,
 -0.00020945,0.00169752,-0.00046009,-0.00038898,0.00016390,0.00001809,0
 .00016144,-0.00033598,0.00121701,-0.00058920,-0.00039337,0.00061136,0.
 00064060,-0.01192464,0.05937246,-0.00002240,0.00002995,-0.00004017,0.0
 0007199,-0.00004391,-0.00008182,-0.00014082,0.00016769,0.00067460,0.00
 007880,0.00010530,0.00013869,-0.00002690,-0.00004537,-0.00004896,0.000
 01855,0.00000601,-0.00000816,-0.00001965,-0.00000258,0.00000211,-0.002
 80638,-0.00105962,0.00117173,-0.00010451,-0.00017452,-0.00031155,-0.00
 033217,0.00024944,-0.00008862,0.00057774,0.00103527,0.00085139,-0.0050
 9336,-0.00016066,0.00247006,0.04349180,0.00488177,-0.04389685,0.008614
 71,-0.00464128,-0.00017803,0.00422857,0.00598701,0.01094166,0.00000847
 ,-0.00000025,0.00000340,0.00002665,-0.00001096,-0.00001511,-0.00016106
 ,-0.00005874,-0.00002466,-0.00000266,-0.00000057,-0.00001888,-0.000054
 04,-0.00010889,-0.00009957,0.00000048,0.00000071,0.00000215,0.00003924
 ,0.00001131,-0.00001835,-0.00000276,-0.00000255,0.00000345,0.00000061,
 -0.00000117,-0.00000053,0.00000615,-0.00000110,-0.00000492,0.00000267,
 0.00000506,0.00000030,0.00008146,-0.00004380,-0.00012728,0.00016733,-0
 .00012135,-0.00016016,0.00002889,-0.00004831,-0.00004865,0.00000072,-0
 .00008526,0.00000364,-0.00000029,-0.00004306,0.00007825,-0.00023238,0.
 00011119,0.00022789,0.00024135,-0.00008322,-0.00009497,0.00048181,0.00
 041282,0.00039602,0.00042044,-0.00089294,0.00018300,-0.04985866,-0.004
 21862,0.03398500,0.00013099,-0.00012054,0.00015348,-0.00047647,-0.0000
 5690,0.00011733,0.00012282,0.00005081,0.00022266,-0.00008620,0.0000728
 9,-0.00009805,0.00006229,0.00002814,0.00003770,-0.00005421,-0.00007448
 ,-0.00003725,0.00004102,-0.00000980,0.00000396,-0.00034941,0.00108585,
 -0.00293996,-0.00040579,-0.00014991,0.00041125,0.00010722,-0.00008687,
 -0.00000376,-0.00057049,-0.00012690,-0.00017435,-0.00042841,-0.0013388
 5,0.00161720,0.00828700,-0.01345515,0.00198561,-0.12615566,0.12063380,
 -0.02139366,-0.03126826,0.01907005,-0.00729553,-0.00003917,0.00000625,
 -0.00002778,-0.00005232,0.00007998,0.00007242,-0.00020786,-0.00003147,
 0.00007197,-0.00000135,-0.00003651,0.00008387,0.00003422,0.00011310,0.
 00001845,0.00002612,0.00000620,0.00000357,-0.00001243,-0.00001882,-0.0
 0000981,-0.00001464,0.00000768,0.00002511,0.00000018,0.00000538,0.0000
 0290,-0.00000991,0.00000260,0.00000367,-0.00001421,-0.00001796,0.00000
 114,0.00029400,-0.00035309,0.00087803,0.00006510,0.00008826,0.00005979
 ,0.00007028,0.00023445,0.00016637,0.00000282,0.00006100,0.00002976,0.0
 0002658,-0.00002463,-0.00004792,0.00026407,0.00014114,0.00001192,0.000
 28592,0.00008647,0.00023278,0.00003551,-0.00014872,-0.00007113,0.00014
 757,-0.00051285,0.00014378,0.00093444,-0.00057479,-0.00073337,0.153201
 15,-0.00003701,0.00002884,0.00002688,-0.00010743,0.00001405,-0.0000016
 3,0.00003611,-0.00000860,-0.00019237,0.00004871,0.00002046,0.00009301,
 -0.00002357,-0.00003786,-0.00003187,0.00001787,0.00002001,0.00000576,-
 0.00001745,0.00000028,0.00000088,-0.00000325,0.00014903,0.00012362,0.0
 0018303,-0.00020676,0.00010073,-0.00001237,0.00006368,0.00007857,-0.00
 031290,0.00024676,0.00002951,-0.00278565,0.00072893,0.00452120,0.01652
 027,-0.02368749,0.00400581,0.11755256,-0.23104952,0.04037154,-0.002724
 68,0.00961377,-0.00091697,-0.00000887,-0.00000229,0.00000046,-0.000003
 16,0.00000462,-0.00000680,0.00005332,-0.00000695,-0.00001088,-0.000008
 61,0.00001857,-0.00000481,-0.00004423,-0.00002646,-0.00005736,-0.00000
 381,-0.00000054,-0.00000096,0.00001970,0.00000829,-0.00000279,0.000000
 60,-0.00000296,-0.00000128,0.00000023,-0.00000171,-0.00000174,0.000005
 71,-0.00000134,-0.00000310,0.00000392,0.00000568,-0.00000020,0.0004081
 4,-0.00013196,-0.00019672,-0.00009943,-0.00013117,0.00002228,-0.000015
 27,0.00008752,0.00000016,-0.00001801,-0.00001102,-0.00000769,0.0000400
 8,0.00001769,-0.00011816,0.00013302,-0.00001681,-0.00011751,0.00011788
 ,-0.00002431,-0.00000530,-0.00012410,-0.00024904,0.00005857,0.00036114
 ,-0.00158738,0.00022571,-0.00067616,0.00022377,-0.00198501,-0.12674313
 ,0.24539406,0.00003192,0.00001309,-0.00004868,0.00000198,-0.00001715,0
 .00001094,0.00021847,0.00014589,-0.00001632,-0.00004370,-0.00004819,-0
 .00007966,0.00006496,0.00006347,0.00003003,-0.00005642,-0.00004871,-0.
 00002118,0.00004513,-0.00000012,0.00000569,0.00054684,0.00088913,-0.00
 060618,-0.00038956,0.00002762,0.00030281,0.00003597,0.00005398,0.00005
 875,-0.00044146,0.00006266,-0.00013444,0.00325902,0.00262650,0.0112833
 1,-0.00698420,0.00622276,0.00402336,-0.01591539,0.04208838,-0.04917745
 ,-0.00235925,-0.00585762,0.00674165,-0.00001687,0.00002975,-0.00000110
 ,-0.00000694,-0.00001335,0.00000706,-0.00006534,0.00001429,0.00000488,
 0.00001181,0.00003373,-0.00000827,0.00001661,0.00004324,0.00007098,-0.
 00001734,-0.00000019,-0.00000528,-0.00002528,-0.00001773,0.00000177,0.
 00000340,0.00001213,0.00000445,-0.00000600,0.00000543,-0.00000052,-0.0
 0001140,0.00000113,0.00000483,-0.00000957,-0.00001493,0.00000177,-0.00
 032299,0.00027616,-0.00006230,-0.00005636,-0.00012888,0.00003510,0.000
 05776,0.00024987,0.00014504,0.00001725,0.00007045,-0.00004169,0.000002
 80,0.00001927,-0.00005899,-0.00012722,0.00005042,-0.00009553,0.0000423
 3,0.00001000,0.00002310,-0.00063849,0.00217126,-0.00051873,0.00094292,
 -0.00253424,0.00012987,-0.00095666,-0.00142860,-0.00576394,0.02294885,
 -0.04531564,0.03287549,-0.00061235,0.00066812,-0.00122551,-0.00019900,
 -0.00006090,0.00114014,0.00102219,-0.00117061,0.00192475,-0.00030978,-
 0.00019059,0.00002445,0.00002158,-0.00014573,0.00000799,-0.00001922,0.
 00011632,-0.00000131,-0.00005887,-0.00001682,0.00001260,0.00984785,-0.
 00713698,0.00682873,-0.00063182,-0.00010694,0.00027107,0.00033061,-0.0
 0026349,-0.00032700,-0.00047047,0.00084836,-0.00031220,-0.00084557,-0.
 00145703,-0.00061892,0.00167492,0.00020633,0.00030593,-0.02582532,0.02
 339104,-0.02031440,-0.16425181,0.11409296,-0.12363279,0.00016581,0.000
 11504,0.00010682,0.00038999,-0.00045466,-0.00047249,-0.00002816,0.0002
 8914,-0.00072944,0.00008144,0.00032582,-0.00021974,0.00012727,-0.00030
 554,0.00005454,-0.00015563,-0.00003540,-0.00004972,0.00000327,0.000026
 12,0.00001191,0.00002457,0.00002227,-0.00002303,-0.00000620,-0.0000091
 2,-0.00000884,0.00001778,-0.00000535,-0.00001302,0.00000813,0.00002221
 ,-0.00000107,-0.00065061,-0.00023675,0.00439081,-0.00007671,-0.0001218
 7,-0.00008446,0.00005474,0.00028234,0.00036552,-0.00011362,0.00013624,
 0.00001408,-0.00016064,0.00024581,0.00015901,0.00032973,0.00062962,0.0
 0023635,0.00186107,0.00126677,0.00004501,0.00012484,-0.00000402,0.0000
 3772,0.00001364,-0.00001565,-0.00003018,0.00080281,0.00048073,0.001002
 96,-0.00399251,-0.00173319,0.00020241,0.18150605,0.00012860,0.00018334
 ,-0.00032614,0.00024830,-0.00149755,-0.00099538,0.00062075,0.00051355,
 0.00168003,-0.00022360,0.00006313,0.00049791,-0.00011792,-0.00011142,-
 0.00016131,0.00009379,0.00000566,-0.00005596,-0.00007976,-0.00001685,0
 .00001057,-0.00262317,0.00101065,-0.00953572,-0.00060111,0.00107181,-0
 .00099561,0.00083036,0.00007762,-0.00053456,-0.00190102,-0.00413680,-0
 .00124677,-0.00123129,0.00016792,0.00061088,-0.00277649,0.00106895,-0.
 00015835,-0.00576337,-0.00024405,-0.00831459,0.13690699,-0.14331289,0.
 16628654,-0.00001028,-0.00016193,-0.00000753,0.00037727,0.00019067,-0.
 00003170,0.00008102,-0.00018691,-0.00009140,0.00006775,0.00014042,-0.0
 0032102,-0.00029466,-0.00078389,-0.00000605,-0.00003703,0.00001431,0.0
 0003052,0.00013742,0.00004441,-0.00007170,-0.00000695,-0.00000063,0.00
 001879,-0.00000204,-0.00000247,0.00000331,0.00002757,-0.00000330,-0.00
 002765,0.00000686,0.00001498,0.00000225,-0.00011157,0.00066334,0.00096
 180,-0.00002950,-0.00007011,0.00014897,0.00012522,-0.00035550,0.000302
 92,-0.00004020,0.00010279,0.00047345,-0.00005810,0.00001273,-0.0000068
 3,0.00051896,0.00022842,0.00034021,0.00171243,-0.00394279,0.00163214,0
 .00059251,-0.00025989,-0.00007985,0.00040155,-0.00027486,0.00003043,0.
 00061797,-0.00004447,0.00083023,0.00210731,0.00053816,0.00024473,-0.12
 969459,0.14929343,0.00029143,-0.00031509,0.00078251,-0.00128124,-0.000
 60940,-0.00034424,-0.00069087,0.00106083,-0.00063657,0.00003807,0.0003
 0828,0.00006935,0.00001614,0.00000049,0.00000829,-0.00001690,-0.000072
 06,-0.00004739,0.00002062,-0.00000627,0.00001850,-0.01597008,0.0229308
 7,-0.03038815,-0.00056112,0.00015350,0.00069805,-0.00046931,-0.0013940
 8,-0.00062803,-0.00038394,0.00143562,-0.00030795,-0.00040437,-0.000158
 31,0.00002450,0.00045662,-0.00086682,0.00001990,0.00588546,-0.00342046
 ,0.00523427,-0.12497220,0.13209811,-0.19581901,-0.00017722,-0.00010630
 ,-0.00006247,-0.00010503,0.00044703,0.00021915,-0.00022234,-0.00009457
 ,0.00014955,-0.00000903,-0.00019122,0.00001807,0.00008705,-0.00000074,
 0.00004791,0.00004043,0.00002648,0.00003290,0.00001924,0.00000116,-0.0
 0003610,-0.00000639,-0.00000770,0.00001209,-0.00000666,0.00000745,0.00
 000151,-0.00000341,0.00000155,-0.00000770,-0.00000792,-0.00001283,0.00
 000112,0.00270191,-0.00189549,-0.00499453,0.00002689,-0.00000553,0.000
 04606,0.00014161,0.00010911,0.00053642,0.00008702,0.00013476,-0.000045
 73,0.00002893,-0.00004962,0.00000547,0.00032027,0.00066804,0.00021542,
 0.00018172,0.00137813,0.00154578,0.00006124,-0.00001572,-0.00009117,0.
 00015992,0.00019351,-0.00012825,0.00027321,0.00009077,-0.00010218,0.00
 352898,-0.00068590,0.00087935,0.13092128,-0.15113758,0.22307329\\-0.00
 001128,0.00000695,0.00000980,0.00001245,-0.00000178,0.00000800,-0.0000
 0177,0.00000851,-0.00000725,-0.00000519,-0.00001844,-0.00000574,0.0000
 0264,-0.00000073,-0.00000682,-0.00000575,-0.00000475,0.00000471,0.0000
 0873,0.00000223,-0.00000550,-0.00002046,-0.00000236,-0.00000978,0.0000
 0774,-0.00001360,-0.00002484,-0.00001357,-0.00000005,0.00000985,-0.000
 00891,0.00000473,0.00001151,0.00000891,-0.00001165,0.00000452,0.000020
 89,0.00000416,-0.00000392,-0.00005123,-0.00001624,-0.00000216,0.000045
 30,0.00002641,0.00001242,-0.00000319,0.00000019,-0.00000229,0.00000223
 ,0.00000234,-0.00000230,-0.00000559,-0.00000362,0.00000081,-0.00000257
 ,0.00000487,0.00000302,0.00000152,0.00000318,0.00000184,0.00000138,-0.
 00000421,0.00000227,0.00000053,0.00000200,0.00000616,-0.00000070,0.000
 00111,-0.00000016,-0.00000288,0.00000041,0.00000031,-0.00000028,0.0000
 0008,0.00000293,-0.00000266,-0.00000055,0.00000048,0.00001242,0.000003
 56,-0.00000339,0.00000389,0.00000274,0.00000559,0.00000276,0.00000476,
 0.00000590,0.00000148,-0.00000287,-0.00000099,0.00000066,0.00000208,-0
 .00000533,0.00000389,-0.00000217,-0.00000233,-0.00000113,0.00000111,-0
 .00000507,-0.00000042,0.00000432,-0.00000107,-0.00000343,0.00000350,-0
 .00000284,-0.00000386,0.00000440,-0.00000092,0.00000457,0.00000023,0.0
 0000038,0.00000287,-0.00001088,0.00000217\\\@


 WORK FAITHFULLY FOR EIGHT HOURS A DAY AND DON'T WORRY.
 IN TIME YOU MAY BECOME BOSS AND WORK TWELVE HOURS A DAY
 AND HAVE ALL THE WORRY.
 Job cpu time:       0 days 13 hours 50 minutes 17.9 seconds.
 Elapsed time:       0 days  3 hours 27 minutes 42.8 seconds.
 File lengths (MBytes):  RWF=    771 Int=      0 D2E=      0 Chk=     24 Scr=      1
 Normal termination of Gaussian 16 at Sun May 28 23:23:53 2023.
### All Done ###
