### Starting Gaussian ###
 Entering Gaussian System, Link 0=g16
 Initial command:
 /cluster/software/gaussian/gaussian-16-A.03/avx2/g16/l1.exe "/local/scratch/ks29c/Gau-29165.inp" -scrdir="/local/scratch/ks29c/"
 Entering Link 1 = /cluster/software/gaussian/gaussian-16-A.03/avx2/g16/l1.exe PID=     29166.
  
 Copyright (c) 1988,1990,1992,1993,1995,1998,2003,2009,2016,
            Gaussian, Inc.  All Rights Reserved.
  
 This is part of the Gaussian(R) 16 program.  It is based on
 the Gaussian(R) 09 system (copyright 2009, Gaussian, Inc.),
 the Gaussian(R) 03 system (copyright 2003, Gaussian, Inc.),
 the Gaussian(R) 98 system (copyright 1998, Gaussian, Inc.),
 the Gaussian(R) 94 system (copyright 1995, Gaussian, Inc.),
 the Gaussian 92(TM) system (copyright 1992, Gaussian, Inc.),
 the Gaussian 90(TM) system (copyright 1990, Gaussian, Inc.),
 the Gaussian 88(TM) system (copyright 1988, Gaussian, Inc.),
 the Gaussian 86(TM) system (copyright 1986, Carnegie Mellon
 University), and the Gaussian 82(TM) system (copyright 1983,
 Carnegie Mellon University). Gaussian is a federally registered
 trademark of Gaussian, Inc.
  
 This software contains proprietary and confidential information,
 including trade secrets, belonging to Gaussian, Inc.
  
 This software is provided under written license and may be
 used, copied, transmitted, or stored only in accord with that
 written license.
  
 The following legend is applicable only to US Government
 contracts under FAR:
  
                    RESTRICTED RIGHTS LEGEND
  
 Use, reproduction and disclosure by the US Government is
 subject to restrictions as set forth in subparagraphs (a)
 and (c) of the Commercial Computer Software - Restricted
 Rights clause in FAR 52.227-19.
  
 Gaussian, Inc.
 340 Quinnipiac St., Bldg. 40, Wallingford CT 06492
  
  
 ---------------------------------------------------------------
 Warning -- This program may not be used in any manner that
 competes with the business of Gaussian, Inc. or will provide
 assistance to any competitor of Gaussian, Inc.  The licensee
 of this program is prohibited from giving any competitor of
 Gaussian, Inc. access to this program.  By using this program,
 the user acknowledges that Gaussian, Inc. is engaged in the
 business of creating and licensing software in the field of
 computational chemistry and represents and warrants to the
 licensee that it is not a competitor of Gaussian, Inc. and that
 it will not use this program in any manner prohibited above.
 ---------------------------------------------------------------
  

 Cite this work as:
 Gaussian 16, Revision A.03,
 M. J. Frisch, G. W. Trucks, H. B. Schlegel, G. E. Scuseria, 
 M. A. Robb, J. R. Cheeseman, G. Scalmani, V. Barone, 
 G. A. Petersson, H. Nakatsuji, X. Li, M. Caricato, A. V. Marenich, 
 J. Bloino, B. G. Janesko, R. Gomperts, B. Mennucci, H. P. Hratchian, 
 J. V. Ortiz, A. F. Izmaylov, J. L. Sonnenberg, D. Williams-Young, 
 F. Ding, F. Lipparini, F. Egidi, J. Goings, B. Peng, A. Petrone, 
 T. Henderson, D. Ranasinghe, V. G. Zakrzewski, J. Gao, N. Rega, 
 G. Zheng, W. Liang, M. Hada, M. Ehara, K. Toyota, R. Fukuda, 
 J. Hasegawa, M. Ishida, T. Nakajima, Y. Honda, O. Kitao, H. Nakai, 
 T. Vreven, K. Throssell, J. A. Montgomery, Jr., J. E. Peralta, 
 F. Ogliaro, M. J. Bearpark, J. J. Heyd, E. N. Brothers, K. N. Kudin, 
 V. N. Staroverov, T. A. Keith, R. Kobayashi, J. Normand, 
 K. Raghavachari, A. P. Rendell, J. C. Burant, S. S. Iyengar, 
 J. Tomasi, M. Cossi, J. M. Millam, M. Klene, C. Adamo, R. Cammi, 
 J. W. Ochterski, R. L. Martin, K. Morokuma, O. Farkas, 
 J. B. Foresman, and D. J. Fox, Gaussian, Inc., Wallingford CT, 2016.
 
 ******************************************
 Gaussian 16:  ES64L-G16RevA.03 25-Dec-2016
                22-May-2023 
 ******************************************
 %chk=CNC1qCCOrCCqCrC1C.chk
 %NProcShared=20
 Will use up to   20 processors via shared memory.
 -----------------------------
 # opt freq b3lyp/6-31g(2df,p)
 -----------------------------
 1/18=20,19=15,26=3,38=1/1,3;
 2/9=110,12=2,17=6,18=5,40=1/2;
 3/5=1,6=6,7=104,11=2,25=1,30=1,71=1,74=-5/1,2,3;
 4//1;
 5/5=2,38=5/2;
 6/7=2,8=2,9=2,10=2,28=1/1;
 7//1,2,3,16;
 1/18=20,19=15,26=3/3(2);
 2/9=110/2;
 99//99;
 2/9=110/2;
 3/5=1,6=6,7=104,11=2,25=1,30=1,71=1,74=-5/1,2,3;
 4/5=5,16=3,69=1/1;
 5/5=2,38=5/2;
 7//1,2,3,16;
 1/18=20,19=15,26=3/3(-5);
 2/9=110/2;
 6/7=2,8=2,9=2,10=2,19=2,28=1/1;
 99/9=1/99;
 -------------------
 Title Card Required
 -------------------
 Symbolic Z-matrix:
 Charge =  0 Multiplicity = 1
 C                     0.99811   0.09795   0.24421 
 N                     2.46027   0.18644   0.11133 
 C                     2.8553    0.97231  -1.09542 
 C                     2.45801   0.17999  -2.3463 
 C                     2.66664   0.83558  -3.68692 
 O                     2.21142  -0.03513  -4.71821 
 C                     2.49543   2.47401  -0.79347 
 C                     3.92696   2.89194  -1.2265 
 C                     4.12343   3.50442  -2.60631 
 C                     4.36745   1.42397  -0.87677 
 C                     5.50333   0.80466  -1.66942 
 H                     0.74016  -0.5656    1.07474 
 H                     0.50192  -0.32754  -0.63215 
 H                     0.55098   1.07497   0.44742 
 H                     2.8302   -0.7654    0.10053 
 H                     1.39108  -0.05556  -2.33123 
 H                     2.96524  -0.7937   -2.33685 
 H                     3.7163    1.02247  -3.89955 
 H                     2.08798   1.7592   -3.75137 
 H                     2.84022  -0.76817  -4.75747 
 H                     2.34516   2.70728   0.27486 
 H                     1.65431   2.9015   -1.34123 
 H                     4.36473   3.62108  -0.52768 
 H                     3.73816   2.90867  -3.41878 
 H                     5.18519   3.65283  -2.82115 
 H                     3.60892   4.46619  -2.68668 
 H                     4.67265   1.38938   0.18525 
 H                     5.3347    0.8318   -2.74433 
 H                     5.64556  -0.2409   -1.38091 
 H                     6.44103   1.33923  -1.48545 
 

 GradGradGradGradGradGradGradGradGradGradGradGradGradGradGradGradGradGrad
 Berny optimization.
 Initialization pass.
                           ----------------------------
                           !    Initial Parameters    !
                           ! (Angstroms and Degrees)  !
 --------------------------                            --------------------------
 ! Name  Definition              Value          Derivative Info.                !
 --------------------------------------------------------------------------------
 ! R1    R(1,2)                  1.4708         estimate D2E/DX2                !
 ! R2    R(1,12)                 1.0939         estimate D2E/DX2                !
 ! R3    R(1,13)                 1.0933         estimate D2E/DX2                !
 ! R4    R(1,14)                 1.0935         estimate D2E/DX2                !
 ! R5    R(2,3)                  1.4933         estimate D2E/DX2                !
 ! R6    R(2,15)                 1.0213         estimate D2E/DX2                !
 ! R7    R(3,4)                  1.5331         estimate D2E/DX2                !
 ! R8    R(3,7)                  1.5735         estimate D2E/DX2                !
 ! R9    R(3,10)                 1.5932         estimate D2E/DX2                !
 ! R10   R(4,5)                  1.5068         estimate D2E/DX2                !
 ! R11   R(4,16)                 1.0927         estimate D2E/DX2                !
 ! R12   R(4,17)                 1.0979         estimate D2E/DX2                !
 ! R13   R(5,6)                  1.4244         estimate D2E/DX2                !
 ! R14   R(5,18)                 1.0872         estimate D2E/DX2                !
 ! R15   R(5,19)                 1.0918         estimate D2E/DX2                !
 ! R16   R(6,20)                 0.9666         estimate D2E/DX2                !
 ! R17   R(7,8)                  1.5529         estimate D2E/DX2                !
 ! R18   R(7,21)                 1.1038         estimate D2E/DX2                !
 ! R19   R(7,22)                 1.091          estimate D2E/DX2                !
 ! R20   R(8,9)                  1.5224         estimate D2E/DX2                !
 ! R21   R(8,10)                 1.572          estimate D2E/DX2                !
 ! R22   R(8,23)                 1.1007         estimate D2E/DX2                !
 ! R23   R(9,24)                 1.0786         estimate D2E/DX2                !
 ! R24   R(9,25)                 1.0934         estimate D2E/DX2                !
 ! R25   R(9,26)                 1.0937         estimate D2E/DX2                !
 ! R26   R(10,11)                1.5173         estimate D2E/DX2                !
 ! R27   R(10,27)                1.1055         estimate D2E/DX2                !
 ! R28   R(11,28)                1.0884         estimate D2E/DX2                !
 ! R29   R(11,29)                1.0939         estimate D2E/DX2                !
 ! R30   R(11,30)                1.0949         estimate D2E/DX2                !
 ! A1    A(2,1,12)             109.8464         estimate D2E/DX2                !
 ! A2    A(2,1,13)             113.714          estimate D2E/DX2                !
 ! A3    A(2,1,14)             111.6854         estimate D2E/DX2                !
 ! A4    A(12,1,13)            105.3965         estimate D2E/DX2                !
 ! A5    A(12,1,14)            107.7255         estimate D2E/DX2                !
 ! A6    A(13,1,14)            108.126          estimate D2E/DX2                !
 ! A7    A(1,2,3)              111.5704         estimate D2E/DX2                !
 ! A8    A(1,2,15)             107.7565         estimate D2E/DX2                !
 ! A9    A(3,2,15)             112.7139         estimate D2E/DX2                !
 ! A10   A(2,3,4)              108.5921         estimate D2E/DX2                !
 ! A11   A(2,3,7)              106.6597         estimate D2E/DX2                !
 ! A12   A(2,3,10)             106.8198         estimate D2E/DX2                !
 ! A13   A(4,3,7)              126.1965         estimate D2E/DX2                !
 ! A14   A(4,3,10)             120.2944         estimate D2E/DX2                !
 ! A15   A(7,3,10)              85.4218         estimate D2E/DX2                !
 ! A16   A(3,4,5)              117.7223         estimate D2E/DX2                !
 ! A17   A(3,4,16)             110.6821         estimate D2E/DX2                !
 ! A18   A(3,4,17)             109.3654         estimate D2E/DX2                !
 ! A19   A(5,4,16)             103.9598         estimate D2E/DX2                !
 ! A20   A(5,4,17)             109.2406         estimate D2E/DX2                !
 ! A21   A(16,4,17)            105.0578         estimate D2E/DX2                !
 ! A22   A(4,5,6)              109.5085         estimate D2E/DX2                !
 ! A23   A(4,5,18)             112.4872         estimate D2E/DX2                !
 ! A24   A(4,5,19)             110.3153         estimate D2E/DX2                !
 ! A25   A(6,5,18)             105.7857         estimate D2E/DX2                !
 ! A26   A(6,5,19)             107.7577         estimate D2E/DX2                !
 ! A27   A(18,5,19)            110.7777         estimate D2E/DX2                !
 ! A28   A(5,6,20)             106.5642         estimate D2E/DX2                !
 ! A29   A(3,7,8)               89.5706         estimate D2E/DX2                !
 ! A30   A(3,7,21)             114.7447         estimate D2E/DX2                !
 ! A31   A(3,7,22)             116.997          estimate D2E/DX2                !
 ! A32   A(8,7,21)             109.787          estimate D2E/DX2                !
 ! A33   A(8,7,22)             117.7267         estimate D2E/DX2                !
 ! A34   A(21,7,22)            107.3483         estimate D2E/DX2                !
 ! A35   A(7,8,9)              118.6847         estimate D2E/DX2                !
 ! A36   A(7,8,10)              86.8445         estimate D2E/DX2                !
 ! A37   A(7,8,23)             111.5839         estimate D2E/DX2                !
 ! A38   A(9,8,10)             122.7629         estimate D2E/DX2                !
 ! A39   A(9,8,23)             104.9269         estimate D2E/DX2                !
 ! A40   A(10,8,23)            111.4619         estimate D2E/DX2                !
 ! A41   A(8,9,24)             114.4814         estimate D2E/DX2                !
 ! A42   A(8,9,25)             110.9785         estimate D2E/DX2                !
 ! A43   A(8,9,26)             111.0806         estimate D2E/DX2                !
 ! A44   A(24,9,25)            105.8913         estimate D2E/DX2                !
 ! A45   A(24,9,26)            105.2073         estimate D2E/DX2                !
 ! A46   A(25,9,26)            108.8457         estimate D2E/DX2                !
 ! A47   A(3,10,8)              88.1803         estimate D2E/DX2                !
 ! A48   A(3,10,11)            121.5426         estimate D2E/DX2                !
 ! A49   A(3,10,27)            112.6423         estimate D2E/DX2                !
 ! A50   A(8,10,11)            118.3403         estimate D2E/DX2                !
 ! A51   A(8,10,27)            108.68           estimate D2E/DX2                !
 ! A52   A(11,10,27)           106.4043         estimate D2E/DX2                !
 ! A53   A(10,11,28)           112.941          estimate D2E/DX2                !
 ! A54   A(10,11,29)           110.4681         estimate D2E/DX2                !
 ! A55   A(10,11,30)           110.7368         estimate D2E/DX2                !
 ! A56   A(28,11,29)           107.725          estimate D2E/DX2                !
 ! A57   A(28,11,30)           106.6454         estimate D2E/DX2                !
 ! A58   A(29,11,30)           108.118          estimate D2E/DX2                !
 ! D1    D(12,1,2,3)           174.2636         estimate D2E/DX2                !
 ! D2    D(12,1,2,15)           50.0296         estimate D2E/DX2                !
 ! D3    D(13,1,2,3)            56.4343         estimate D2E/DX2                !
 ! D4    D(13,1,2,15)          -67.7997         estimate D2E/DX2                !
 ! D5    D(14,1,2,3)           -66.2734         estimate D2E/DX2                !
 ! D6    D(14,1,2,15)          169.4927         estimate D2E/DX2                !
 ! D7    D(1,2,3,4)            -67.8583         estimate D2E/DX2                !
 ! D8    D(1,2,3,7)             70.8218         estimate D2E/DX2                !
 ! D9    D(1,2,3,10)           161.0177         estimate D2E/DX2                !
 ! D10   D(15,2,3,4)            53.5407         estimate D2E/DX2                !
 ! D11   D(15,2,3,7)          -167.7793         estimate D2E/DX2                !
 ! D12   D(15,2,3,10)          -77.5834         estimate D2E/DX2                !
 ! D13   D(2,3,4,5)            175.3482         estimate D2E/DX2                !
 ! D14   D(2,3,4,16)            56.0285         estimate D2E/DX2                !
 ! D15   D(2,3,4,17)           -59.2507         estimate D2E/DX2                !
 ! D16   D(7,3,4,5)             46.9608         estimate D2E/DX2                !
 ! D17   D(7,3,4,16)           -72.3589         estimate D2E/DX2                !
 ! D18   D(7,3,4,17)           172.3619         estimate D2E/DX2                !
 ! D19   D(10,3,4,5)           -61.2779         estimate D2E/DX2                !
 ! D20   D(10,3,4,16)          179.4024         estimate D2E/DX2                !
 ! D21   D(10,3,4,17)           64.1232         estimate D2E/DX2                !
 ! D22   D(2,3,7,8)            129.7824         estimate D2E/DX2                !
 ! D23   D(2,3,7,21)            18.1096         estimate D2E/DX2                !
 ! D24   D(2,3,7,22)          -108.996          estimate D2E/DX2                !
 ! D25   D(4,3,7,8)           -101.0657         estimate D2E/DX2                !
 ! D26   D(4,3,7,21)           147.2615         estimate D2E/DX2                !
 ! D27   D(4,3,7,22)            20.1559         estimate D2E/DX2                !
 ! D28   D(10,3,7,8)            23.5792         estimate D2E/DX2                !
 ! D29   D(10,3,7,21)          -88.0935         estimate D2E/DX2                !
 ! D30   D(10,3,7,22)          144.8009         estimate D2E/DX2                !
 ! D31   D(2,3,10,8)          -129.3234         estimate D2E/DX2                !
 ! D32   D(2,3,10,11)          108.1437         estimate D2E/DX2                !
 ! D33   D(2,3,10,27)          -19.8145         estimate D2E/DX2                !
 ! D34   D(4,3,10,8)           106.4573         estimate D2E/DX2                !
 ! D35   D(4,3,10,11)          -16.0756         estimate D2E/DX2                !
 ! D36   D(4,3,10,27)         -144.0338         estimate D2E/DX2                !
 ! D37   D(7,3,10,8)           -23.2868         estimate D2E/DX2                !
 ! D38   D(7,3,10,11)         -145.8197         estimate D2E/DX2                !
 ! D39   D(7,3,10,27)           86.222          estimate D2E/DX2                !
 ! D40   D(3,4,5,6)           -178.5865         estimate D2E/DX2                !
 ! D41   D(3,4,5,18)            64.0899         estimate D2E/DX2                !
 ! D42   D(3,4,5,19)           -60.1496         estimate D2E/DX2                !
 ! D43   D(16,4,5,6)           -55.7833         estimate D2E/DX2                !
 ! D44   D(16,4,5,18)         -173.1069         estimate D2E/DX2                !
 ! D45   D(16,4,5,19)           62.6536         estimate D2E/DX2                !
 ! D46   D(17,4,5,6)            55.9509         estimate D2E/DX2                !
 ! D47   D(17,4,5,18)          -61.3727         estimate D2E/DX2                !
 ! D48   D(17,4,5,19)          174.3878         estimate D2E/DX2                !
 ! D49   D(4,5,6,20)           -70.6772         estimate D2E/DX2                !
 ! D50   D(18,5,6,20)           50.778          estimate D2E/DX2                !
 ! D51   D(19,5,6,20)          169.3084         estimate D2E/DX2                !
 ! D52   D(3,7,8,9)            102.1156         estimate D2E/DX2                !
 ! D53   D(3,7,8,10)           -23.8744         estimate D2E/DX2                !
 ! D54   D(3,7,8,23)          -135.7295         estimate D2E/DX2                !
 ! D55   D(21,7,8,9)          -141.6429         estimate D2E/DX2                !
 ! D56   D(21,7,8,10)           92.3671         estimate D2E/DX2                !
 ! D57   D(21,7,8,23)          -19.488          estimate D2E/DX2                !
 ! D58   D(22,7,8,9)           -18.4753         estimate D2E/DX2                !
 ! D59   D(22,7,8,10)         -144.4653         estimate D2E/DX2                !
 ! D60   D(22,7,8,23)          103.6796         estimate D2E/DX2                !
 ! D61   D(7,8,9,24)           -54.2227         estimate D2E/DX2                !
 ! D62   D(7,8,9,25)          -174.0119         estimate D2E/DX2                !
 ! D63   D(7,8,9,26)            64.7517         estimate D2E/DX2                !
 ! D64   D(10,8,9,24)           51.8876         estimate D2E/DX2                !
 ! D65   D(10,8,9,25)          -67.9015         estimate D2E/DX2                !
 ! D66   D(10,8,9,26)          170.862          estimate D2E/DX2                !
 ! D67   D(23,8,9,24)         -179.661          estimate D2E/DX2                !
 ! D68   D(23,8,9,25)           60.5499         estimate D2E/DX2                !
 ! D69   D(23,8,9,26)          -60.6866         estimate D2E/DX2                !
 ! D70   D(7,8,10,3)            23.5719         estimate D2E/DX2                !
 ! D71   D(7,8,10,11)          148.8493         estimate D2E/DX2                !
 ! D72   D(7,8,10,27)          -89.7469         estimate D2E/DX2                !
 ! D73   D(9,8,10,3)           -98.8521         estimate D2E/DX2                !
 ! D74   D(9,8,10,11)           26.4253         estimate D2E/DX2                !
 ! D75   D(9,8,10,27)          147.829          estimate D2E/DX2                !
 ! D76   D(23,8,10,3)          135.5467         estimate D2E/DX2                !
 ! D77   D(23,8,10,11)         -99.176          estimate D2E/DX2                !
 ! D78   D(23,8,10,27)          22.2278         estimate D2E/DX2                !
 ! D79   D(3,10,11,28)          52.3489         estimate D2E/DX2                !
 ! D80   D(3,10,11,29)         -68.3721         estimate D2E/DX2                !
 ! D81   D(3,10,11,30)         171.8765         estimate D2E/DX2                !
 ! D82   D(8,10,11,28)         -54.4333         estimate D2E/DX2                !
 ! D83   D(8,10,11,29)        -175.1543         estimate D2E/DX2                !
 ! D84   D(8,10,11,30)          65.0943         estimate D2E/DX2                !
 ! D85   D(27,10,11,28)       -176.9893         estimate D2E/DX2                !
 ! D86   D(27,10,11,29)         62.2897         estimate D2E/DX2                !
 ! D87   D(27,10,11,30)        -57.4617         estimate D2E/DX2                !
 --------------------------------------------------------------------------------
 Trust Radius=3.00D-01 FncErr=1.00D-07 GrdErr=1.00D-06 EigMax=2.50D+02 EigMin=1.00D-04
 Number of steps in this run=    180 maximum allowed number of steps=    180.
 GradGradGradGradGradGradGradGradGradGradGradGradGradGradGradGradGradGrad

                          Input orientation:                          
 ---------------------------------------------------------------------
 Center     Atomic      Atomic             Coordinates (Angstroms)
 Number     Number       Type             X           Y           Z
 ---------------------------------------------------------------------
      1          6           0        0.998110    0.097950    0.244210
      2          7           0        2.460270    0.186440    0.111330
      3          6           0        2.855300    0.972310   -1.095420
      4          6           0        2.458010    0.179990   -2.346300
      5          6           0        2.666640    0.835580   -3.686920
      6          8           0        2.211420   -0.035130   -4.718210
      7          6           0        2.495430    2.474010   -0.793470
      8          6           0        3.926960    2.891940   -1.226500
      9          6           0        4.123430    3.504420   -2.606310
     10          6           0        4.367450    1.423970   -0.876770
     11          6           0        5.503330    0.804660   -1.669420
     12          1           0        0.740160   -0.565600    1.074740
     13          1           0        0.501920   -0.327540   -0.632150
     14          1           0        0.550980    1.074970    0.447420
     15          1           0        2.830200   -0.765400    0.100530
     16          1           0        1.391080   -0.055560   -2.331230
     17          1           0        2.965240   -0.793700   -2.336850
     18          1           0        3.716300    1.022470   -3.899550
     19          1           0        2.087980    1.759200   -3.751370
     20          1           0        2.840220   -0.768170   -4.757470
     21          1           0        2.345160    2.707280    0.274860
     22          1           0        1.654310    2.901500   -1.341230
     23          1           0        4.364730    3.621080   -0.527680
     24          1           0        3.738160    2.908670   -3.418780
     25          1           0        5.185190    3.652830   -2.821150
     26          1           0        3.608920    4.466190   -2.686680
     27          1           0        4.672650    1.389380    0.185250
     28          1           0        5.334700    0.831800   -2.744330
     29          1           0        5.645560   -0.240900   -1.380910
     30          1           0        6.441030    1.339230   -1.485450
 ---------------------------------------------------------------------
                    Distance matrix (angstroms):
                    1          2          3          4          5
     1  C    0.000000
     2  N    1.470850   0.000000
     3  C    2.451177   1.493280   0.000000
     4  C    2.974690   2.457640   1.533072   0.000000
     5  C    4.333806   3.858844   2.601953   1.506847   0.000000
     6  O    5.110327   4.841020   3.814987   2.394377   1.424402
     7  C    2.994062   2.460259   1.573462   2.770417   3.329537
     8  C    4.306684   3.355696   2.202412   3.281225   3.445387
     9  C    5.431126   4.600072   3.209754   3.727340   3.226866
    10  C    3.790432   2.478943   1.593236   2.711635   3.337050
    11  C    4.945546   3.579592   2.714709   3.181565   3.481102
    12  H    1.093900   2.110095   3.398320   3.900055   5.324287
    13  H    1.093276   2.156866   2.728118   2.649941   3.920520
    14  H    1.093521   2.132564   2.775029   3.498946   4.650386
    15  H    2.030412   1.021256   2.109636   2.649389   4.115175
    16  H    2.609767   2.677280   2.174324   1.092726   2.063754
    17  H    3.365488   2.685005   2.161487   1.097927   2.136915
    18  H    5.041234   4.285291   2.933766   2.169251   1.087164
    19  H    4.462312   4.187198   2.874378   2.145938   1.091822
    20  H    5.400031   4.976028   4.054640   2.618937   1.936032
    21  H    2.936679   2.528760   2.268927   3.642857   4.393440
    22  H    3.286961   3.182931   2.285733   3.010435   3.285590
    23  H    4.933801   3.978951   3.101079   4.334058   4.541290
    24  H    5.368940   4.637372   3.150704   3.199171   2.348990
    25  H    6.290091   5.295327   3.948635   4.441127   3.876796
    26  H    5.872646   5.240660   3.912448   4.451063   3.881971
    27  H    3.895319   2.519356   2.262040   3.574353   4.395961
    28  H    5.317511   4.102881   2.980951   2.976345   2.829670
    29  H    4.935041   3.543370   3.055967   3.357023   3.917966
    30  H    5.844474   4.441293   3.625495   4.236667   4.398426
                    6          7          8          9         10
     6  O    0.000000
     7  C    4.666908   0.000000
     8  C    4.868558   1.552887   0.000000
     9  C    4.543602   2.645471   1.522369   0.000000
    10  C    4.640485   2.148018   1.572030   2.716455   0.000000
    11  C    4.564761   3.549856   2.652896   3.173419   1.517255
    12  H    6.000356   3.976231   5.235072   6.446837   4.574277
    13  H    4.438894   3.442207   4.738059   5.629970   4.250876
    14  H    5.538332   2.697778   4.183375   5.290548   4.054716
    15  H    4.912885   3.377141   4.042280   5.218313   2.848086
    16  H    2.524094   3.159592   4.042137   4.496094   3.628118
    17  H    2.610469   3.644266   3.967584   4.459579   3.002680
    18  H    2.013302   3.639399   3.268714   2.828127   3.118076
    19  H    2.041969   3.070202   3.322637   2.915478   3.683977
    20  H    0.966581   5.132632   5.200496   4.952690   4.711448
    21  H    5.698197   1.103778   2.188669   3.478335   2.657592
    22  H    4.509785   1.090996   2.275564   2.839101   3.124091
    23  H    5.963653   2.209230   1.100744   2.095838   2.224672
    24  H    3.561659   2.936930   2.200458   1.078637   3.010341
    25  H    5.103253   3.568741   2.169102   1.093397   3.068734
    26  H    5.132446   2.965280   2.170608   1.093701   3.620255
    27  H    5.668404   2.621946   2.192437   3.545116   1.105545
    28  H    3.795082   3.816302   2.920568   2.937537   2.184953
    29  H    4.793040   4.199898   3.576607   4.224442   2.158591
    30  H    5.498109   4.163451   2.966228   3.363873   2.162731
                   11         12         13         14         15
    11  C    0.000000
    12  H    5.665317   0.000000
    13  H    5.231817   1.739800   0.000000
    14  H    5.392574   1.766576   1.770568   0.000000
    15  H    3.569795   2.314578   2.479804   2.949939   0.000000
    16  H    4.253066   3.504921   1.936866   3.115247   2.913485
    17  H    3.072803   4.079455   3.031708   4.131917   2.441282
    18  H    2.866077   6.010236   4.778145   5.377560   4.470156
    19  H    4.112211   5.523826   4.074261   4.523315   4.664936
    20  H    4.370584   6.202093   4.762359   5.977346   4.858011
    21  H    4.168240   3.731967   3.664742   2.431727   3.510721
    22  H    4.395384   4.323582   3.501071   2.784388   4.111879
    23  H    3.245335   5.764854   5.524836   4.688090   4.689418
    24  H    3.256216   6.422638   5.358322   5.335548   5.168048
    25  H    3.088651   7.261639   6.524422   6.229351   5.796805
    26  H    4.246223   6.906300   6.070782   5.538407   5.978669
    27  H    2.114646   4.480805   4.583770   4.141950   2.836349
    28  H    1.088395   6.135782   5.400105   5.755899   4.113003
    29  H    1.093921   5.495325   5.198575   5.570373   3.224285
    30  H    1.094939   6.533213   6.227300   6.204717   4.470223
                   16         17         18         19         20
    16  H    0.000000
    17  H    1.738638   0.000000
    18  H    3.004734   2.510895   0.000000
    19  H    2.407451   3.047581   1.793364   0.000000
    20  H    2.914526   2.423981   2.170238   2.822357   0.000000
    21  H    3.916026   4.411620   4.705774   4.144337   6.135811
    22  H    3.129472   4.045281   3.785176   2.702165   5.152044
    23  H    5.060936   4.972117   4.306129   4.363756   6.283372
    24  H    3.934236   3.933894   1.946630   2.038380   4.014666
    25  H    5.327987   4.993431   3.199903   3.747513   5.365954
    26  H    5.048899   5.310664   3.652642   3.282471   5.681337
    27  H    4.380551   3.747276   4.211273   4.723798   5.695902
    28  H    4.063274   2.902177   1.997525   3.523548   3.582606
    29  H    4.363262   2.898883   3.414922   4.719731   4.421437
    30  H    5.306861   4.165980   3.654089   4.925425   5.302177
                   21         22         23         24         25
    21  H    0.000000
    22  H    1.768260   0.000000
    23  H    2.357491   2.919938   0.000000
    24  H    3.952718   2.942566   3.042791   0.000000
    25  H    4.306404   3.901509   2.436015   1.733445   0.000000
    26  H    3.669002   2.842357   2.438594   1.725845   1.778838
    27  H    2.676210   3.705000   2.362958   4.021262   3.797939
    28  H    4.644382   4.449451   3.692487   2.705035   2.826033
    29  H    4.725038   5.079993   4.157333   4.208430   4.177004
    30  H    4.663304   5.037279   3.230354   3.675107   2.951944
                   26         27         28         29         30
    26  H    0.000000
    27  H    4.341228   0.000000
    28  H    4.023733   3.054774   0.000000
    29  H    5.292413   2.461143   1.762451   0.000000
    30  H    4.386534   2.433294   1.751065   1.772149   0.000000
 Stoichiometry    C9H19NO
 Framework group  C1[X(C9H19NO)]
 Deg. of freedom    84
 Full point group                 C1      NOp   1
 Largest Abelian subgroup         C1      NOp   1
 Largest concise Abelian subgroup C1      NOp   1
                         Standard orientation:                         
 ---------------------------------------------------------------------
 Center     Atomic      Atomic             Coordinates (Angstroms)
 Number     Number       Type             X           Y           Z
 ---------------------------------------------------------------------
      1          6           0        3.019460    0.496692   -0.374113
      2          7           0        2.118347   -0.216109    0.544206
      3          6           0        0.699705   -0.150087    0.082706
      4          6           0        0.213643    1.298943    0.202572
      5          6           0       -1.165653    1.620458   -0.311976
      6          8           0       -1.423454    3.011329   -0.144833
      7          6           0        0.598445   -1.061389   -1.195988
      8          6           0       -0.634701   -1.773478   -0.576521
      9          6           0       -2.022988   -1.395651   -1.074029
     10          6           0       -0.081540   -1.323829    0.824588
     11          6           0       -1.076539   -1.037883    1.933766
     12          1           0        4.031366    0.518390    0.040847
     13          1           0        2.747944    1.543890   -0.531937
     14          1           0        3.070562    0.007570   -1.350809
     15          1           0        2.248339    0.178686    1.477053
     16          1           0        0.867314    1.972783   -0.356627
     17          1           0        0.294962    1.624934    1.247828
     18          1           0       -1.946658    1.106179    0.242527
     19          1           0       -1.234716    1.394735   -1.377975
     20          1           0       -1.527778    3.160113    0.804513
     21          1           0        1.425272   -1.782708   -1.315912
     22          1           0        0.465095   -0.557131   -2.154222
     23          1           0       -0.576436   -2.865618   -0.700904
     24          1           0       -2.243622   -0.340953   -1.025144
     25          1           0       -2.798618   -1.891433   -0.484015
     26          1           0       -2.151389   -1.667171   -2.125681
     27          1           0        0.595005   -2.110088    1.207098
     28          1           0       -1.832133   -0.308404    1.648211
     29          1           0       -0.561976   -0.654929    2.819900
     30          1           0       -1.612315   -1.949361    2.218447
 ---------------------------------------------------------------------
 Rotational constants (GHZ):           1.0374875           0.9823797           0.6897619
 Standard basis: 6-31G(2df,p) (6D, 7F)
 There are   436 symmetry adapted cartesian basis functions of A   symmetry.
 There are   403 symmetry adapted basis functions of A   symmetry.
   403 basis functions,   617 primitive gaussians,   436 cartesian basis functions
    44 alpha electrons       44 beta electrons
       nuclear repulsion energy       695.5744898609 Hartrees.
 NAtoms=   30 NActive=   30 NUniq=   30 SFac= 1.00D+00 NAtFMM=   60 NAOKFM=F Big=F
 Integral buffers will be    131072 words long.
 Raffenetti 2 integral format.
 Two-electron integral symmetry is turned on.
 One-electron integrals computed using PRISM.
 PrsmSu:  requested number of processors reduced to:  13 ShMem   1 Linda.
 NBasis=   403 RedAO= T EigKep=  3.63D-04  NBF=   403
 NBsUse=   403 1.00D-06 EigRej= -1.00D+00 NBFU=   403
 ExpMin= 1.61D-01 ExpMax= 5.48D+03 ExpMxC= 8.25D+02 IAcc=3 IRadAn=         5 AccDes= 0.00D+00
 Harris functional with IExCor=  402 and IRadAn=       5 diagonalized for initial guess.
 HarFok:  IExCor=  402 AccDes= 0.00D+00 IRadAn=         5 IDoV= 1 UseB2=F ITyADJ=14
 ICtDFT=  3500011 ScaDFX=  1.000000  1.000000  1.000000  1.000000
 FoFCou: FMM=F IPFlag=           0 FMFlag=      100000 FMFlg1=           0
         NFxFlg=           0 DoJE=T BraDBF=F KetDBF=T FulRan=T
         wScrn=  0.000000 ICntrl=       500 IOpCl=  0 I1Cent=   200000004 NGrid=           0
         NMat0=    1 NMatS0=      1 NMatT0=    0 NMatD0=    1 NMtDS0=    0 NMtDT0=    0
 Petite list used in FoFCou.
 Requested convergence on RMS density matrix=1.00D-08 within 128 cycles.
 Requested convergence on MAX density matrix=1.00D-06.
 Requested convergence on             energy=1.00D-06.
 No special actions if energy rises.
 Integral accuracy reduced to 1.0D-05 until final iterations.
 Initial convergence to 1.0D-05 achieved.  Increase integral accuracy.
 SCF Done:  E(RB3LYP) =  -484.342428613     A.U. after   12 cycles
            NFock= 12  Conv=0.58D-08     -V/T= 2.0080

 **********************************************************************

            Population analysis using the SCF density.

 **********************************************************************

 Orbital symmetries:
       Occupied  (A) (A) (A) (A) (A) (A) (A) (A) (A) (A) (A) (A)
                 (A) (A) (A) (A) (A) (A) (A) (A) (A) (A) (A) (A)
                 (A) (A) (A) (A) (A) (A) (A) (A) (A) (A) (A) (A)
                 (A) (A) (A) (A) (A) (A) (A) (A)
       Virtual   (A) (A) (A) (A) (A) (A) (A) (A) (A) (A) (A) (A)
                 (A) (A) (A) (A) (A) (A) (A) (A) (A) (A) (A) (A)
                 (A) (A) (A) (A) (A) (A) (A) (A) (A) (A) (A) (A)
                 (A) (A) (A) (A) (A) (A) (A) (A) (A) (A) (A) (A)
                 (A) (A) (A) (A) (A) (A) (A) (A) (A) (A) (A) (A)
                 (A) (A) (A) (A) (A) (A) (A) (A) (A) (A) (A) (A)
                 (A) (A) (A) (A) (A) (A) (A) (A) (A) (A) (A) (A)
                 (A) (A) (A) (A) (A) (A) (A) (A) (A) (A) (A) (A)
                 (A) (A) (A) (A) (A) (A) (A) (A) (A) (A) (A) (A)
                 (A) (A) (A) (A) (A) (A) (A) (A) (A) (A) (A) (A)
                 (A) (A) (A) (A) (A) (A) (A) (A) (A) (A) (A) (A)
                 (A) (A) (A) (A) (A) (A) (A) (A) (A) (A) (A) (A)
                 (A) (A) (A) (A) (A) (A) (A) (A) (A) (A) (A) (A)
                 (A) (A) (A) (A) (A) (A) (A) (A) (A) (A) (A) (A)
                 (A) (A) (A) (A) (A) (A) (A) (A) (A) (A) (A) (A)
                 (A) (A) (A) (A) (A) (A) (A) (A) (A) (A) (A) (A)
                 (A) (A) (A) (A) (A) (A) (A) (A) (A) (A) (A) (A)
                 (A) (A) (A) (A) (A) (A) (A) (A) (A) (A) (A) (A)
                 (A) (A) (A) (A) (A) (A) (A) (A) (A) (A) (A) (A)
                 (A) (A) (A) (A) (A) (A) (A) (A) (A) (A) (A) (A)
                 (A) (A) (A) (A) (A) (A) (A) (A) (A) (A) (A) (A)
                 (A) (A) (A) (A) (A) (A) (A) (A) (A) (A) (A) (A)
                 (A) (A) (A) (A) (A) (A) (A) (A) (A) (A) (A) (A)
                 (A) (A) (A) (A) (A) (A) (A) (A) (A) (A) (A) (A)
                 (A) (A) (A) (A) (A) (A) (A) (A) (A) (A) (A) (A)
                 (A) (A) (A) (A) (A) (A) (A) (A) (A) (A) (A) (A)
                 (A) (A) (A) (A) (A) (A) (A) (A) (A) (A) (A) (A)
                 (A) (A) (A) (A) (A) (A) (A) (A) (A) (A) (A) (A)
                 (A) (A) (A) (A) (A) (A) (A) (A) (A) (A) (A) (A)
                 (A) (A) (A) (A) (A) (A) (A) (A) (A) (A) (A)
 The electronic state is 1-A.
 Alpha  occ. eigenvalues --  -19.12896 -14.30245 -10.22116 -10.21432 -10.18960
 Alpha  occ. eigenvalues --  -10.17999 -10.17940 -10.17846 -10.17469 -10.17000
 Alpha  occ. eigenvalues --  -10.16680  -1.01162  -0.89722  -0.82357  -0.75601
 Alpha  occ. eigenvalues --   -0.72726  -0.70956  -0.66140  -0.62740  -0.60788
 Alpha  occ. eigenvalues --   -0.57786  -0.51377  -0.50861  -0.48507  -0.46257
 Alpha  occ. eigenvalues --   -0.45767  -0.43588  -0.42765  -0.41713  -0.40790
 Alpha  occ. eigenvalues --   -0.40302  -0.39569  -0.38516  -0.36685  -0.36309
 Alpha  occ. eigenvalues --   -0.35750  -0.35010  -0.32890  -0.30982  -0.30335
 Alpha  occ. eigenvalues --   -0.28135  -0.28083  -0.26499  -0.20890
 Alpha virt. eigenvalues --    0.06332   0.07807   0.08809   0.10683   0.11166
 Alpha virt. eigenvalues --    0.12498   0.13910   0.14121   0.15088   0.15241
 Alpha virt. eigenvalues --    0.15479   0.16144   0.16759   0.17751   0.18623
 Alpha virt. eigenvalues --    0.18999   0.19938   0.20952   0.21837   0.21938
 Alpha virt. eigenvalues --    0.22340   0.23937   0.24643   0.25911   0.26757
 Alpha virt. eigenvalues --    0.29200   0.29296   0.30466   0.31977   0.38435
 Alpha virt. eigenvalues --    0.42099   0.44378   0.45458   0.46192   0.47035
 Alpha virt. eigenvalues --    0.48147   0.50834   0.52341   0.53228   0.54592
 Alpha virt. eigenvalues --    0.55417   0.56432   0.56631   0.57929   0.59219
 Alpha virt. eigenvalues --    0.60060   0.61877   0.62849   0.63580   0.64802
 Alpha virt. eigenvalues --    0.65392   0.67078   0.68162   0.69417   0.69899
 Alpha virt. eigenvalues --    0.70865   0.72042   0.72526   0.73021   0.74074
 Alpha virt. eigenvalues --    0.74183   0.75141   0.76199   0.77011   0.77248
 Alpha virt. eigenvalues --    0.79005   0.79057   0.79695   0.80469   0.81759
 Alpha virt. eigenvalues --    0.82939   0.83537   0.84352   0.86055   0.87095
 Alpha virt. eigenvalues --    0.87471   0.88954   0.90796   0.92041   0.92396
 Alpha virt. eigenvalues --    0.93866   0.94349   0.96023   0.99129   1.00232
 Alpha virt. eigenvalues --    1.02522   1.04680   1.06099   1.07609   1.10307
 Alpha virt. eigenvalues --    1.11357   1.12231   1.14298   1.16820   1.19206
 Alpha virt. eigenvalues --    1.20562   1.22170   1.26962   1.27602   1.29172
 Alpha virt. eigenvalues --    1.31191   1.32535   1.35487   1.37095   1.38607
 Alpha virt. eigenvalues --    1.39740   1.40212   1.42743   1.43770   1.46898
 Alpha virt. eigenvalues --    1.47599   1.49644   1.51469   1.52929   1.54370
 Alpha virt. eigenvalues --    1.55349   1.57096   1.58033   1.58483   1.60058
 Alpha virt. eigenvalues --    1.62245   1.63421   1.64515   1.65774   1.67078
 Alpha virt. eigenvalues --    1.68774   1.70726   1.73013   1.74234   1.75383
 Alpha virt. eigenvalues --    1.77443   1.78965   1.80272   1.81930   1.83869
 Alpha virt. eigenvalues --    1.85452   1.86346   1.89201   1.89923   1.92995
 Alpha virt. eigenvalues --    1.94721   1.96765   1.98131   1.98762   1.99452
 Alpha virt. eigenvalues --    2.00960   2.02446   2.04217   2.07651   2.12715
 Alpha virt. eigenvalues --    2.16780   2.22001   2.23526   2.27648   2.27991
 Alpha virt. eigenvalues --    2.32125   2.32937   2.34209   2.35019   2.35753
 Alpha virt. eigenvalues --    2.35935   2.38330   2.39175   2.42982   2.44062
 Alpha virt. eigenvalues --    2.45152   2.47408   2.49430   2.52158   2.53350
 Alpha virt. eigenvalues --    2.55606   2.56580   2.61397   2.63277   2.64800
 Alpha virt. eigenvalues --    2.67491   2.68767   2.70063   2.74499   2.75681
 Alpha virt. eigenvalues --    2.76007   2.77220   2.79621   2.81132   2.81538
 Alpha virt. eigenvalues --    2.82465   2.83321   2.84951   2.86630   2.86757
 Alpha virt. eigenvalues --    2.89338   2.91363   2.92294   2.93562   2.94149
 Alpha virt. eigenvalues --    2.94903   2.97317   2.98064   2.98632   2.99202
 Alpha virt. eigenvalues --    3.00356   3.00976   3.01529   3.05728   3.07177
 Alpha virt. eigenvalues --    3.07684   3.09290   3.09932   3.12646   3.13958
 Alpha virt. eigenvalues --    3.16998   3.17263   3.21938   3.24914   3.25386
 Alpha virt. eigenvalues --    3.27317   3.29847   3.30285   3.32681   3.35522
 Alpha virt. eigenvalues --    3.36467   3.37811   3.38873   3.41971   3.42385
 Alpha virt. eigenvalues --    3.42917   3.43953   3.46318   3.47157   3.48800
 Alpha virt. eigenvalues --    3.50700   3.51647   3.57801   3.58664   3.61188
 Alpha virt. eigenvalues --    3.62416   3.63150   3.63571   3.66175   3.69671
 Alpha virt. eigenvalues --    3.70642   3.71058   3.72857   3.75168   3.77713
 Alpha virt. eigenvalues --    3.80663   3.82677   3.86434   3.88733   3.89404
 Alpha virt. eigenvalues --    3.90306   3.94419   3.96267   3.97636   3.99688
 Alpha virt. eigenvalues --    4.02372   4.04884   4.08067   4.09430   4.13888
 Alpha virt. eigenvalues --    4.15947   4.19831   4.20963   4.22956   4.28281
 Alpha virt. eigenvalues --    4.31466   4.33744   4.36517   4.38815   4.41031
 Alpha virt. eigenvalues --    4.42170   4.42872   4.43852   4.45635   4.46777
 Alpha virt. eigenvalues --    4.48645   4.50175   4.50751   4.52033   4.53673
 Alpha virt. eigenvalues --    4.55027   4.55549   4.57284   4.59475   4.61282
 Alpha virt. eigenvalues --    4.62948   4.63855   4.64649   4.67284   4.67683
 Alpha virt. eigenvalues --    4.67996   4.70078   4.70507   4.71267   4.72286
 Alpha virt. eigenvalues --    4.75320   4.76515   4.76823   4.78209   4.80764
 Alpha virt. eigenvalues --    4.81218   4.82624   4.83900   4.84262   4.85654
 Alpha virt. eigenvalues --    4.87529   4.89230   4.89734   4.89922   4.93566
 Alpha virt. eigenvalues --    4.94951   4.97350   4.99492   5.01343   5.02667
 Alpha virt. eigenvalues --    5.03005   5.06477   5.07528   5.11531   5.11687
 Alpha virt. eigenvalues --    5.19331   5.20553   5.22416   5.23726   5.30019
 Alpha virt. eigenvalues --    5.31097   5.33560   5.38700   5.40322   5.41501
 Alpha virt. eigenvalues --    5.46624   5.48034   5.52362   5.53455   5.58588
 Alpha virt. eigenvalues --    5.61297   5.64529   5.65817   5.71786   5.83145
 Alpha virt. eigenvalues --    5.92444   5.98528   6.04454   6.17565   6.53989
 Alpha virt. eigenvalues --    7.06589   7.08252  11.05862  11.33849  11.47450
 Alpha virt. eigenvalues --   11.60057  11.86958  11.93439  12.28935  12.38674
 Alpha virt. eigenvalues --   12.74958  13.18652  13.26754  14.72442
          Condensed to atoms (all electrons):
               1          2          3          4          5          6
     1  C    4.957705   0.379521  -0.075415  -0.004407   0.000186  -0.000003
     2  N    0.379521   6.459675   0.335968  -0.035879   0.004310  -0.000062
     3  C   -0.075415   0.335968   4.675091   0.252230  -0.017434   0.004246
     4  C   -0.004407  -0.035879   0.252230   5.266456   0.353942  -0.043440
     5  C    0.000186   0.004310  -0.017434   0.353942   4.821513   0.340661
     6  O   -0.000003  -0.000062   0.004246  -0.043440   0.340661   7.853017
     7  C   -0.008485  -0.026494   0.335881  -0.048768  -0.004645   0.000042
     8  C    0.000095   0.000270  -0.050955   0.008464   0.001265   0.000006
     9  C    0.000010   0.000034  -0.000094   0.003426  -0.008088   0.000169
    10  C    0.004309  -0.031087   0.388164  -0.043414  -0.002144   0.000056
    11  C   -0.000152   0.001465  -0.028381  -0.006352  -0.003855   0.000038
    12  H    0.377471  -0.021342   0.002557   0.000417   0.000001  -0.000000
    13  H    0.359055  -0.047294   0.009118  -0.005237  -0.001090   0.000021
    14  H    0.383512  -0.026755  -0.005464   0.000327   0.000030  -0.000000
    15  H   -0.045458   0.334748  -0.052387  -0.005594   0.000078  -0.000003
    16  H   -0.001146  -0.007725  -0.004192   0.335366  -0.030152   0.005262
    17  H    0.000648  -0.002309  -0.007308   0.334117  -0.033682  -0.000729
    18  H   -0.000010  -0.000000   0.005083  -0.052140   0.379031  -0.029548
    19  H    0.000023  -0.000106  -0.003454  -0.028897   0.359789  -0.014956
    20  H    0.000000  -0.000006  -0.000081  -0.000664  -0.069084   0.312082
    21  H   -0.000369  -0.001966  -0.004185   0.004033   0.000045   0.000000
    22  H   -0.000046   0.001229  -0.021896  -0.003740  -0.000821  -0.000006
    23  H    0.000024  -0.000385   0.005075  -0.000290  -0.000159   0.000000
    24  H    0.000002  -0.000029   0.002499  -0.003579   0.000350  -0.000056
    25  H   -0.000000   0.000001  -0.000301   0.000013  -0.000052  -0.000003
    26  H   -0.000001   0.000001  -0.000041   0.000016   0.000003  -0.000003
    27  H    0.000125   0.002433  -0.025531   0.004583  -0.000059   0.000001
    28  H    0.000001  -0.000063  -0.006411  -0.000421  -0.001855  -0.000124
    29  H   -0.000028   0.000349  -0.002277   0.000516   0.000246  -0.000002
    30  H    0.000003  -0.000029   0.003354  -0.000053   0.000056  -0.000001
               7          8          9         10         11         12
     1  C   -0.008485   0.000095   0.000010   0.004309  -0.000152   0.377471
     2  N   -0.026494   0.000270   0.000034  -0.031087   0.001465  -0.021342
     3  C    0.335881  -0.050955  -0.000094   0.388164  -0.028381   0.002557
     4  C   -0.048768   0.008464   0.003426  -0.043414  -0.006352   0.000417
     5  C   -0.004645   0.001265  -0.008088  -0.002144  -0.003855   0.000001
     6  O    0.000042   0.000006   0.000169   0.000056   0.000038  -0.000000
     7  C    5.111868   0.359940  -0.031380  -0.092779   0.008721   0.000160
     8  C    0.359940   4.705944   0.410441   0.372811  -0.032531  -0.000013
     9  C   -0.031380   0.410441   5.039669  -0.024113  -0.009442   0.000000
    10  C   -0.092779   0.372811  -0.024113   4.815470   0.363690  -0.000176
    11  C    0.008721  -0.032531  -0.009442   0.363690   5.080435   0.000003
    12  H    0.000160  -0.000013   0.000000  -0.000176   0.000003   0.603559
    13  H   -0.000759  -0.000055  -0.000003   0.000279   0.000007  -0.040578
    14  H    0.007124   0.000299   0.000005   0.000063  -0.000009  -0.028970
    15  H    0.007328  -0.000151   0.000008   0.000309   0.000372  -0.003206
    16  H   -0.004707  -0.000184  -0.000136   0.005113  -0.000155  -0.000325
    17  H    0.005145  -0.000198  -0.000106  -0.008825   0.003533  -0.000067
    18  H   -0.000582  -0.000602  -0.007309   0.001684  -0.002726   0.000000
    19  H    0.003586  -0.000718  -0.003706  -0.000415   0.000292  -0.000000
    20  H    0.000010  -0.000001  -0.000017   0.000003   0.000045  -0.000000
    21  H    0.341065  -0.011423   0.004250  -0.002607  -0.000167  -0.000142
    22  H    0.341925  -0.027439  -0.007640   0.007769  -0.000553   0.000005
    23  H   -0.035367   0.358906  -0.059048  -0.032490   0.003364  -0.000001
    24  H   -0.004246  -0.027031   0.366647  -0.003502  -0.000014  -0.000000
    25  H    0.004340  -0.020819   0.367808  -0.004445   0.002011  -0.000000
    26  H   -0.004094  -0.018947   0.370052   0.003666   0.000004   0.000000
    27  H    0.004487  -0.025693   0.004469   0.347886  -0.053476  -0.000032
    28  H    0.000926  -0.008784   0.003219  -0.019651   0.368040  -0.000000
    29  H   -0.000251   0.004702   0.000033  -0.022095   0.367428   0.000001
    30  H   -0.000271  -0.003475   0.000153  -0.016003   0.367394  -0.000000
              13         14         15         16         17         18
     1  C    0.359055   0.383512  -0.045458  -0.001146   0.000648  -0.000010
     2  N   -0.047294  -0.026755   0.334748  -0.007725  -0.002309  -0.000000
     3  C    0.009118  -0.005464  -0.052387  -0.004192  -0.007308   0.005083
     4  C   -0.005237   0.000327  -0.005594   0.335366   0.334117  -0.052140
     5  C   -0.001090   0.000030   0.000078  -0.030152  -0.033682   0.379031
     6  O    0.000021  -0.000000  -0.000003   0.005262  -0.000729  -0.029548
     7  C   -0.000759   0.007124   0.007328  -0.004707   0.005145  -0.000582
     8  C   -0.000055   0.000299  -0.000151  -0.000184  -0.000198  -0.000602
     9  C   -0.000003   0.000005   0.000008  -0.000136  -0.000106  -0.007309
    10  C    0.000279   0.000063   0.000309   0.005113  -0.008825   0.001684
    11  C    0.000007  -0.000009   0.000372  -0.000155   0.003533  -0.002726
    12  H   -0.040578  -0.028970  -0.003206  -0.000325  -0.000067   0.000000
    13  H    0.673943  -0.050049  -0.004868   0.008428   0.000343  -0.000006
    14  H   -0.050049   0.591065   0.006153   0.000637   0.000043   0.000001
    15  H   -0.004868   0.006153   0.552840  -0.000016   0.006013   0.000006
    16  H    0.008428   0.000637  -0.000016   0.618672  -0.045648   0.007638
    17  H    0.000343   0.000043   0.006013  -0.045648   0.659612  -0.007965
    18  H   -0.000006   0.000001   0.000006   0.007638  -0.007965   0.641992
    19  H    0.000059  -0.000007   0.000005  -0.007570   0.006517  -0.047611
    20  H    0.000004   0.000000  -0.000001  -0.000667   0.005657  -0.007283
    21  H    0.000503   0.000267  -0.000062  -0.000031  -0.000100  -0.000013
    22  H    0.000312  -0.000438  -0.000249   0.001583  -0.000072   0.000067
    23  H    0.000000   0.000008   0.000029   0.000009   0.000008   0.000011
    24  H   -0.000002   0.000001   0.000004   0.000184   0.000137   0.007544
    25  H    0.000000  -0.000000  -0.000001  -0.000000  -0.000001   0.000587
    26  H    0.000000  -0.000000  -0.000000   0.000002  -0.000001   0.000033
    27  H    0.000064  -0.000087   0.000070  -0.000104   0.000039  -0.000023
    28  H   -0.000001   0.000000   0.000037  -0.000004   0.000455   0.010544
    29  H    0.000002   0.000000   0.000149  -0.000003   0.000797  -0.000077
    30  H   -0.000000   0.000000  -0.000015   0.000002  -0.000076   0.000003
              19         20         21         22         23         24
     1  C    0.000023   0.000000  -0.000369  -0.000046   0.000024   0.000002
     2  N   -0.000106  -0.000006  -0.001966   0.001229  -0.000385  -0.000029
     3  C   -0.003454  -0.000081  -0.004185  -0.021896   0.005075   0.002499
     4  C   -0.028897  -0.000664   0.004033  -0.003740  -0.000290  -0.003579
     5  C    0.359789  -0.069084   0.000045  -0.000821  -0.000159   0.000350
     6  O   -0.014956   0.312082   0.000000  -0.000006   0.000000  -0.000056
     7  C    0.003586   0.000010   0.341065   0.341925  -0.035367  -0.004246
     8  C   -0.000718  -0.000001  -0.011423  -0.027439   0.358906  -0.027031
     9  C   -0.003706  -0.000017   0.004250  -0.007640  -0.059048   0.366647
    10  C   -0.000415   0.000003  -0.002607   0.007769  -0.032490  -0.003502
    11  C    0.000292   0.000045  -0.000167  -0.000553   0.003364  -0.000014
    12  H   -0.000000  -0.000000  -0.000142   0.000005  -0.000001  -0.000000
    13  H    0.000059   0.000004   0.000503   0.000312   0.000000  -0.000002
    14  H   -0.000007   0.000000   0.000267  -0.000438   0.000008   0.000001
    15  H    0.000005  -0.000001  -0.000062  -0.000249   0.000029   0.000004
    16  H   -0.007570  -0.000667  -0.000031   0.001583   0.000009   0.000184
    17  H    0.006517   0.005657  -0.000100  -0.000072   0.000008   0.000137
    18  H   -0.047611  -0.007283  -0.000013   0.000067   0.000011   0.007544
    19  H    0.602802   0.006961  -0.000046   0.002033   0.000016   0.003308
    20  H    0.006961   0.474109   0.000000   0.000001  -0.000000  -0.000032
    21  H   -0.000046   0.000000   0.601563  -0.041043  -0.009979  -0.000067
    22  H    0.002033   0.000001  -0.041043   0.657192   0.003436   0.000921
    23  H    0.000016  -0.000000  -0.009979   0.003436   0.718255   0.007209
    24  H    0.003308  -0.000032  -0.000067   0.000921   0.007209   0.591643
    25  H   -0.000011   0.000001  -0.000148  -0.000002  -0.003870  -0.033646
    26  H    0.000497  -0.000000   0.000040   0.002517  -0.004290  -0.033841
    27  H    0.000000  -0.000000   0.002718  -0.000366  -0.011483  -0.000142
    28  H   -0.000056  -0.000031  -0.000008  -0.000019  -0.000166  -0.001021
    29  H   -0.000001  -0.000005   0.000013   0.000011  -0.000157  -0.000025
    30  H   -0.000007  -0.000001   0.000001   0.000013   0.000998   0.000255
              25         26         27         28         29         30
     1  C   -0.000000  -0.000001   0.000125   0.000001  -0.000028   0.000003
     2  N    0.000001   0.000001   0.002433  -0.000063   0.000349  -0.000029
     3  C   -0.000301  -0.000041  -0.025531  -0.006411  -0.002277   0.003354
     4  C    0.000013   0.000016   0.004583  -0.000421   0.000516  -0.000053
     5  C   -0.000052   0.000003  -0.000059  -0.001855   0.000246   0.000056
     6  O   -0.000003  -0.000003   0.000001  -0.000124  -0.000002  -0.000001
     7  C    0.004340  -0.004094   0.004487   0.000926  -0.000251  -0.000271
     8  C   -0.020819  -0.018947  -0.025693  -0.008784   0.004702  -0.003475
     9  C    0.367808   0.370052   0.004469   0.003219   0.000033   0.000153
    10  C   -0.004445   0.003666   0.347886  -0.019651  -0.022095  -0.016003
    11  C    0.002011   0.000004  -0.053476   0.368040   0.367428   0.367394
    12  H   -0.000000   0.000000  -0.000032  -0.000000   0.000001  -0.000000
    13  H    0.000000   0.000000   0.000064  -0.000001   0.000002  -0.000000
    14  H   -0.000000  -0.000000  -0.000087   0.000000   0.000000   0.000000
    15  H   -0.000001  -0.000000   0.000070   0.000037   0.000149  -0.000015
    16  H   -0.000000   0.000002  -0.000104  -0.000004  -0.000003   0.000002
    17  H   -0.000001  -0.000001   0.000039   0.000455   0.000797  -0.000076
    18  H    0.000587   0.000033  -0.000023   0.010544  -0.000077   0.000003
    19  H   -0.000011   0.000497   0.000000  -0.000056  -0.000001  -0.000007
    20  H    0.000001  -0.000000  -0.000000  -0.000031  -0.000005  -0.000001
    21  H   -0.000148   0.000040   0.002718  -0.000008   0.000013   0.000001
    22  H   -0.000002   0.002517  -0.000366  -0.000019   0.000011   0.000013
    23  H   -0.003870  -0.004290  -0.011483  -0.000166  -0.000157   0.000998
    24  H   -0.033646  -0.033841  -0.000142  -0.001021  -0.000025   0.000255
    25  H    0.607912  -0.031037   0.000038   0.000631  -0.000047   0.000619
    26  H   -0.031037   0.602388  -0.000109  -0.000046   0.000000  -0.000014
    27  H    0.000038  -0.000109   0.664214   0.006222  -0.002880  -0.004073
    28  H    0.000631  -0.000046   0.006222   0.603630  -0.035364  -0.032802
    29  H   -0.000047   0.000000  -0.002880  -0.035364   0.614836  -0.031759
    30  H    0.000619  -0.000014  -0.004073  -0.032802  -0.031759   0.601037
 Mulliken charges:
               1
     1  C   -0.327172
     2  N   -0.318473
     3  C    0.286541
     4  C   -0.281032
     5  C   -0.088383
     6  O   -0.426666
     7  C   -0.269720
     8  C    0.005875
     9  C   -0.419307
    10  C   -0.007528
    11  C   -0.429030
    12  H    0.110680
    13  H    0.097805
    14  H    0.122244
    15  H    0.203861
    16  H    0.119868
    17  H    0.084020
    18  H    0.101672
    19  H    0.121674
    20  H    0.279001
    21  H    0.117858
    22  H    0.085315
    23  H    0.060336
    24  H    0.126530
    25  H    0.110421
    26  H    0.113205
    27  H    0.086706
    28  H    0.113122
    29  H    0.105888
    30  H    0.114688
 Sum of Mulliken charges =  -0.00000
 Mulliken charges with hydrogens summed into heavy atoms:
               1
     1  C    0.003557
     2  N   -0.114612
     3  C    0.286541
     4  C   -0.077144
     5  C    0.134963
     6  O   -0.147665
     7  C   -0.066547
     8  C    0.066211
     9  C   -0.069151
    10  C    0.079179
    11  C   -0.095333
 Electronic spatial extent (au):  <R**2>=           1993.0850
 Charge=             -0.0000 electrons
 Dipole moment (field-independent basis, Debye):
    X=              0.0038    Y=             -0.2338    Z=              1.2843  Tot=              1.3054
 Quadrupole moment (field-independent basis, Debye-Ang):
   XX=            -71.6482   YY=            -75.2256   ZZ=            -67.3464
   XY=              3.5202   XZ=             -1.7752   YZ=              5.2076
 Traceless Quadrupole moment (field-independent basis, Debye-Ang):
   XX=             -0.2415   YY=             -3.8189   ZZ=              4.0603
   XY=              3.5202   XZ=             -1.7752   YZ=              5.2076
 Octapole moment (field-independent basis, Debye-Ang**2):
  XXX=              1.1886  YYY=             -6.2978  ZZZ=              2.4145  XYY=              4.2303
  XXY=              7.6578  XXZ=              5.0049  XZZ=              1.3078  YZZ=              9.8318
  YYZ=             16.5384  XYZ=             -4.3007
 Hexadecapole moment (field-independent basis, Debye-Ang**3):
 XXXX=          -1128.3559 YYYY=          -1046.3874 ZZZZ=           -481.3881 XXXY=             -0.4693
 XXXZ=             -1.6794 YYYX=              0.3998 YYYZ=             50.0446 ZZZX=             14.8110
 ZZZY=              5.6976 XXYY=           -369.3343 XXZZ=           -261.8093 YYZZ=           -231.8516
 XXYZ=             18.6536 YYXZ=            -28.8178 ZZXY=            -12.7571
 N-N= 6.955744898609D+02 E-N=-2.516271419850D+03  KE= 4.805096397357D+02
 PrsmSu:  requested number of processors reduced to:  13 ShMem   1 Linda.
 Calling FoFJK, ICntrl=      2127 FMM=F ISym2X=0 I1Cent= 0 IOpClX= 0 NMat=1 NMatS=1 NMatT=0.
 ***** Axes restored to original set *****
 -------------------------------------------------------------------
 Center     Atomic                   Forces (Hartrees/Bohr)
 Number     Number              X              Y              Z
 -------------------------------------------------------------------
      1        6           0.004216274   -0.008970681    0.005816543
      2        7          -0.016213785    0.000109480    0.002433654
      3        6           0.015688696   -0.014219230    0.060490538
      4        6          -0.001330457    0.014348349    0.000564017
      5        6           0.002814600   -0.014633003   -0.014018674
      6        8          -0.005693007   -0.003036920   -0.006182254
      7        6          -0.005597512    0.005277958   -0.025202569
      8        6           0.004174876    0.012394209    0.023570215
      9        6           0.002107284   -0.003652843   -0.002667575
     10        6           0.006013130    0.008606447   -0.027920313
     11        6           0.001268740   -0.003283551   -0.000623322
     12        1           0.001746262    0.001425770    0.003072249
     13        1          -0.004957516    0.000108926   -0.003787549
     14        1           0.002504666    0.001401425   -0.000231835
     15        1           0.000900990    0.004464423   -0.005193038
     16        1          -0.001097213    0.000433533    0.004191410
     17        1           0.004308768    0.001717220    0.002442282
     18        1           0.003729192    0.008907387    0.003376389
     19        1           0.000398431   -0.000131535   -0.003758783
     20        1          -0.004112872    0.003033110   -0.000377325
     21        1           0.000413449   -0.012578780   -0.006898874
     22        1          -0.001584519    0.003105993   -0.003248241
     23        1          -0.000747377   -0.002118880    0.000022404
     24        1          -0.001734295   -0.003249660   -0.003822320
     25        1           0.001542449    0.003007986    0.001323611
     26        1           0.001770211    0.002599356    0.004012213
     27        1          -0.014145287   -0.002209867   -0.005689125
     28        1           0.000091935   -0.000396677   -0.002960071
     29        1           0.002579037   -0.001712927   -0.000295421
     30        1           0.000944851   -0.000747019    0.001561762
 -------------------------------------------------------------------
 Cartesian Forces:  Max     0.060490538 RMS     0.009675375

 GradGradGradGradGradGradGradGradGradGradGradGradGradGradGradGradGradGrad
 Berny optimization.
 FormGI is forming the generalized inverse of G from B-inverse, IUseBI=4.
 Internal  Forces:  Max     0.027603787 RMS     0.005136235
 Search for a local minimum.
 Step number   1 out of a maximum of  180
 All quantities printed in internal units (Hartrees-Bohrs-Radians)
 Mixed Optimization -- RFO/linear search
 Second derivative matrix not updated -- first step.
 ITU=  0
     Eigenvalues ---    0.00328   0.00365   0.00458   0.00470   0.00538
     Eigenvalues ---    0.00675   0.00755   0.01369   0.02272   0.02500
     Eigenvalues ---    0.02574   0.02876   0.03146   0.03221   0.03398
     Eigenvalues ---    0.04060   0.04591   0.04771   0.04868   0.05162
     Eigenvalues ---    0.05262   0.05394   0.05458   0.05489   0.05677
     Eigenvalues ---    0.05717   0.06146   0.06195   0.06840   0.07284
     Eigenvalues ---    0.07306   0.08124   0.09294   0.09986   0.10381
     Eigenvalues ---    0.10924   0.11570   0.11848   0.12851   0.13729
     Eigenvalues ---    0.16000   0.16000   0.16000   0.16000   0.16000
     Eigenvalues ---    0.16000   0.16000   0.16000   0.16000   0.16000
     Eigenvalues ---    0.18319   0.21525   0.21947   0.22089   0.23294
     Eigenvalues ---    0.23303   0.24983   0.26110   0.29142   0.30140
     Eigenvalues ---    0.30633   0.31670   0.33076   0.33093   0.33268
     Eigenvalues ---    0.33600   0.33912   0.34248   0.34363   0.34366
     Eigenvalues ---    0.34388   0.34409   0.34423   0.34437   0.34499
     Eigenvalues ---    0.34603   0.34698   0.34999   0.35142   0.35639
     Eigenvalues ---    0.36159   0.41804   0.44138   0.54082
 RFO step:  Lambda=-3.32507634D-02 EMin= 3.28462572D-03
 Linear search not attempted -- first point.
 Maximum step size (   0.300) exceeded in Quadratic search.
    -- Step size scaled by   0.962
 Iteration  1 RMS(Cart)=  0.14352333 RMS(Int)=  0.00496719
 Iteration  2 RMS(Cart)=  0.00898805 RMS(Int)=  0.00102956
 Iteration  3 RMS(Cart)=  0.00003583 RMS(Int)=  0.00102945
 Iteration  4 RMS(Cart)=  0.00000002 RMS(Int)=  0.00102945
 Variable       Old X    -DE/DX   Delta X   Delta X   Delta X     New X
                                 (Linear)    (Quad)   (Total)
    R1        2.77950  -0.00269   0.00000  -0.00664  -0.00664   2.77286
    R2        2.06717   0.00106   0.00000   0.00270   0.00270   2.06987
    R3        2.06599   0.00524   0.00000   0.01336   0.01336   2.07935
    R4        2.06645   0.00019   0.00000   0.00047   0.00047   2.06693
    R5        2.82189   0.00560   0.00000   0.01479   0.01479   2.83668
    R6        1.92989  -0.00378   0.00000  -0.00766  -0.00766   1.92223
    R7        2.89709   0.00599   0.00000   0.01774   0.01774   2.91483
    R8        2.97341  -0.00416   0.00000  -0.01346  -0.01336   2.96005
    R9        3.01078  -0.00280   0.00000  -0.01183  -0.01190   2.99888
   R10        2.84753   0.01570   0.00000   0.04317   0.04317   2.89070
   R11        2.06495   0.00104   0.00000   0.00264   0.00264   2.06759
   R12        2.07478   0.00049   0.00000   0.00126   0.00126   2.07604
   R13        2.69173   0.00789   0.00000   0.01682   0.01682   2.70855
   R14        2.05444   0.00447   0.00000   0.01118   0.01118   2.06563
   R15        2.06324  -0.00010   0.00000  -0.00025  -0.00025   2.06299
   R16        1.82657  -0.00496   0.00000  -0.00832  -0.00832   1.81826
   R17        2.93453   0.00198   0.00000   0.01206   0.01228   2.94681
   R18        2.08584  -0.00939   0.00000  -0.02470  -0.02470   2.06114
   R19        2.06168   0.00407   0.00000   0.01030   0.01030   2.07198
   R20        2.87686   0.00100   0.00000   0.00288   0.00288   2.87975
   R21        2.97071   0.00169   0.00000   0.00117   0.00091   2.97162
   R22        2.08010  -0.00169   0.00000  -0.00440  -0.00440   2.07571
   R23        2.03833   0.00529   0.00000   0.01290   0.01290   2.05123
   R24        2.06622   0.00165   0.00000   0.00420   0.00420   2.07042
   R25        2.06679   0.00116   0.00000   0.00296   0.00296   2.06975
   R26        2.86720   0.00738   0.00000   0.02090   0.02090   2.88810
   R27        2.08918  -0.00930   0.00000  -0.02459  -0.02459   2.06459
   R28        2.05677   0.00290   0.00000   0.00728   0.00728   2.06405
   R29        2.06721   0.00189   0.00000   0.00484   0.00484   2.07205
   R30        2.06913   0.00071   0.00000   0.00181   0.00181   2.07094
    A1        1.91718  -0.00260   0.00000  -0.01208  -0.01246   1.90472
    A2        1.98468   0.00603   0.00000   0.03453   0.03456   2.01924
    A3        1.94928  -0.00554   0.00000  -0.03297  -0.03309   1.91619
    A4        1.83952   0.00154   0.00000   0.01807   0.01787   1.85739
    A5        1.88016   0.00141   0.00000  -0.00199  -0.00255   1.87761
    A6        1.88715  -0.00057   0.00000  -0.00418  -0.00393   1.88322
    A7        1.94727   0.02350   0.00000   0.08751   0.08748   2.03475
    A8        1.88071  -0.00388   0.00000   0.00414   0.00495   1.88566
    A9        1.96723  -0.01089   0.00000  -0.04783  -0.04880   1.91843
   A10        1.89529  -0.00112   0.00000  -0.00180  -0.00235   1.89294
   A11        1.86156   0.00567   0.00000   0.04085   0.04120   1.90276
   A12        1.86436   0.00275   0.00000   0.02049   0.02058   1.88494
   A13        2.20254  -0.00643   0.00000  -0.05753  -0.05654   2.14600
   A14        2.09953  -0.00065   0.00000  -0.00574  -0.00474   2.09480
   A15        1.49089   0.00172   0.00000   0.01805   0.01480   1.50569
   A16        2.05464   0.02760   0.00000   0.10870   0.10914   2.16378
   A17        1.93177  -0.01017   0.00000  -0.04871  -0.04978   1.88199
   A18        1.90879  -0.01070   0.00000  -0.04781  -0.04876   1.86003
   A19        1.81444  -0.00635   0.00000  -0.01128  -0.01025   1.80419
   A20        1.90661  -0.00752   0.00000  -0.01847  -0.01767   1.88894
   A21        1.83361   0.00539   0.00000   0.01004   0.00834   1.84194
   A22        1.91128   0.00425   0.00000   0.02194   0.02133   1.93262
   A23        1.96327  -0.00191   0.00000   0.00095  -0.00018   1.96310
   A24        1.92537   0.00166   0.00000  -0.00193  -0.00189   1.92347
   A25        1.84631   0.00515   0.00000   0.05469   0.05405   1.90036
   A26        1.88073  -0.00656   0.00000  -0.04682  -0.04654   1.83419
   A27        1.93344  -0.00262   0.00000  -0.02834  -0.02799   1.90545
   A28        1.85990   0.00219   0.00000   0.01090   0.01090   1.87079
   A29        1.56330   0.00425   0.00000   0.04439   0.03779   1.60109
   A30        2.00267  -0.01142   0.00000  -0.11117  -0.11017   1.89250
   A31        2.04198   0.00442   0.00000   0.04473   0.04506   2.08704
   A32        1.91614  -0.00308   0.00000  -0.02023  -0.01829   1.89786
   A33        2.05472   0.00182   0.00000   0.02368   0.02294   2.07766
   A34        1.87358   0.00298   0.00000   0.01328   0.01292   1.88650
   A35        2.07144   0.00070   0.00000  -0.00262  -0.00085   2.07059
   A36        1.51572  -0.00161   0.00000   0.00629   0.00286   1.51858
   A37        1.94751   0.00221   0.00000   0.01729   0.01776   1.96527
   A38        2.14262  -0.00131   0.00000  -0.02284  -0.02162   2.12100
   A39        1.83132  -0.00145   0.00000  -0.00708  -0.00815   1.82317
   A40        1.94538   0.00211   0.00000   0.01505   0.01572   1.96110
   A41        1.99808   0.00150   0.00000   0.01429   0.01432   2.01240
   A42        1.93694  -0.00035   0.00000  -0.00441  -0.00468   1.93226
   A43        1.93872  -0.00459   0.00000  -0.02688  -0.02704   1.91168
   A44        1.84815   0.00099   0.00000   0.01246   0.01240   1.86055
   A45        1.83621   0.00291   0.00000   0.01965   0.01978   1.85600
   A46        1.89972  -0.00014   0.00000  -0.01365  -0.01412   1.88559
   A47        1.53904   0.00379   0.00000   0.04629   0.04019   1.57923
   A48        2.12132   0.00411   0.00000   0.03213   0.03190   2.15322
   A49        1.96598  -0.01122   0.00000  -0.10952  -0.10852   1.85746
   A50        2.06543   0.00026   0.00000   0.02982   0.02986   2.09529
   A51        1.89682  -0.00414   0.00000  -0.04124  -0.04029   1.85653
   A52        1.85710   0.00514   0.00000   0.02928   0.02872   1.88583
   A53        1.97119   0.00084   0.00000   0.00621   0.00617   1.97736
   A54        1.92803   0.00291   0.00000   0.01402   0.01399   1.94202
   A55        1.93272  -0.00094   0.00000  -0.00626  -0.00623   1.92649
   A56        1.88016  -0.00142   0.00000  -0.00415  -0.00425   1.87591
   A57        1.86131   0.00029   0.00000   0.00234   0.00235   1.86366
   A58        1.88702  -0.00190   0.00000  -0.01344  -0.01341   1.87361
    D1        3.04147   0.00242   0.00000   0.03248   0.03292   3.07439
    D2        0.87318   0.00342   0.00000   0.03241   0.03166   0.90484
    D3        0.98496  -0.00160   0.00000  -0.00419  -0.00377   0.98120
    D4       -1.18333  -0.00060   0.00000  -0.00426  -0.00502  -1.18835
    D5       -1.15669  -0.00108   0.00000   0.00093   0.00184  -1.15484
    D6        2.95821  -0.00009   0.00000   0.00086   0.00059   2.95879
    D7       -1.18435  -0.00132   0.00000  -0.02290  -0.02224  -1.20659
    D8        1.23607  -0.00610   0.00000  -0.06712  -0.06564   1.17044
    D9        2.81029  -0.00168   0.00000  -0.02895  -0.02940   2.78089
   D10        0.93446   0.00300   0.00000   0.01215   0.01167   0.94614
   D11       -2.92830  -0.00177   0.00000  -0.03208  -0.03172  -2.96002
   D12       -1.35409   0.00265   0.00000   0.00609   0.00451  -1.34957
   D13        3.06040  -0.00091   0.00000  -0.02805  -0.02792   3.03249
   D14        0.97788  -0.00419   0.00000  -0.05235  -0.05105   0.92684
   D15       -1.03412   0.00130   0.00000  -0.00897  -0.00966  -1.04378
   D16        0.81962  -0.00215   0.00000  -0.03312  -0.03416   0.78546
   D17       -1.26290  -0.00542   0.00000  -0.05742  -0.05729  -1.32019
   D18        3.00828   0.00006   0.00000  -0.01404  -0.01591   2.99237
   D19       -1.06950   0.00140   0.00000  -0.00553  -0.00496  -1.07446
   D20        3.13116  -0.00188   0.00000  -0.02983  -0.02809   3.10307
   D21        1.11916   0.00361   0.00000   0.01355   0.01329   1.13245
   D22        2.26513  -0.00562   0.00000  -0.10453  -0.10531   2.15982
   D23        0.31607  -0.00228   0.00000  -0.08439  -0.08344   0.23264
   D24       -1.90234   0.00033   0.00000  -0.03736  -0.03685  -1.93919
   D25       -1.76393  -0.00697   0.00000  -0.11535  -0.11658  -1.88051
   D26        2.57020  -0.00363   0.00000  -0.09521  -0.09470   2.47550
   D27        0.35179  -0.00102   0.00000  -0.04818  -0.04812   0.30367
   D28        0.41154  -0.00901   0.00000  -0.13127  -0.13252   0.27902
   D29       -1.53752  -0.00568   0.00000  -0.11113  -0.11065  -1.64817
   D30        2.52725  -0.00306   0.00000  -0.06409  -0.06406   2.46319
   D31       -2.25712   0.00244   0.00000   0.08033   0.08175  -2.17537
   D32        1.88746  -0.00202   0.00000  -0.00036  -0.00047   1.88699
   D33       -0.34583  -0.00172   0.00000   0.04287   0.04212  -0.30371
   D34        1.85803   0.00198   0.00000   0.06851   0.06976   1.92779
   D35       -0.28057  -0.00248   0.00000  -0.01217  -0.01246  -0.29304
   D36       -2.51386  -0.00218   0.00000   0.03105   0.03013  -2.48373
   D37       -0.40643   0.00888   0.00000   0.12833   0.12993  -0.27650
   D38       -2.54503   0.00442   0.00000   0.04765   0.04770  -2.49733
   D39        1.50486   0.00472   0.00000   0.09087   0.09030   1.59516
   D40       -3.11692   0.00504   0.00000   0.05670   0.05669  -3.06024
   D41        1.11858  -0.00295   0.00000  -0.02613  -0.02630   1.09228
   D42       -1.04981   0.00061   0.00000   0.01161   0.01146  -1.03835
   D43       -0.97360   0.00439   0.00000   0.05369   0.05427  -0.91934
   D44       -3.02129  -0.00360   0.00000  -0.02914  -0.02872  -3.05001
   D45        1.09351  -0.00004   0.00000   0.00860   0.00904   1.10255
   D46        0.97653   0.00443   0.00000   0.05220   0.05194   1.02846
   D47       -1.07116  -0.00356   0.00000  -0.03063  -0.03105  -1.10221
   D48        3.04364  -0.00000   0.00000   0.00712   0.00671   3.05035
   D49       -1.23355  -0.00057   0.00000  -0.01536  -0.01613  -1.24968
   D50        0.88624   0.00251   0.00000   0.02996   0.03106   0.91730
   D51        2.95499  -0.00112   0.00000   0.00218   0.00184   2.95683
   D52        1.78225   0.00735   0.00000   0.11059   0.11119   1.89345
   D53       -0.41669   0.00970   0.00000   0.13454   0.13526  -0.28143
   D54       -2.36893   0.00786   0.00000   0.11403   0.11507  -2.25386
   D55       -2.47214  -0.00377   0.00000   0.00518   0.00470  -2.46743
   D56        1.61211  -0.00142   0.00000   0.02914   0.02877   1.64088
   D57       -0.34013  -0.00326   0.00000   0.00863   0.00858  -0.33155
   D58       -0.32245  -0.00094   0.00000   0.02422   0.02430  -0.29816
   D59       -2.52139   0.00141   0.00000   0.04818   0.04836  -2.47303
   D60        1.80955  -0.00044   0.00000   0.02767   0.02817   1.83772
   D61       -0.94636   0.00196   0.00000   0.01376   0.01488  -0.93149
   D62       -3.03708  -0.00014   0.00000  -0.00925  -0.00807  -3.04515
   D63        1.13013   0.00341   0.00000   0.02945   0.03036   1.16049
   D64        0.90561  -0.00073   0.00000   0.00320   0.00208   0.90769
   D65       -1.18511  -0.00282   0.00000  -0.01980  -0.02087  -1.20597
   D66        2.98210   0.00072   0.00000   0.01889   0.01756   2.99966
   D67       -3.13568  -0.00027   0.00000  -0.00155  -0.00140  -3.13708
   D68        1.05679  -0.00236   0.00000  -0.02456  -0.02435   1.03244
   D69       -1.05918   0.00118   0.00000   0.01414   0.01407  -1.04511
   D70        0.41141  -0.00981   0.00000  -0.13339  -0.13384   0.27756
   D71        2.59791  -0.00242   0.00000  -0.05550  -0.05457   2.54334
   D72       -1.56638   0.00122   0.00000  -0.02896  -0.02860  -1.59498
   D73       -1.72529  -0.00905   0.00000  -0.12688  -0.12763  -1.85293
   D74        0.46121  -0.00166   0.00000  -0.04899  -0.04836   0.41285
   D75        2.58010   0.00198   0.00000  -0.02245  -0.02239   2.55772
   D76        2.36574  -0.00786   0.00000  -0.11071  -0.11170   2.25403
   D77       -1.73095  -0.00047   0.00000  -0.03282  -0.03243  -1.76337
   D78        0.38795   0.00316   0.00000  -0.00628  -0.00645   0.38149
   D79        0.91366   0.00569   0.00000   0.07742   0.07679   0.99045
   D80       -1.19332   0.00486   0.00000   0.06849   0.06780  -1.12552
   D81        2.99981   0.00595   0.00000   0.08022   0.07957   3.07938
   D82       -0.95004  -0.00288   0.00000  -0.03502  -0.03388  -0.98392
   D83       -3.05702  -0.00371   0.00000  -0.04396  -0.04288  -3.09990
   D84        1.13611  -0.00261   0.00000  -0.03223  -0.03111   1.10500
   D85       -3.08905  -0.00180   0.00000  -0.02505  -0.02549  -3.11453
   D86        1.08716  -0.00262   0.00000  -0.03399  -0.03448   1.05268
   D87       -1.00290  -0.00153   0.00000  -0.02226  -0.02271  -1.02561
         Item               Value     Threshold  Converged?
 Maximum Force            0.027604     0.000450     NO 
 RMS     Force            0.005136     0.000300     NO 
 Maximum Displacement     0.523018     0.001800     NO 
 RMS     Displacement     0.145307     0.001200     NO 
 Predicted change in Energy=-2.284794D-02
 GradGradGradGradGradGradGradGradGradGradGradGradGradGradGradGradGradGrad

                          Input orientation:                          
 ---------------------------------------------------------------------
 Center     Atomic      Atomic             Coordinates (Angstroms)
 Number     Number       Type             X           Y           Z
 ---------------------------------------------------------------------
      1          6           0        0.998808    0.080754    0.331235
      2          7           0        2.440626    0.202442    0.087457
      3          6           0        2.852967    0.977785   -1.129978
      4          6           0        2.457743    0.167863   -2.381782
      5          6           0        2.588663    0.689359   -3.813865
      6          8           0        2.041290   -0.249960   -4.747896
      7          6           0        2.466647    2.482796   -0.931771
      8          6           0        3.938033    2.941019   -1.169968
      9          6           0        4.276931    3.663221   -2.468363
     10          6           0        4.356232    1.444538   -0.928197
     11          6           0        5.533061    0.844949   -1.697168
     12          1           0        0.835133   -0.560883    1.203734
     13          1           0        0.411201   -0.355610   -0.490389
     14          1           0        0.577733    1.063846    0.560496
     15          1           0        2.834174   -0.734839    0.051103
     16          1           0        1.395276   -0.079894   -2.298836
     17          1           0        2.989569   -0.791123   -2.315312
     18          1           0        3.625571    0.898718   -4.089219
     19          1           0        1.993905    1.595952   -3.940884
     20          1           0        2.643589   -0.999469   -4.783441
     21          1           0        2.216557    2.639239    0.118287
     22          1           0        1.667405    2.921183   -1.541051
     23          1           0        4.304871    3.610305   -0.380026
     24          1           0        3.981433    3.147681   -3.376733
     25          1           0        5.355872    3.837819   -2.544381
     26          1           0        3.773758    4.635855   -2.488462
     27          1           0        4.567557    1.352541    0.139747
     28          1           0        5.422144    0.916791   -2.781393
     29          1           0        5.671678   -0.214211   -1.449707
     30          1           0        6.462414    1.365203   -1.439046
 ---------------------------------------------------------------------
                    Distance matrix (angstroms):
                    1          2          3          4          5
     1  C    0.000000
     2  N    1.467336   0.000000
     3  C    2.525414   1.501109   0.000000
     4  C    3.081647   2.469540   1.542462   0.000000
     5  C    4.481060   3.934376   2.712250   1.529693   0.000000
     6  O    5.195548   4.872861   3.905830   2.438545   1.433301
     7  C    3.085376   2.497903   1.566393   2.731579   3.396729
     8  C    4.367353   3.364989   2.243492   3.368998   3.725717
     9  C    5.605168   4.677736   3.321222   3.941378   3.674844
    10  C    3.836453   2.498780   1.586940   2.710548   3.467229
    11  C    5.025720   3.627789   2.742673   3.222534   3.629614
[...]
 0.01404234,-0.02396624,-0.05394863,-0.10610324,-0.22744498,0.00008785,
 -0.00093002,0.00069248,0.00000038,0.00015346,-0.00043902,0.00000101,0.
 00000827,0.00000948,0.00003177,0.00003395,0.00000765,-0.00001743,0.000
 00586,0.00000118,-0.00002060,-0.00001464,-0.00005198,0.00000666,0.0000
 0463,0.00006089,-0.00000945,-0.00000715,0.00006031,-0.00075774,-0.0002
 5614,0.00038871,0.00029836,-0.00006333,0.00001707,-0.00002276,0.000029
 12,-0.00001605,0.00004637,-0.00023227,0.00036407,0.00093895,0.00014305
 ,0.00046291,0.00217434,0.00364870,-0.00392960,0.05914948,0.11721234,0.
 25116323,0.00006215,0.00007155,0.00000426,0.00014459,-0.00022420,0.000
 10171,-0.00035651,0.00026883,-0.00006294,0.00008226,0.00000218,0.00005
 582,-0.00004717,0.00009874,0.00010941,-0.00000560,-0.00013421,-0.00013
 921,0.00119730,0.00011785,0.00192141,-0.00901090,-0.00149548,-0.000343
 01,-0.30146017,-0.03389286,-0.00230964,0.00008374,0.00022371,0.0001641
 7,-0.00020598,0.00002814,0.00000045,-0.00000289,-0.00002673,0.00001789
 ,-0.00001300,-0.00001871,-0.00001410,0.00004700,0.00000037,-0.00002347
 ,-0.00005155,-0.00010877,0.00001455,0.00000212,-0.00000582,0.00000855,
 0.00001073,-0.00011867,-0.00003743,-0.00006661,0.00002721,-0.00001005,
 0.00012181,-0.00001407,0.00003847,-0.00002764,-0.00000659,0.00002802,-
 0.00043016,-0.00052224,0.00007315,0.00054956,0.00015076,0.00009647,0.0
 0056034,0.00020247,0.00050838,-0.00734176,-0.00022507,-0.00001510,0.32
 911970,-0.00001447,0.00007209,0.00001561,0.00017482,-0.00001486,0.0000
 1792,-0.00027406,0.00040569,-0.00042890,0.00009894,-0.00003020,0.00001
 837,0.00002670,0.00001591,-0.00002022,-0.00003249,-0.00013346,-0.00004
 877,-0.00074419,0.00009459,0.00373055,-0.01707865,-0.00308665,-0.00080
 185,-0.03341784,-0.05097577,-0.00073960,-0.00028007,0.00075893,-0.0007
 6942,0.00004107,-0.00001811,0.00007785,0.00001548,-0.00001989,0.000001
 64,0.00001586,-0.00001022,-0.00000322,0.00006011,-0.00000921,-0.000016
 02,-0.00002839,-0.00008285,-0.00000682,0.00001853,-0.00000647,0.000037
 08,-0.00002066,-0.00010722,-0.00003875,-0.00014756,0.00005558,0.000000
 94,0.00014979,-0.00001991,0.00002377,-0.00003249,-0.00001129,0.0000027
 3,-0.00086370,-0.00069275,0.00011265,0.00025431,0.00002006,0.00000713,
 0.00065065,0.00048508,-0.00025222,-0.01648051,-0.00272408,0.00029069,0
 .03790600,0.05180081,-0.00003092,-0.00008658,-0.00003039,-0.00015840,0
 .00019255,0.00004007,0.00064819,-0.00032617,0.00002900,-0.00016914,0.0
 0015527,-0.00010363,0.00011363,0.00015907,-0.00018577,-0.00009976,-0.0
 0023534,0.00005555,-0.00005763,0.00203383,-0.00447282,0.02931576,0.003
 35403,0.00051836,-0.00247438,-0.00075783,-0.04717221,-0.00040865,-0.00
 043275,0.00106847,-0.00009748,0.00041300,0.00019478,-0.00000757,0.0000
 3756,-0.00000547,0.00000728,0.00003274,0.00001008,-0.00007716,0.000001
 84,0.00003720,0.00002940,0.00011819,-0.00004963,-0.00000870,-0.0000392
 1,0.00001771,0.00001160,0.00006297,0.00012576,-0.00026406,0.00006952,0
 .00007488,0.00022782,-0.00001596,-0.00002424,-0.00000879,-0.00000957,-
 0.00003495,0.00110296,0.00059007,0.00005774,0.00000596,-0.00020350,0.0
 0008331,-0.00042887,-0.00081921,0.00105037,-0.02706569,-0.00236509,0.0
 0018477,0.00063941,-0.00152351,0.04965512,-0.00002798,0.00000739,-0.00
 001722,0.00003266,0.00009230,-0.00004715,0.00055182,-0.00020999,-0.000
 17863,-0.00010959,0.00008720,-0.00001176,0.00013542,-0.00006413,-0.000
 06031,-0.00005980,-0.00003624,0.00001047,0.00122835,0.00029934,-0.0005
 5414,0.00370529,-0.01040231,0.00064487,-0.09581503,0.10193458,-0.00340
 423,-0.00025426,-0.00103788,0.00222630,-0.00012661,0.00016792,0.000081
 15,0.00000441,0.00001319,-0.00000522,0.00000501,0.00000986,0.00000222,
 -0.00002351,-0.00000022,0.00000965,0.00000493,0.00007725,0.00000324,-0
 .00000193,-0.00002290,-0.00000654,-0.00000022,0.00000434,0.00002233,-0
 .00009850,0.00002549,0.00003788,-0.00000149,0.00000102,-0.00001340,-0.
 00000451,0.00000635,-0.00000868,0.00018672,0.00008031,0.00002770,-0.00
 005126,0.00019109,-0.00032451,0.00018981,0.00033888,-0.00059032,0.0032
 5525,-0.00855469,0.00045351,-0.01352433,0.02951421,-0.00027625,0.10050
 028,0.00007466,-0.00007376,-0.00002429,-0.00041532,0.00014098,0.000047
 91,0.00042765,-0.00005370,-0.00043054,-0.00021065,0.00009458,0.0000347
 6,0.00051572,-0.00004260,0.00002899,-0.00022482,-0.00015243,-0.0001584
 7,0.00025915,0.00071084,-0.00023395,0.00665322,-0.01615932,0.00086533,
 0.10202219,-0.25643630,0.00472780,-0.00048962,0.00151272,0.00308655,-0
 .00049217,0.00041440,0.00002504,-0.00002588,-0.00000898,0.00001946,-0.
 00004952,-0.00000883,-0.00001041,-0.00002239,0.00001100,-0.00000047,0.
 00009310,0.00011428,-0.00002033,-0.00004531,-0.00006027,-0.00003000,0.
 00001895,0.00003888,0.00001393,-0.00023000,-0.00001606,0.00013235,-0.0
 0005789,0.00000718,-0.00000994,0.00001233,0.00004741,0.00002753,-0.000
 13772,-0.00005191,-0.00001547,-0.00073474,-0.00011248,-0.00026694,-0.0
 0007123,0.00112288,0.00019474,0.00716046,-0.01431921,0.00051345,-0.002
 19201,0.00464880,-0.00040631,-0.11190117,0.27954050,-0.00003135,0.0000
 4482,-0.00000856,0.00040765,-0.00005745,0.00005168,-0.00073148,0.00030
 284,-0.00005880,0.00017210,0.00001978,-0.00007650,0.00054957,0.0000788
 9,-0.00020735,-0.00024293,-0.00021734,0.00001680,-0.00029978,-0.000824
 82,0.00091889,-0.01274680,0.02798766,-0.00234685,-0.00300630,0.0046318
 6,-0.04521386,0.00214351,0.00042456,-0.00443895,0.00034381,-0.00072451
 ,-0.00065304,0.00003010,0.00001446,-0.00001066,0.00005232,0.00001580,0
 .00000720,0.00002462,-0.00000497,0.00000185,-0.00007713,-0.00012165,0.
 00000550,0.00002916,0.00002370,0.00011691,-0.00001399,-0.00002761,-0.0
 0000222,-0.00030805,0.00004169,0.00014068,0.00001311,-0.00000934,0.000
 00746,0.00001330,0.00003392,-0.00002679,0.00000123,-0.00003312,-0.0000
 6637,0.00034746,-0.00026296,0.00025710,-0.00059442,-0.00066440,0.00111
 558,0.01278154,-0.02416490,0.00082348,-0.00063305,0.00046831,-0.001046
 42,0.00207792,-0.00835137,0.04998954,-0.00040309,0.00024425,0.00050908
 ,0.00202686,0.00006229,-0.00112566,-0.01154042,0.00147148,-0.02824595,
 -0.00420381,0.00068352,0.00156017,-0.00022235,-0.00030932,0.00062944,0
 .00013426,0.00006812,-0.00033292,-0.00043517,-0.00022556,0.00184026,-0
 .00037225,0.00139925,-0.00276250,-0.00073732,-0.00021581,0.00049694,-0
 .06006143,0.01040086,-0.06232863,0.00348530,-0.00254509,0.02661625,0.0
 0004679,0.00001737,-0.00000152,0.00060948,0.00019361,0.00003453,0.0001
 6942,-0.00006526,-0.00005585,-0.00023520,-0.00126945,-0.00022874,-0.00
 037913,-0.00096555,-0.00121872,0.00022619,-0.00015113,0.00006305,0.000
 03123,0.00012474,-0.00015324,0.00005655,0.00002884,-0.00001045,-0.0000
 6668,-0.00000315,0.00008030,-0.00051847,0.00064944,-0.00003053,0.00001
 036,0.00002930,-0.00001273,0.00117295,0.00061817,-0.00002742,-0.000085
 86,-0.00000737,-0.00013350,0.00006095,0.00002010,0.00002907,0.00006581
 ,0.00003121,-0.00010527,0.07223760,-0.00000490,0.00017445,0.00002513,0
 .00036976,0.00067592,-0.00085126,-0.00564111,0.00064138,-0.01415734,-0
 .00267295,-0.00041712,0.00059462,0.00008879,-0.00006707,0.00030569,0.0
 0000181,0.00004778,-0.00015261,0.00017873,-0.00074344,-0.00076397,0.00
 685314,-0.00882507,0.03126820,0.00371613,-0.00394793,-0.00081492,0.010
 82724,-0.05107691,0.03857753,-0.00195957,0.00220212,-0.01488843,0.0000
 6467,0.00005878,0.00001907,0.00022945,0.00009973,-0.00001277,0.0000391
 0,0.00000695,0.00004110,-0.00021728,-0.00056725,-0.00049826,-0.0003017
 4,-0.00062794,-0.00070693,0.00011767,0.00003249,0.00004920,0.00005135,
 -0.00002793,0.00001228,-0.00008631,0.00001870,-0.00002292,-0.00000032,
 0.00002834,0.00005102,0.00057445,0.00025851,0.00007918,0.00009553,0.00
 002941,-0.00002256,-0.00116521,0.00173759,0.00042208,0.00005583,0.0001
 0370,0.00003101,-0.00018937,0.00010536,-0.00013407,-0.00052888,-0.0010
 5689,0.00133067,-0.01192920,0.06059387,0.00012216,0.00028338,0.0007562
 3,0.00480811,0.00108528,0.00013535,-0.00217350,-0.00011214,-0.00633755
 ,-0.00113412,0.00048995,0.00038098,0.00021399,0.00000172,0.00019178,-0
 .00011679,-0.00010024,-0.00022600,-0.00005944,0.00007301,-0.00006757,-
 0.00055324,-0.00071934,-0.00241889,-0.00041505,0.00029905,0.00089614,-
 0.06331311,0.03804286,-0.28479009,-0.00285057,0.00215523,-0.01985924,-
 0.00012508,0.00002949,0.00003109,0.00037991,0.00019034,0.00003695,0.00
 004759,-0.00001822,-0.00000315,-0.00079768,-0.00051711,0.00010803,-0.0
 0003808,-0.00013166,-0.00024028,0.00009372,0.00001836,-0.00004572,-0.0
 0003133,-0.00003353,0.00011151,-0.00004829,0.00000310,0.00000428,0.000
 01802,0.00005029,0.00004068,-0.00011998,0.00010281,0.00002972,-0.00013
 974,0.00008821,0.00000357,0.00041060,-0.00015139,0.00181462,0.00004152
 ,-0.00018623,0.00023417,0.00001452,-0.00002533,-0.00007082,0.00005778,
 0.00009067,-0.00014508,0.06257086,-0.03906571,0.30853703,0.00006730,-0
 .00004873,-0.00013675,-0.00051206,-0.00032890,-0.00018537,0.00136894,-
 0.00010379,0.00053378,-0.00022090,-0.00023647,-0.00000507,-0.00224383,
 -0.00090543,-0.00024339,0.00047127,0.00053187,0.00021371,0.00033027,-0
 .00012555,0.00009664,0.00101704,-0.00055447,-0.00064845,-0.00000206,0.
 00062325,-0.00002056,0.00501213,-0.00527617,0.02513257,-0.05227189,0.0
 0699069,-0.03776400,0.00000411,-0.00001050,-0.00001565,-0.00013241,-0.
 00006778,-0.00001431,-0.00001578,0.00000477,0.00000586,0.00007840,0.00
 010568,0.00006219,0.00008648,0.00001220,-0.00016164,-0.00006284,-0.000
 07728,-0.00002433,-0.00087567,0.00029775,-0.00167551,0.00027000,0.0001
 1284,-0.00004852,-0.00005025,-0.00012206,-0.00001402,0.00002734,-0.000
 07164,-0.00002732,-0.00002106,0.00004108,-0.00003295,0.00009725,-0.000
 03388,-0.00011281,0.00008507,0.00059359,-0.00033830,-0.00016370,-0.000
 13951,-0.00018969,-0.00015910,-0.00010965,-0.00008710,-0.00328575,0.00
 244549,0.00314001,0.05663862,-0.00000410,0.00011160,0.00006313,0.00015
 657,-0.00008386,-0.00002926,-0.00022302,0.00027711,0.00064954,0.000084
 57,0.00014858,0.00009076,-0.00014456,-0.00011928,0.00010751,0.00008178
 ,-0.00003072,-0.00004019,-0.00012583,0.00016927,-0.00006679,-0.0005950
 2,0.00054511,-0.00038080,0.00017771,-0.00026622,-0.00013995,-0.0033055
 6,0.00204771,-0.01328895,0.00699812,-0.05467272,0.04452815,0.00000092,
 -0.00000477,-0.00001651,0.00002359,-0.00001554,0.00000215,-0.00000644,
 -0.00000829,0.00000273,0.00002729,0.00002708,-0.00002850,0.00007673,-0
 .00001967,0.00002986,-0.00001396,-0.00018681,0.00010134,0.00011191,0.0
 0068727,-0.00011322,0.00020808,0.00000467,-0.00003017,-0.00014321,-0.0
 0008182,-0.00004089,-0.00008124,-0.00006164,0.00000146,-0.00001543,0.0
 0002309,0.00003029,-0.00015986,0.00002557,0.00020454,0.00049586,-0.000
 77125,0.00037280,-0.00013187,-0.00030192,-0.00000724,-0.00003223,0.000
 19602,0.00008343,0.00239050,-0.00039995,-0.00187134,-0.00942894,0.0557
 4832,-0.00012557,0.00006929,0.00009687,0.00052660,0.00024508,0.0003421
 9,-0.00085184,-0.00029125,-0.00017494,0.00079410,0.00011616,-0.0002079
 8,-0.00048997,0.00060608,-0.00117721,-0.00059040,-0.00029898,0.0001082
 5,-0.00005572,0.00011611,-0.00003858,-0.00056850,0.00121637,0.00017617
 ,-0.00023639,0.00007955,-0.00040783,-0.00251037,0.00210886,-0.01809413
 ,-0.03663477,0.04358922,-0.29675187,0.00002022,0.00002105,-0.00000466,
 0.00014560,0.00006470,0.00001531,0.00002277,-0.00001561,0.00000108,-0.
 00012000,-0.00012448,-0.00010300,-0.00000860,0.00004701,0.00013104,0.0
 0011152,0.00014285,-0.00005464,-0.00176352,-0.00041444,0.00037773,-0.0
 0033642,-0.00001087,0.00003107,0.00013274,0.00008677,0.00000349,-0.000
 01857,-0.00001401,0.00003503,0.00013655,-0.00007711,0.00008395,-0.0000
 5541,-0.00010756,0.00014280,0.00018656,0.00043110,0.00071831,-0.000182
 70,-0.00021534,-0.00009096,-0.00019140,0.00004655,0.00051297,0.0034826
 8,-0.00172090,-0.00061119,0.04143759,-0.04798828,0.32663997,-0.0000754
 8,0.00002427,0.00004363,0.00016448,-0.00003210,-0.00007465,0.00040741,
 0.00006487,-0.00090596,-0.00035720,0.00015025,-0.00003987,0.00015733,0
 .00003966,-0.00027915,-0.00004233,-0.00006730,0.00005224,-0.00001334,0
 .00023242,-0.00034996,-0.00168608,0.00016563,0.00392038,-0.00036358,-0
 .00069884,0.00034387,-0.00233128,0.02683850,-0.00398261,-0.04606041,0.
 01831162,-0.00294587,0.00001640,0.00000155,-0.00001822,0.00000675,-0.0
 0000489,-0.00001010,0.00006041,-0.00001875,-0.00001084,-0.00014126,-0.
 00011366,0.00024292,0.00015680,-0.00021524,0.00005863,-0.00062656,-0.0
 0054958,-0.00036573,-0.00006809,0.00000291,0.00006747,0.00003102,-0.00
 005906,0.00009465,-0.00002157,-0.00000887,-0.00008774,-0.00010717,-0.0
 0012976,0.00001367,-0.00027324,-0.00010400,-0.00001036,-0.00060592,0.0
 0090920,-0.00000764,0.00008442,-0.00004834,-0.00003950,0.00026307,0.00
 014667,-0.00006262,0.00013055,0.00006366,-0.00007262,0.00091667,-0.000
 78038,-0.00026793,-0.00137064,0.00550690,-0.00095518,0.04937687,0.0000
 2356,0.00008026,-0.00006006,0.00037747,0.00000328,-0.00002169,-0.00027
 961,-0.00002975,-0.00003554,0.00020304,-0.00067607,-0.00002984,-0.0001
 5283,-0.00012229,0.00009109,0.00008078,0.00018194,0.00008100,0.0001522
 3,-0.00037952,0.00018617,0.00046787,0.00168308,-0.00189948,-0.00010272
 ,0.00042418,-0.00036964,0.00145439,-0.01248786,0.00168056,0.01779175,-
 0.29726751,0.03748680,0.00003534,0.00002002,-0.00000759,0.00003796,0.0
 0001582,-0.00000280,-0.00006898,-0.00000819,0.00001932,0.00006050,0.00
 016703,-0.00013551,-0.00009072,0.00027069,0.00008924,-0.00031774,0.000
 69324,0.00002008,0.00011785,-0.00002207,-0.00007831,-0.00002878,0.0000
 6825,-0.00011302,0.00003153,-0.00001134,0.00006110,0.00014569,0.000084
 94,-0.00000859,0.00019679,0.00003367,-0.00001425,0.00033950,-0.0004512
 7,-0.00001696,-0.00005395,0.00006014,0.00003819,0.00005412,0.00017505,
 -0.00003739,0.00006333,-0.00004843,0.00000588,-0.00012766,0.00052165,-
 0.00050359,-0.00025087,-0.00489603,0.00058257,-0.02114011,0.32521930,0
 .00007084,0.00006086,-0.00003304,-0.00020064,-0.00008388,-0.00006776,0
 .00010078,0.00031939,0.00090100,0.00002365,0.00057249,0.00004286,0.000
 32857,0.00018377,-0.00025081,-0.00018229,-0.00019317,-0.00005732,0.000
 16667,-0.00025189,0.00015361,0.00207148,0.00064982,-0.00229683,-0.0001
 2011,0.00039682,-0.00039528,0.00080693,-0.02139798,0.00244492,-0.00276
 998,0.03694291,-0.05227476,0.00000126,0.00000146,-0.00000931,-0.000034
 20,-0.00001946,-0.00001420,-0.00004943,0.00001404,0.00000629,0.0001865
 1,0.00014003,-0.00004092,0.00004254,-0.00007884,0.00007864,-0.00008559
 ,-0.00021500,0.00016348,-0.00006000,-0.00000466,0.00019499,-0.00006332
 ,-0.00002684,0.00002064,-0.00005500,0.00001978,-0.00006499,0.00007659,
 0.00001950,-0.00000937,0.00026096,0.00010397,0.00001253,0.00016891,-0.
 00052797,0.00003637,0.00027190,-0.00001215,0.00038220,-0.00023119,-0.0
 0009884,-0.00008970,-0.00015499,0.00002116,0.00030022,-0.00079237,0.00
 024960,0.00060003,-0.00127906,0.03182087,-0.00382445,0.00074147,-0.039
 41371,0.05365129,0.00023323,-0.00027445,0.00026392,-0.00123549,0.00023
 001,0.00002241,0.00139596,0.00218507,0.00335227,0.00048751,0.00048333,
 0.00032405,0.00018240,0.00001702,0.00017666,-0.00010677,-0.00008206,-0
 .00026866,-0.00034518,0.00006219,-0.00030562,0.00020483,0.00012375,-0.
 00038488,-0.00039373,0.00004556,-0.00002346,-0.02388310,-0.01073293,-0
 .00564599,-0.24400607,-0.09368018,-0.06029962,-0.00016100,-0.00005484,
 0.00004776,-0.00008045,-0.00002715,-0.00002827,0.00000485,0.00003850,-
 0.00002239,-0.00000967,-0.00001835,-0.00003692,-0.00003378,-0.00008479
 ,-0.00004267,0.00016773,-0.00004990,-0.00001705,-0.00013965,-0.0000363
 1,0.00002311,-0.00007586,-0.00000788,-0.00000021,-0.00000608,0.0000370
 3,0.00006742,0.00001886,0.00017085,0.00002372,-0.00007858,0.00031120,0
 .00001195,-0.00011795,0.00024323,0.00005570,0.00006281,-0.00002557,0.0
 0011831,0.00040267,0.00046134,-0.00024532,0.00026182,0.00007777,-0.000
 03713,0.00129651,-0.00023191,0.00026514,-0.00416626,-0.00192926,-0.001
 30162,0.00237196,0.00098027,0.00075910,0.26774850,-0.00003655,0.000119
 83,-0.00015009,0.00063954,-0.00007410,0.00006779,0.00091971,-0.0006156
 8,-0.00200559,-0.00005263,-0.00059684,-0.00000022,-0.00007098,-0.00004
 368,0.00025503,0.00007606,0.00004458,0.00000158,-0.00000678,0.00022123
 ,0.00013207,-0.00042257,0.00044823,0.00062205,-0.00008235,-0.00008013,
 0.00025925,0.01334801,0.00593796,0.00357595,-0.09326602,-0.08884654,-0
 .02734105,0.00006855,0.00002043,-0.00000096,0.00003323,0.00001275,0.00
 000801,-0.00001491,-0.00001247,0.00000420,0.00003730,0.00000679,-0.000
 12492,-0.00005918,0.00018892,0.00002896,-0.00002987,0.00041466,0.00009
 930,0.00010388,0.00002492,-0.00007550,0.00004386,0.00004147,-0.0000616
 9,0.00001925,-0.00000419,0.00005544,-0.00004455,-0.00003837,-0.0000024
 4,-0.00003325,-0.00014475,0.00002556,-0.00005453,0.00013664,-0.0001046
 9,0.00005833,-0.00002677,-0.00006865,0.00015475,-0.00039308,0.00017909
 ,-0.00012342,0.00000073,-0.00004384,-0.00061853,0.00042079,0.00043207,
 0.00613239,0.00190910,0.00170951,-0.02848723,-0.01330221,-0.00919208,0
 .10176849,0.09422978,-0.00009475,0.00014175,-0.00013585,0.00051184,-0.
 00005946,0.00013333,0.00109121,-0.00221872,-0.00193415,0.00005201,-0.0
 0025953,-0.00043498,0.00066879,0.00064072,-0.00043554,-0.00041233,-0.0
 0030302,0.00000384,0.00030339,0.00013041,0.00002043,-0.00041737,-0.000
 33795,0.00070595,-0.00047196,-0.00044293,-0.00025361,0.01913158,0.0095
 8586,0.00419381,-0.06015255,-0.02769166,-0.06390536,0.00008785,0.00004
 447,-0.00001785,0.00005354,0.00003617,0.00001935,-0.00001598,-0.000011
 86,0.00000779,-0.00005290,0.00002991,-0.00001798,-0.00003349,0.0000600
 7,0.00011648,-0.00010772,0.00019746,-0.00003556,-0.00046320,-0.0003403
 9,0.00043172,-0.00026723,-0.00004371,0.00004914,0.00010200,0.00010181,
 -0.00000292,0.00003268,-0.00009547,0.00001282,0.00004182,-0.00026771,0
 .00001702,-0.00005481,-0.00001477,-0.00007641,-0.00003916,0.00002117,0
 .00012303,0.00020528,0.00018357,0.00017382,0.00018973,0.00008228,0.000
 03558,-0.00034664,0.00075625,0.00090343,-0.02759755,-0.01404651,-0.007
 87479,0.00490763,0.00240596,0.00043966,0.06314830,0.03171584,0.0677378
 0\\0.00000567,0.00000348,0.00000068,-0.00000135,-0.00000369,-0.0000107
 4,-0.00000315,-0.00000128,0.00001170,0.00000289,-0.00000164,-0.0000035
 8,-0.00000196,-0.00000038,0.00000110,0.00000333,0.00000320,-0.00000127
 ,0.00000304,-0.00000082,-0.00000389,-0.00000023,0.00000043,0.00000110,
 -0.00000145,-0.00000050,0.00000263,0.00000068,0.00000009,-0.00000632,0
 .00000121,0.00000031,0.00000110,-0.00000031,-0.00000051,-0.00000063,-0
 .00000014,0.00000007,-0.00000041,-0.00000055,-0.00000029,0.00000055,-0
 .00000093,0.00000208,0.00000318,-0.00000113,-0.00000005,-0.00000064,0.
 00000073,0.00000078,0.00000148,-0.00000017,-0.00000099,-0.00000241,-0.
 00000104,0.00000040,0.00000284,-0.00000181,-0.00000327,0.00000390,-0.0
 0000013,0.00000075,0.00000160,-0.00000090,0.00000070,-0.00000021,0.000
 00078,0.00000084,-0.00000025,-0.00000016,-0.00000018,-0.00000098,-0.00
 000029,-0.00000079,-0.00000146,-0.00000009,-0.00000046,-0.00000110,0.0
 0000027,0.00000104,0.00000197,-0.00000216,0.,0.00000027,-0.00000003,0.
 00000043,0.00000030,-0.00000062,0.00000026,-0.00000049\\\@


 THE ENLIGHTENED ONE, BECAUSE HE SAW MANKIND DROWNING  
 IN THE GREAT SEA OF BIRTH, DEATH, AND SORROW, LONGED TO SAVE 
 THEM, FOR THIS HE WAS MOVED TO PITY.                         
 BECAUSE HE SAW MEN OF THE WORLD STRAYING IN FALSE PATHS, AND 
 NONE TO GUIDE THEM, FOR THIS HE WAS MOVED TO PITY.           
                     ..................                       
 BECAUSE HE SAW THE MEN OF THE WORLD PLOUGHING THEIR FIELDS,  
 SOWING THE SEED, TRAFFICKING, HUCKSTERING, BUYING, SELLING,  
 AND AT THE END WINNOWING NOTHING BUT BITTERNESS,             
 FOR THIS HE WAS MOVED TO PITY......                   
                   BUDAH'S PITY - UPSAKA SILA SUTRA           
 Job cpu time:       0 days  5 hours 13 minutes 11.4 seconds.
 Elapsed time:       0 days  1 hours 18 minutes 18.7 seconds.
 File lengths (MBytes):  RWF=    349 Int=      0 D2E=      0 Chk=     15 Scr=      1
 Normal termination of Gaussian 16 at Mon May 22 20:00:05 2023.
### All Done ###
