### Starting Gaussian ###
 Entering Gaussian System, Link 0=g16
 Initial command:
 /cluster/software/gaussian/gaussian-16-A.03/avx2/g16/l1.exe "/local/scratch/cz9n3/Gau-3884.inp" -scrdir="/local/scratch/cz9n3/"
 Entering Link 1 = /cluster/software/gaussian/gaussian-16-A.03/avx2/g16/l1.exe PID=      3889.
  
 Copyright (c) 1988,1990,1992,1993,1995,1998,2003,2009,2016,
            Gaussian, Inc.  All Rights Reserved.
  
 This is part of the Gaussian(R) 16 program.  It is based on
 the Gaussian(R) 09 system (copyright 2009, Gaussian, Inc.),
 the Gaussian(R) 03 system (copyright 2003, Gaussian, Inc.),
 the Gaussian(R) 98 system (copyright 1998, Gaussian, Inc.),
 the Gaussian(R) 94 system (copyright 1995, Gaussian, Inc.),
 the Gaussian 92(TM) system (copyright 1992, Gaussian, Inc.),
 the Gaussian 90(TM) system (copyright 1990, Gaussian, Inc.),
 the Gaussian 88(TM) system (copyright 1988, Gaussian, Inc.),
 the Gaussian 86(TM) system (copyright 1986, Carnegie Mellon
 University), and the Gaussian 82(TM) system (copyright 1983,
 Carnegie Mellon University). Gaussian is a federally registered
 trademark of Gaussian, Inc.
  
 This software contains proprietary and confidential information,
 including trade secrets, belonging to Gaussian, Inc.
  
 This software is provided under written license and may be
 used, copied, transmitted, or stored only in accord with that
 written license.
  
 The following legend is applicable only to US Government
 contracts under FAR:
  
                    RESTRICTED RIGHTS LEGEND
  
 Use, reproduction and disclosure by the US Government is
 subject to restrictions as set forth in subparagraphs (a)
 and (c) of the Commercial Computer Software - Restricted
 Rights clause in FAR 52.227-19.
  
 Gaussian, Inc.
 340 Quinnipiac St., Bldg. 40, Wallingford CT 06492
  
  
 ---------------------------------------------------------------
 Warning -- This program may not be used in any manner that
 competes with the business of Gaussian, Inc. or will provide
 assistance to any competitor of Gaussian, Inc.  The licensee
 of this program is prohibited from giving any competitor of
 Gaussian, Inc. access to this program.  By using this program,
 the user acknowledges that Gaussian, Inc. is engaged in the
 business of creating and licensing software in the field of
 computational chemistry and represents and warrants to the
 licensee that it is not a competitor of Gaussian, Inc. and that
 it will not use this program in any manner prohibited above.
 ---------------------------------------------------------------
  

 Cite this work as:
 Gaussian 16, Revision A.03,
 M. J. Frisch, G. W. Trucks, H. B. Schlegel, G. E. Scuseria, 
 M. A. Robb, J. R. Cheeseman, G. Scalmani, V. Barone, 
 G. A. Petersson, H. Nakatsuji, X. Li, M. Caricato, A. V. Marenich, 
 J. Bloino, B. G. Janesko, R. Gomperts, B. Mennucci, H. P. Hratchian, 
 J. V. Ortiz, A. F. Izmaylov, J. L. Sonnenberg, D. Williams-Young, 
 F. Ding, F. Lipparini, F. Egidi, J. Goings, B. Peng, A. Petrone, 
 T. Henderson, D. Ranasinghe, V. G. Zakrzewski, J. Gao, N. Rega, 
 G. Zheng, W. Liang, M. Hada, M. Ehara, K. Toyota, R. Fukuda, 
 J. Hasegawa, M. Ishida, T. Nakajima, Y. Honda, O. Kitao, H. Nakai, 
 T. Vreven, K. Throssell, J. A. Montgomery, Jr., J. E. Peralta, 
 F. Ogliaro, M. J. Bearpark, J. J. Heyd, E. N. Brothers, K. N. Kudin, 
 V. N. Staroverov, T. A. Keith, R. Kobayashi, J. Normand, 
 K. Raghavachari, A. P. Rendell, J. C. Burant, S. S. Iyengar, 
 J. Tomasi, M. Cossi, J. M. Millam, M. Klene, C. Adamo, R. Cammi, 
 J. W. Ochterski, R. L. Martin, K. Morokuma, O. Farkas, 
 J. B. Foresman, and D. J. Fox, Gaussian, Inc., Wallingford CT, 2016.
 
 ******************************************
 Gaussian 16:  ES64L-G16RevA.03 25-Dec-2016
                26-May-2023 
 ******************************************
 %chk=COC1CCCqCrCOCCCqCrN1.chk
 %NProcShared=20
 Will use up to   20 processors via shared memory.
 ----------------------------------------------------------------
 # opt freq b3lyp/6-31+g(2df,p) Geom=AllCheckpoint TD(NStates=10)
 ----------------------------------------------------------------
 1/18=20,19=15,26=3,29=7,38=1/1,3;
 2/9=110,12=2,40=1/2;
 3/5=1,6=6,7=114,11=9,14=-4,25=1,30=1,71=1,74=-5/1,2,3,8;
 4//1;
 5/5=2,38=5/2;
 8/6=1,10=2,108=10/1;
 9/15=2,41=10,42=1,70=2/14;
 10/5=4/2;
 6/7=2,8=2,9=2,10=2/1;
 7/12=6,13=5/1,2,3,16;
 1/18=20,19=15,26=3/3(2);
 2/9=110/2;
 99//99;
 2/9=110/2;
 3/5=1,6=6,7=114,11=9,14=-2,25=1,30=1,71=1,74=-5/1,2,3,8;
 4/5=5,16=3,69=1/1;
 5/5=2,38=5/2;
 8/6=1,10=2,108=10/1;
 9/15=2,41=10,42=1,49=4,70=2/14;
 10/5=4/2;
 7/12=6,13=5/1,2,3,16;
 1/18=20,19=15,26=3/3(-8);
 2/9=110/2;
 6/7=2,8=2,9=2,10=2/1;
 99//99;
 Structure from the checkpoint file:  "COC1CCCqCrCOCCCqCrN1.chk"
 -------------------
 Title Card Required
 -------------------
 Charge =  0 Multiplicity = 1
 Redundant internal coordinates found in file.  (old form).
 C,0,1.5368719476,-2.3482935786,1.2902317226
 O,0,0.4914275565,-1.5730199572,0.7487793695
 C,0,0.584343792,-1.3732710709,-0.6579660862
 C,0,-0.8330869659,-1.0778050818,-1.246586799
 C,0,-2.0539393767,-1.3599303818,-0.333145844
 C,0,-2.7288830448,-0.1408928051,0.3449686722
 C,0,-3.5451847039,0.6940064851,-0.6535935679
 C,0,-1.7532991022,0.7415603241,1.1291489963
 O,0,-0.873586687,1.3415979282,0.2035396377
 C,0,0.1647822546,2.1433104949,0.7134328793
 C,0,1.3557141644,2.0107621327,-0.2268207433
 C,0,2.0785144899,0.6410735604,-0.1171930251
 C,0,3.5845704129,0.8230014847,-0.3611847458
 N,0,1.6060578024,-0.399868118,-1.0496814482
 H,0,1.3341369682,-2.4654976387,2.3579146015
 H,0,2.5210144734,-1.8735529663,1.1685839497
 H,0,1.5772151706,-3.3449418325,0.8238202479
 H,0,0.9196509543,-2.3242786976,-1.1015299253
 H,0,-0.9153115739,-1.7109170524,-2.1367266619
 H,0,-0.8415144813,-0.0513558467,-1.6012978386
 H,0,-1.7589451146,-2.0732740137,0.4399625334
 H,0,-2.8279280294,-1.8567000594,-0.9303750197
 H,0,-3.4258011467,-0.5470661008,1.0919703021
 H,0,-2.9037794707,1.1193967828,-1.4302201038
 H,0,-4.0516328872,1.5260422112,-0.1520192199
 H,0,-4.3098596982,0.0817967841,-1.1428306849
 H,0,-1.1802118721,0.1376158167,1.8491369939
 H,0,-2.3113512174,1.5085206813,1.6944388979
 H,0,0.4526146521,1.8124105243,1.7245561889
 H,0,-0.1665494118,3.1919181776,0.7956581612
 H,0,2.0678746949,2.8074186792,0.0218113077
 H,0,1.0310146675,2.1779806961,-1.2588645088
 H,0,1.9447301954,0.295363596,0.9164024603
 H,0,3.7713361914,1.1479018185,-1.3923552673
 H,0,4.1297210223,-0.1133959843,-0.1973802851
 H,0,4.0064559801,1.5786555092,0.3066911663
 H,0,2.4095651541,-0.8947174091,-1.4058779707
 Recover connectivity data from disk.

 GradGradGradGradGradGradGradGradGradGradGradGradGradGradGradGradGradGrad
 Berny optimization.
 Initialization pass.
                           ----------------------------
                           !    Initial Parameters    !
                           ! (Angstroms and Degrees)  !
 --------------------------                            --------------------------
 ! Name  Definition              Value          Derivative Info.                !
 --------------------------------------------------------------------------------
 ! R1    R(1,2)                  1.4097         estimate D2E/DX2                !
 ! R2    R(1,15)                 1.0931         estimate D2E/DX2                !
 ! R3    R(1,16)                 1.0994         estimate D2E/DX2                !
 ! R4    R(1,17)                 1.1011         estimate D2E/DX2                !
 ! R5    R(2,3)                  1.4239         estimate D2E/DX2                !
 ! R6    R(3,4)                  1.563          estimate D2E/DX2                !
 ! R7    R(3,14)                 1.4645         estimate D2E/DX2                !
 ! R8    R(3,18)                 1.1016         estimate D2E/DX2                !
 ! R9    R(4,5)                  1.5506         estimate D2E/DX2                !
 ! R10   R(4,19)                 1.0954         estimate D2E/DX2                !
 ! R11   R(4,20)                 1.086          estimate D2E/DX2                !
 ! R12   R(5,6)                  1.5497         estimate D2E/DX2                !
 ! R13   R(5,21)                 1.0925         estimate D2E/DX2                !
 ! R14   R(5,22)                 1.0966         estimate D2E/DX2                !
 ! R15   R(6,7)                  1.5364         estimate D2E/DX2                !
 ! R16   R(6,8)                  1.5315         estimate D2E/DX2                !
 ! R17   R(6,23)                 1.0994         estimate D2E/DX2                !
 ! R18   R(7,24)                 1.0934         estimate D2E/DX2                !
 ! R19   R(7,25)                 1.0956         estimate D2E/DX2                !
 ! R20   R(7,26)                 1.0949         estimate D2E/DX2                !
 ! R21   R(8,9)                  1.4109         estimate D2E/DX2                !
 ! R22   R(8,27)                 1.1007         estimate D2E/DX2                !
 ! R23   R(8,28)                 1.1042         estimate D2E/DX2                !
 ! R24   R(9,10)                 1.4075         estimate D2E/DX2                !
 ! R25   R(10,11)                1.5231         estimate D2E/DX2                !
 ! R26   R(10,29)                1.1021         estimate D2E/DX2                !
 ! R27   R(10,30)                1.1028         estimate D2E/DX2                !
 ! R28   R(11,12)                1.5526         estimate D2E/DX2                !
 ! R29   R(11,31)                1.0971         estimate D2E/DX2                !
 ! R30   R(11,32)                1.0948         estimate D2E/DX2                !
 ! R31   R(12,13)                1.5365         estimate D2E/DX2                !
 ! R32   R(12,14)                1.4752         estimate D2E/DX2                !
 ! R33   R(12,33)                1.0981         estimate D2E/DX2                !
 ! R34   R(13,34)                1.0972         estimate D2E/DX2                !
 ! R35   R(13,35)                1.0958         estimate D2E/DX2                !
 ! R36   R(13,36)                1.0932         estimate D2E/DX2                !
 ! R37   R(14,37)                1.0087         estimate D2E/DX2                !
 ! A1    A(2,1,15)             107.2534         estimate D2E/DX2                !
 ! A2    A(2,1,16)             112.5744         estimate D2E/DX2                !
 ! A3    A(2,1,17)             111.2392         estimate D2E/DX2                !
 ! A4    A(15,1,16)            108.6876         estimate D2E/DX2                !
 ! A5    A(15,1,17)            108.8739         estimate D2E/DX2                !
 ! A6    A(16,1,17)            108.1301         estimate D2E/DX2                !
 ! A7    A(1,2,3)              114.0937         estimate D2E/DX2                !
 ! A8    A(2,3,4)              109.8409         estimate D2E/DX2                !
 ! A9    A(2,3,14)             113.7666         estimate D2E/DX2                !
 ! A10   A(2,3,18)             107.2507         estimate D2E/DX2                !
 ! A11   A(4,3,14)             113.9726         estimate D2E/DX2                !
 ! A12   A(4,3,18)             106.7136         estimate D2E/DX2                !
 ! A13   A(14,3,18)            104.6988         estimate D2E/DX2                !
 ! A14   A(3,4,5)              117.2432         estimate D2E/DX2                !
 ! A15   A(3,4,19)             105.3576         estimate D2E/DX2                !
 ! A16   A(3,4,20)             107.9813         estimate D2E/DX2                !
 ! A17   A(5,4,19)             108.3265         estimate D2E/DX2                !
 ! A18   A(5,4,20)             110.9926         estimate D2E/DX2                !
 ! A19   A(19,4,20)            106.276          estimate D2E/DX2                !
 ! A20   A(4,5,6)              117.2301         estimate D2E/DX2                !
 ! A21   A(4,5,21)             108.8484         estimate D2E/DX2                !
 ! A22   A(4,5,22)             108.4998         estimate D2E/DX2                !
 ! A23   A(6,5,21)             108.7585         estimate D2E/DX2                !
 ! A24   A(6,5,22)             106.6946         estimate D2E/DX2                !
 ! A25   A(21,5,22)            106.2715         estimate D2E/DX2                !
 ! A26   A(5,6,7)              111.992          estimate D2E/DX2                !
 ! A27   A(5,6,8)              113.5712         estimate D2E/DX2                !
 ! A28   A(5,6,23)             106.4269         estimate D2E/DX2                !
 ! A29   A(7,6,8)              110.9853         estimate D2E/DX2                !
 ! A30   A(7,6,23)             107.7925         estimate D2E/DX2                !
 ! A31   A(8,6,23)             105.5917         estimate D2E/DX2                !
 ! A32   A(6,7,24)             111.1853         estimate D2E/DX2                !
 ! A33   A(6,7,25)             111.1456         estimate D2E/DX2                !
 ! A34   A(6,7,26)             110.954          estimate D2E/DX2                !
 ! A35   A(24,7,25)            107.5106         estimate D2E/DX2                !
 ! A36   A(24,7,26)            108.0497         estimate D2E/DX2                !
 ! A37   A(25,7,26)            107.8393         estimate D2E/DX2                !
 ! A38   A(6,8,9)              107.8376         estimate D2E/DX2                !
 ! A39   A(6,8,27)             110.5143         estimate D2E/DX2                !
 ! A40   A(6,8,28)             109.9029         estimate D2E/DX2                !
 ! A41   A(9,8,27)             109.7452         estimate D2E/DX2                !
 ! A42   A(9,8,28)             110.829          estimate D2E/DX2                !
 ! A43   A(27,8,28)            108.0218         estimate D2E/DX2                !
 ! A44   A(8,9,10)             117.6828         estimate D2E/DX2                !
 ! A45   A(9,10,11)            107.6764         estimate D2E/DX2                !
 ! A46   A(9,10,29)            110.7331         estimate D2E/DX2                !
 ! A47   A(9,10,30)            110.3031         estimate D2E/DX2                !
 ! A48   A(11,10,29)           109.6339         estimate D2E/DX2                !
 ! A49   A(11,10,30)           111.3274         estimate D2E/DX2                !
 ! A50   A(29,10,30)           107.1903         estimate D2E/DX2                !
 ! A51   A(10,11,12)           113.4027         estimate D2E/DX2                !
 ! A52   A(10,11,31)           107.7254         estimate D2E/DX2                !
 ! A53   A(10,11,32)           109.679          estimate D2E/DX2                !
 ! A54   A(12,11,31)           108.8083         estimate D2E/DX2                !
 ! A55   A(12,11,32)           109.84           estimate D2E/DX2                !
 ! A56   A(31,11,32)           107.1727         estimate D2E/DX2                !
 ! A57   A(11,12,13)           109.9167         estimate D2E/DX2                !
 ! A58   A(11,12,14)           115.3891         estimate D2E/DX2                !
 ! A59   A(11,12,33)           106.708          estimate D2E/DX2                !
 ! A60   A(13,12,14)           107.2827         estimate D2E/DX2                !
 ! A61   A(13,12,33)           107.8289         estimate D2E/DX2                !
 ! A62   A(14,12,33)           109.5005         estimate D2E/DX2                !
 ! A63   A(12,13,34)           110.5585         estimate D2E/DX2                !
 ! A64   A(12,13,35)           111.2663         estimate D2E/DX2                !
 ! A65   A(12,13,36)           111.291          estimate D2E/DX2                !
 ! A66   A(34,13,35)           107.9898         estimate D2E/DX2                !
 ! A67   A(34,13,36)           107.6865         estimate D2E/DX2                !
 ! A68   A(35,13,36)           107.9            estimate D2E/DX2                !
 ! A69   A(3,14,12)            121.5569         estimate D2E/DX2                !
 ! A70   A(3,14,37)            108.9124         estimate D2E/DX2                !
 ! A71   A(12,14,37)           108.3169         estimate D2E/DX2                !
 ! D1    D(15,1,2,3)          -177.6757         estimate D2E/DX2                !
 ! D2    D(16,1,2,3)            62.822          estimate D2E/DX2                !
 ! D3    D(17,1,2,3)           -58.7208         estimate D2E/DX2                !
 ! D4    D(1,2,3,4)            155.7022         estimate D2E/DX2                !
 ! D5    D(1,2,3,14)           -75.1844         estimate D2E/DX2                !
 ! D6    D(1,2,3,18)            40.0961         estimate D2E/DX2                !
 ! D7    D(2,3,4,5)            -13.1828         estimate D2E/DX2                !
 ! D8    D(2,3,4,19)          -133.725          estimate D2E/DX2                !
 ! D9    D(2,3,4,20)           113.0273         estimate D2E/DX2                !
 ! D10   D(14,3,4,5)          -142.1839         estimate D2E/DX2                !
 ! D11   D(14,3,4,19)           97.2739         estimate D2E/DX2                !
 ! D12   D(14,3,4,20)          -15.9738         estimate D2E/DX2                !
 ! D13   D(18,3,4,5)           102.763          estimate D2E/DX2                !
 ! D14   D(18,3,4,19)          -17.7792         estimate D2E/DX2                !
 ! D15   D(18,3,4,20)         -131.0269         estimate D2E/DX2                !
 ! D16   D(2,3,14,12)          -23.4373         estimate D2E/DX2                !
 ! D17   D(2,3,14,37)          103.453          estimate D2E/DX2                !
 ! D18   D(4,3,14,12)          103.5528         estimate D2E/DX2                !
 ! D19   D(4,3,14,37)         -129.5569         estimate D2E/DX2                !
 ! D20   D(18,3,14,12)        -140.2138         estimate D2E/DX2                !
 ! D21   D(18,3,14,37)         -13.3235         estimate D2E/DX2                !
 ! D22   D(3,4,5,6)            102.3764         estimate D2E/DX2                !
 ! D23   D(3,4,5,21)           -21.5288         estimate D2E/DX2                !
 ! D24   D(3,4,5,22)          -136.7692         estimate D2E/DX2                !
 ! D25   D(19,4,5,6)          -138.6538         estimate D2E/DX2                !
 ! D26   D(19,4,5,21)           97.441          estimate D2E/DX2                !
 ! D27   D(19,4,5,22)          -17.7994         estimate D2E/DX2                !
 ! D28   D(20,4,5,6)           -22.3375         estimate D2E/DX2                !
 ! D29   D(20,4,5,21)         -146.2427         estimate D2E/DX2                !
 ! D30   D(20,4,5,22)           98.5169         estimate D2E/DX2                !
 ! D31   D(4,5,6,7)             73.4563         estimate D2E/DX2                !
 ! D32   D(4,5,6,8)            -53.2415         estimate D2E/DX2                !
 ! D33   D(4,5,6,23)          -168.9859         estimate D2E/DX2                !
 ! D34   D(21,5,6,7)          -162.593          estimate D2E/DX2                !
 ! D35   D(21,5,6,8)            70.7092         estimate D2E/DX2                !
 ! D36   D(21,5,6,23)          -45.0352         estimate D2E/DX2                !
 ! D37   D(22,5,6,7)           -48.3389         estimate D2E/DX2                !
 ! D38   D(22,5,6,8)          -175.0367         estimate D2E/DX2                !
 ! D39   D(22,5,6,23)           69.2189         estimate D2E/DX2                !
 ! D40   D(5,6,7,24)           -62.7701         estimate D2E/DX2                !
 ! D41   D(5,6,7,25)           177.5011         estimate D2E/DX2                !
 ! D42   D(5,6,7,26)            57.5116         estimate D2E/DX2                !
 ! D43   D(8,6,7,24)            65.3139         estimate D2E/DX2                !
 ! D44   D(8,6,7,25)           -54.4149         estimate D2E/DX2                !
 ! D45   D(8,6,7,26)          -174.4044         estimate D2E/DX2                !
 ! D46   D(23,6,7,24)         -179.5082         estimate D2E/DX2                !
 ! D47   D(23,6,7,25)           60.763          estimate D2E/DX2                !
 ! D48   D(23,6,7,26)          -59.2265         estimate D2E/DX2                !
 ! D49   D(5,6,8,9)             66.595          estimate D2E/DX2                !
 ! D50   D(5,6,8,27)           -53.3607         estimate D2E/DX2                !
 ! D51   D(5,6,8,28)          -172.4898         estimate D2E/DX2                !
 ! D52   D(7,6,8,9)            -60.6294         estimate D2E/DX2                !
 ! D53   D(7,6,8,27)           179.4148         estimate D2E/DX2                !
 ! D54   D(7,6,8,28)            60.2857         estimate D2E/DX2                !
 ! D55   D(23,6,8,9)          -177.169          estimate D2E/DX2                !
 ! D56   D(23,6,8,27)           62.8753         estimate D2E/DX2                !
 ! D57   D(23,6,8,28)          -56.2538         estimate D2E/DX2                !
 ! D58   D(6,8,9,10)          -176.4874         estimate D2E/DX2                !
 ! D59   D(27,8,9,10)          -56.0473         estimate D2E/DX2                !
 ! D60   D(28,8,9,10)           63.1781         estimate D2E/DX2                !
 ! D61   D(8,9,10,11)          147.8589         estimate D2E/DX2                !
 ! D62   D(8,9,10,29)           28.0102         estimate D2E/DX2                !
 ! D63   D(8,9,10,30)          -90.4789         estimate D2E/DX2                !
 ! D64   D(9,10,11,12)         -73.1079         estimate D2E/DX2                !
 ! D65   D(9,10,11,31)         166.4183         estimate D2E/DX2                !
 ! D66   D(9,10,11,32)          50.0905         estimate D2E/DX2                !
 ! D67   D(29,10,11,12)         47.4351         estimate D2E/DX2                !
 ! D68   D(29,10,11,31)        -73.0387         estimate D2E/DX2                !
 ! D69   D(29,10,11,32)        170.6335         estimate D2E/DX2                !
 ! D70   D(30,10,11,12)        165.8692         estimate D2E/DX2                !
 ! D71   D(30,10,11,31)         45.3954         estimate D2E/DX2                !
 ! D72   D(30,10,11,32)        -70.9324         estimate D2E/DX2                !
 ! D73   D(10,11,12,13)       -146.4162         estimate D2E/DX2                !
 ! D74   D(10,11,12,14)         92.1356         estimate D2E/DX2                !
 ! D75   D(10,11,12,33)        -29.7517         estimate D2E/DX2                !
 ! D76   D(31,11,12,13)        -26.5574         estimate D2E/DX2                !
 ! D77   D(31,11,12,14)       -148.0056         estimate D2E/DX2                !
 ! D78   D(31,11,12,33)         90.1071         estimate D2E/DX2                !
 ! D79   D(32,11,12,13)         90.4739         estimate D2E/DX2                !
 ! D80   D(32,11,12,14)        -30.9743         estimate D2E/DX2                !
 ! D81   D(32,11,12,33)       -152.8615         estimate D2E/DX2                !
 ! D82   D(11,12,13,34)        -65.2905         estimate D2E/DX2                !
 ! D83   D(11,12,13,35)        174.7141         estimate D2E/DX2                !
 ! D84   D(11,12,13,36)         54.3396         estimate D2E/DX2                !
 ! D85   D(14,12,13,34)         60.8903         estimate D2E/DX2                !
 ! D86   D(14,12,13,35)        -59.1051         estimate D2E/DX2                !
 ! D87   D(14,12,13,36)       -179.4796         estimate D2E/DX2                !
 ! D88   D(33,12,13,34)        178.7496         estimate D2E/DX2                !
 ! D89   D(33,12,13,35)         58.7543         estimate D2E/DX2                !
 ! D90   D(33,12,13,36)        -61.6202         estimate D2E/DX2                !
 ! D91   D(11,12,14,3)         -94.1766         estimate D2E/DX2                !
 ! D92   D(11,12,14,37)        138.6671         estimate D2E/DX2                !
 ! D93   D(13,12,14,3)         142.9648         estimate D2E/DX2                !
 ! D94   D(13,12,14,37)         15.8085         estimate D2E/DX2                !
 ! D95   D(33,12,14,3)          26.1989         estimate D2E/DX2                !
 ! D96   D(33,12,14,37)       -100.9574         estimate D2E/DX2                !
 --------------------------------------------------------------------------------
 Trust Radius=3.00D-01 FncErr=1.00D-07 GrdErr=1.00D-06 EigMax=2.50D+02 EigMin=1.00D-04
 Number of steps in this run=    214 maximum allowed number of steps=    222.
 GradGradGradGradGradGradGradGradGradGradGradGradGradGradGradGradGradGrad

                          Input orientation:                          
 ---------------------------------------------------------------------
 Center     Atomic      Atomic             Coordinates (Angstroms)
 Number     Number       Type             X           Y           Z
 ---------------------------------------------------------------------
      1          6           0        1.536872   -2.348294    1.290232
      2          8           0        0.491428   -1.573020    0.748779
      3          6           0        0.584344   -1.373271   -0.657966
      4          6           0       -0.833087   -1.077805   -1.246587
      5          6           0       -2.053939   -1.359930   -0.333146
      6          6           0       -2.728883   -0.140893    0.344969
      7          6           0       -3.545185    0.694006   -0.653594
      8          6           0       -1.753299    0.741560    1.129149
      9          8           0       -0.873587    1.341598    0.203540
     10          6           0        0.164782    2.143310    0.713433
     11          6           0        1.355714    2.010762   -0.226821
     12          6           0        2.078514    0.641074   -0.117193
     13          6           0        3.584570    0.823001   -0.361185
     14          7           0        1.606058   -0.399868   -1.049681
     15          1           0        1.334137   -2.465498    2.357915
     16          1           0        2.521014   -1.873553    1.168584
     17          1           0        1.577215   -3.344942    0.823820
     18          1           0        0.919651   -2.324279   -1.101530
     19          1           0       -0.915312   -1.710917   -2.136727
     20          1           0       -0.841514   -0.051356   -1.601298
     21          1           0       -1.758945   -2.073274    0.439963
     22          1           0       -2.827928   -1.856700   -0.930375
     23          1           0       -3.425801   -0.547066    1.091970
     24          1           0       -2.903779    1.119397   -1.430220
     25          1           0       -4.051633    1.526042   -0.152019
     26          1           0       -4.309860    0.081797   -1.142831
     27          1           0       -1.180212    0.137616    1.849137
     28          1           0       -2.311351    1.508521    1.694439
     29          1           0        0.452615    1.812411    1.724556
     30          1           0       -0.166549    3.191918    0.795658
     31          1           0        2.067875    2.807419    0.021811
     32          1           0        1.031015    2.177981   -1.258865
     33          1           0        1.944730    0.295364    0.916402
     34          1           0        3.771336    1.147902   -1.392355
     35          1           0        4.129721   -0.113396   -0.197380
     36          1           0        4.006456    1.578656    0.306691
     37          1           0        2.409565   -0.894717   -1.405878
 ---------------------------------------------------------------------
                    Distance matrix (angstroms):
                    1          2          3          4          5
     1  C    0.000000
     2  O    1.409672   0.000000
     3  C    2.377699   1.423891   0.000000
     4  C    3.696795   2.445621   1.562973   0.000000
     5  C    4.062775   2.773961   2.658237   1.550629   0.000000
     6  C    4.895182   3.547457   3.674521   2.646676   1.549658
     7  C    6.233887   4.837385   4.618080   3.293392   2.558350
     8  C    4.516456   3.246654   3.623654   3.130655   2.577781
     9  O    4.539439   3.264284   3.199729   2.820996   2.996585
    10  C    4.731790   3.730825   3.797777   3.900385   4.276769
    11  C    4.619051   3.813434   3.497510   3.920462   4.795687
    12  C    3.348214   2.858490   2.565651   3.564758   4.596502
    13  C    4.120359   4.066998   3.730020   4.890061   6.046385
    14  N    3.045709   2.419328   1.464532   2.539251   3.851068
    15  H    1.093062   2.023856   3.294038   4.428880   4.465775
    16  H    1.099415   2.094225   2.708738   4.209069   4.842438
    17  H    1.101124   2.079489   2.658753   3.903338   4.296990
    18  H    2.470235   2.042403   1.101633   2.155650   3.219103
    19  H    4.261865   3.213110   2.133003   1.095418   2.161613
    20  H    4.392447   3.100816   2.161112   1.086043   2.188733
    21  H    3.414821   2.325897   2.680756   2.166246   1.092510
    22  H    4.921812   3.730704   3.457095   2.164731   1.096595
    23  H    5.283167   4.063870   4.452657   3.531671   2.138623
    24  H    6.256606   4.850214   4.356234   3.024762   2.841278
    25  H    6.951399   5.572703   5.491291   4.282188   3.514602
    26  H    6.783023   5.419314   5.128893   3.666523   2.797024
    27  H    3.724871   2.632763   3.417894   3.343838   2.787185
    28  H    5.463261   4.271502   4.714189   4.186165   3.522126
    29  H    4.321540   3.523462   3.980243   4.339823   4.536595
    30  H    5.817232   4.810381   4.849517   4.779704   5.055271
    31  H    5.335937   4.711890   4.487887   5.011923   5.872150
    32  H    5.219286   4.288566   3.629323   3.751689   4.784424
    33  H    2.700929   2.372982   2.667139   3.778939   4.504523
    34  H    4.940899   4.769242   4.129475   5.116222   6.430006
    35  H    3.732375   4.032729   3.790663   5.163369   6.309512
    36  H    4.742059   4.741722   4.621178   5.735035   6.765580
    37  H    3.184884   2.963426   2.029734   3.251721   4.614114
                    6          7          8          9         10
     6  C    0.000000
     7  C    1.536402   0.000000
     8  C    1.531478   2.528099   0.000000
     9  O    2.379056   2.879494   1.410919   0.000000
    10  C    3.704949   4.211069   2.411796   1.407460   0.000000
    11  C    4.651935   5.092621   3.621532   2.367018   1.523143
    12  C    4.892457   5.649471   4.030665   3.050984   2.570803
    13  C    6.425530   7.136915   5.542615   4.523607   3.820075
    14  N    4.561121   5.280980   4.163585   3.279010   3.413738
    15  H    5.095476   6.546711   4.618154   4.899934   5.031185
    16  H    5.589443   6.834579   5.011001   4.774078   4.679122
    17  H    5.388665   6.688411   5.280630   5.324926   5.668162
    18  H    4.491251   5.407906   4.638961   4.284572   4.880909
    19  H    3.451497   3.859997   4.169270   3.846613   4.913765
    20  H    2.712587   2.960328   2.985868   2.280085   3.344723
    21  H    2.164232   3.470498   2.897982   3.535690   4.642747
    22  H    2.140165   2.664051   3.485315   3.915906   5.259135
    23  H    1.099401   2.145112   2.111683   3.296992   4.502633
    24  H    2.184082   1.093392   2.831384   2.615383   3.880685
    25  H    2.185254   1.095605   2.745750   3.203189   4.348354
    26  H    2.182344   1.094934   3.483272   3.899716   5.264786
    27  H    2.176803   3.488026   1.100709   2.061937   2.668641
    28  H    2.171628   2.774713   1.104175   2.077934   2.737986
    29  H    3.980023   4.784227   2.523348   2.072189   1.102140
    30  H    4.228038   4.444668   2.938238   2.067412   1.102778
    31  H    5.639668   6.035654   4.482782   3.291482   2.130995
    32  H    4.699605   4.848725   3.939329   2.542768   2.154418
    33  H    4.728585   5.723895   3.730921   3.089610   2.573775
    34  H    6.850703   7.367718   6.086435   4.915253   4.293299
    35  H    6.880069   7.730731   6.091023   5.225977   4.652209
    36  H    6.951482   7.663682   5.878090   4.886886   3.904194
    37  H    5.480635   6.208786   5.141323   4.286072   4.331298
                   11         12         13         14         15
    11  C    0.000000
    12  C    1.552580   0.000000
    13  C    2.529156   1.536501   0.000000
    14  N    2.559475   1.475232   2.425685   0.000000
    15  H    5.168967   4.041168   4.824125   3.994055   0.000000
    16  H    4.288704   2.858737   3.277613   2.815954   1.781456
    17  H    5.462277   4.126151   4.775507   3.490602   1.784924
    18  H    4.443855   3.332446   4.189902   2.043820   3.487047
    19  H    4.759852   4.309683   5.460973   3.042667   5.082441
    20  H    3.311998   3.347924   4.678954   2.533052   5.122197
    21  H    5.179291   4.733308   6.130531   4.042595   3.660538
    22  H    5.740655   5.565368   6.973157   4.668707   5.339126
    23  H    5.580733   5.759448   7.289311   5.470644   5.285831
    24  H    4.515085   5.174561   6.582505   4.774056   6.720221
    25  H    5.429544   6.193794   7.671350   6.043541   7.158120
    26  H    6.054644   6.494309   7.967583   5.936224   7.113271
    27  H    3.774811   3.839169   5.297020   4.056518   3.654724
    28  H    4.170234   4.827566   6.281514   5.149586   5.433471
    29  H    2.159353   2.721694   3.890809   3.731086   4.413471
    30  H    2.181256   3.518582   4.584861   4.410028   6.057975
    31  H    1.097111   2.170826   2.526849   3.412925   5.813725
    32  H    1.094763   2.182373   3.026953   2.649479   5.893629
    33  H    2.143943   1.098059   2.144693   2.112707   3.173820
    34  H    2.817486   2.179119   1.097157   2.683551   5.749880
    35  H    3.493999   2.187031   1.095838   2.679059   4.458386
    36  H    2.738208   2.185337   1.093187   3.393555   5.263457
    37  H    3.307958   2.031984   2.328643   1.008651   4.217823
                   16         17         18         19         20
    16  H    0.000000
    17  H    1.781742   0.000000
    18  H    2.814416   2.276207   0.000000
    19  H    4.770730   4.200900   2.194295   0.000000
    20  H    4.722208   4.751753   2.918501   1.745358   0.000000
    21  H    4.346128   3.590884   3.100658   2.735388   3.016053
    22  H    5.746051   4.969643   3.780512   2.265974   2.766811
    23  H    6.093443   5.738483   5.181977   4.252245   3.765363
    24  H    6.718625   6.714933   5.156119   3.530415   2.377576
    25  H    7.516710   7.507508   6.359261   4.924782   3.859204
    26  H    7.471738   7.089986   5.756621   3.965427   3.501048
    27  H    4.266970   4.558825   4.379130   4.401631   3.472165
    28  H    5.921715   6.279731   5.739962   5.195338   3.931350
    29  H    4.263063   5.354842   5.031608   5.403199   4.026127
    30  H    5.746396   6.765504   5.933598   5.761711   4.088985
    31  H    4.840653   6.223785   5.377233   5.828726   4.389945
    32  H    4.952528   5.927781   4.506384   4.436480   2.931479
    33  H    2.258295   3.659981   3.461988   4.639677   3.771232
    34  H    4.153421   5.469117   4.502524   5.540000   4.770772
    35  H    2.748081   4.242762   4.001255   5.636088   5.166045
    36  H    3.855793   5.514567   5.171494   6.404325   5.458954
    37  H    2.756518   3.415840   2.087131   3.500732   3.364367
                   21         22         23         24         25
    21  H    0.000000
    22  H    1.751415   0.000000
    23  H    2.352198   2.482433   0.000000
    24  H    3.873161   3.018733   3.067743   0.000000
    25  H    4.308357   3.680521   2.497389   1.765425   0.000000
    26  H    3.695501   2.449292   2.484223   1.770951   1.770377
    27  H    2.684909   3.797098   2.466731   3.832592   3.765291
    28  H    3.835116   4.298978   2.414623   3.204042   2.537380
    29  H    4.651851   5.592226   4.583602   4.658139   4.887923
    30  H    5.512213   5.962438   4.968956   4.091736   4.332102
    31  H    6.216153   6.828583   6.525204   5.447491   6.254640
    32  H    5.361255   5.592673   5.728482   4.078304   5.242465
    33  H    4.422064   5.551597   5.439037   5.449194   6.213893
    34  H    6.657130   7.265765   7.800229   6.675284   7.929708
    35  H    6.238887   7.210081   7.677005   7.246365   8.344122
    36  H    6.825994   7.748600   7.770058   7.139967   8.071306
    37  H    4.708779   5.346293   6.357012   5.682330   7.012797
                   26         27         28         29         30
    26  H    0.000000
    27  H    4.330090   0.000000
    28  H    3.752289   1.784037   0.000000
    29  H    5.822207   2.342345   2.780785   0.000000
    30  H    5.531511   3.386162   2.870855   1.774615   0.000000
    31  H    7.032844   4.584434   4.864405   2.549205   2.395690
    32  H    5.738675   4.325770   4.510165   3.060880   2.585206
    33  H    6.588319   3.264987   4.493475   2.276171   3.586378
    34  H    8.155033   6.003814   6.830624   4.601154   4.946953
    35  H    8.494616   5.696194   6.906302   4.574241   5.510823
    36  H    8.573378   5.599755   6.468806   3.833376   4.500631
    37  H    6.795104   4.954527   6.137961   4.577971   5.308834
                   31         32         33         34         35
    31  H    0.000000
    32  H    1.763917   0.000000
    33  H    2.669434   3.018428   0.000000
    34  H    2.766884   2.930571   3.064910   0.000000
    35  H    3.581957   3.997391   2.486319   1.774057   0.000000
    36  H    2.312815   3.415173   2.503857   1.768499   1.769836
    37  H    3.982570   3.370977   2.650538   2.454974   2.242736
                   36         37
    36  H    0.000000
    37  H    3.405955   0.000000
 Stoichiometry    C11H23NO2
 Framework group  C1[X(C11H23NO2)]
 Deg. of freedom   105
 Full point group                 C1      NOp   1
 Largest Abelian subgroup         C1      NOp   1
 Largest concise Abelian subgroup C1      NOp   1
                         Standard orientation:                         
 ---------------------------------------------------------------------
 Center     Atomic      Atomic             Coordinates (Angstroms)
 Number     Number       Type             X           Y           Z
 ---------------------------------------------------------------------
      1          6           0       -1.536872   -2.348294   -1.290232
      2          8           0       -0.491428   -1.573020   -0.748779
      3          6           0       -0.584344   -1.373271    0.657966
      4          6           0        0.833087   -1.077805    1.246587
      5          6           0        2.053939   -1.359930    0.333146
      6          6           0        2.728883   -0.140893   -0.344969
      7          6           0        3.545185    0.694006    0.653594
      8          6           0        1.753299    0.741560   -1.129149
      9          8           0        0.873587    1.341598   -0.203540
     10          6           0       -0.164782    2.143310   -0.713433
     11          6           0       -1.355714    2.010762    0.226821
     12          6           0       -2.078514    0.641074    0.117193
     13          6           0       -3.584570    0.823001    0.361185
     14          7           0       -1.606058   -0.399868    1.049681
     15          1           0       -1.334137   -2.465498   -2.357915
     16          1           0       -2.521014   -1.873553   -1.168584
     17          1           0       -1.577215   -3.344942   -0.823820
     18          1           0       -0.919651   -2.324279    1.101530
     19          1           0        0.915312   -1.710917    2.136727
     20          1           0        0.841514   -0.051356    1.601298
     21          1           0        1.758945   -2.073274   -0.439963
     22          1           0        2.827928   -1.856700    0.930375
     23          1           0        3.425801   -0.547066   -1.091970
     24          1           0        2.903779    1.119397    1.430220
     25          1           0        4.051633    1.526042    0.152019
     26          1           0        4.309860    0.081797    1.142831
     27          1           0        1.180212    0.137616   -1.849137
     28          1           0        2.311351    1.508521   -1.694439
     29          1           0       -0.452615    1.812411   -1.724556
     30          1           0        0.166549    3.191918   -0.795658
     31          1           0       -2.067875    2.807419   -0.021811
     32          1           0       -1.031015    2.177981    1.258865
     33          1           0       -1.944730    0.295364   -0.916402
     34          1           0       -3.771336    1.147902    1.392355
     35          1           0       -4.129721   -0.113396    0.197380
     36          1           0       -4.006456    1.578656   -0.306691
     37          1           0       -2.409565   -0.894717    1.405878
 ---------------------------------------------------------------------
 Rotational constants (GHZ):           0.9393338           0.5390896           0.4218443
 Standard basis: 6-31+G(2df,p) (6D, 7F)
 There are   605 symmetry adapted cartesian basis functions of A   symmetry.
 There are   563 symmetry adapted basis functions of A   symmetry.
   563 basis functions,   833 primitive gaussians,   605 cartesian basis functions
    56 alpha electrons       56 beta electrons
       nuclear repulsion energy      1058.2608381436 Hartrees.
 NAtoms=   37 NActive=   37 NUniq=   37 SFac= 1.00D+00 NAtFMM=   60 NAOKFM=F Big=F
 Integral buffers will be    131072 words long.
 Regular integral format.
 Two-electron integral symmetry is turned on.
 One-electron integrals computed using PRISM.
 PrsmSu:  requested number of processors reduced to:  12 ShMem   1 Linda.
 NBasis=   563 RedAO= T EigKep=  9.20D-06  NBF=   563
 NBsUse=   563 1.00D-06 EigRej= -1.00D+00 NBFU=   563
 ExpMin= 4.38D-02 ExpMax= 5.48D+03 ExpMxC= 8.25D+02 IAcc=3 IRadAn=         5 AccDes= 0.00D+00
 Harris functional with IExCor=  402 and IRadAn=       5 diagonalized for initial guess.
 HarFok:  IExCor=  402 AccDes= 0.00D+00 IRadAn=         5 IDoV= 1 UseB2=F ITyADJ=14
 ICtDFT=  3500011 ScaDFX=  1.000000  1.000000  1.000000  1.000000
 FoFCou: FMM=F IPFlag=           0 FMFlag=      100000 FMFlg1=           0
         NFxFlg=           0 DoJE=T BraDBF=F KetDBF=T FulRan=T
         wScrn=  0.000000 ICntrl=       500 IOpCl=  0 I1Cent=   200000004 NGrid=           0
         NMat0=    1 NMatS0=      1 NMatT0=    0 NMatD0=    1 NMtDS0=    0 NMtDT0=    0
 Petite list used in FoFCou.
 Requested convergence on RMS density matrix=1.00D-08 within 128 cycles.
 Requested convergence on MAX density matrix=1.00D-06.
 Requested convergence on             energy=1.00D-06.
 No special actions if energy rises.
 SCF Done:  E(RB3LYP) =  -638.249385928     A.U. after   13 cycles
            NFock= 13  Conv=0.25D-08     -V/T= 2.0080
 DoSCS=F DFT=T ScalE2(SS,OS)=  1.000000  1.000000
 ExpMin= 4.38D-02 ExpMax= 5.48D+03 ExpMxC= 8.25D+02 IAcc=3 IRadAn=         5 AccDes= 0.00D+00
 HarFok:  IExCor=  205 AccDes= 0.00D+00 IRadAn=         5 IDoV=-2 UseB2=F ITyADJ=14
 ICtDFT= 12500011 ScaDFX=  1.000000  1.000000  1.000000  1.000000
 Range of M.O.s used for correlation:    15   563
 NBasis=   563 NAE=    56 NBE=    56 NFC=    14 NFV=     0
 NROrb=    549 NOA=    42 NOB=    42 NVA=   507 NVB=   507

 **** Warning!!: The largest alpha MO coefficient is  0.74717144D+02

 Orbital symmetries:
       Occupied  (A) (A) (A) (A) (A) (A) (A) (A) (A) (A) (A) (A)
                 (A) (A) (A) (A) (A) (A) (A) (A) (A) (A) (A) (A)
                 (A) (A) (A) (A) (A) (A) (A) (A) (A) (A) (A) (A)
                 (A) (A) (A) (A) (A) (A) (A) (A) (A) (A) (A) (A)
                 (A) (A) (A) (A) (A) (A) (A) (A)
       Virtual   (A) (A) (A) (A) (A) (A) (A) (A) (A) (A) (A) (A)
                 (A) (A) (A) (A) (A) (A) (A) (A) (A) (A) (A) (A)
                 (A) (A) (A) (A) (A) (A) (A) (A) (A) (A) (A) (A)
                 (A) (A) (A) (A) (A) (A) (A) (A) (A) (A) (A) (A)
                 (A) (A) (A) (A) (A) (A) (A) (A) (A) (A) (A) (A)
                 (A) (A) (A) (A) (A) (A) (A) (A) (A) (A) (A) (A)
                 (A) (A) (A) (A) (A) (A) (A) (A) (A) (A) (A) (A)
                 (A) (A) (A) (A) (A) (A) (A) (A) (A) (A) (A) (A)
                 (A) (A) (A) (A) (A) (A) (A) (A) (A) (A) (A) (A)
                 (A) (A) (A) (A) (A) (A) (A) (A) (A) (A) (A) (A)
                 (A) (A) (A) (A) (A) (A) (A) (A) (A) (A) (A) (A)
                 (A) (A) (A) (A) (A) (A) (A) (A) (A) (A) (A) (A)
                 (A) (A) (A) (A) (A) (A) (A) (A) (A) (A) (A) (A)
                 (A) (A) (A) (A) (A) (A) (A) (A) (A) (A) (A) (A)
                 (A) (A) (A) (A) (A) (A) (A) (A) (A) (A) (A) (A)
                 (A) (A) (A) (A) (A) (A) (A) (A) (A) (A) (A) (A)
                 (A) (A) (A) (A) (A) (A) (A) (A) (A) (A) (A) (A)
                 (A) (A) (A) (A) (A) (A) (A) (A) (A) (A) (A) (A)
                 (A) (A) (A) (A) (A) (A) (A) (A) (A) (A) (A) (A)
                 (A) (A) (A) (A) (A) (A) (A) (A) (A) (A) (A) (A)
                 (A) (A) (A) (A) (A) (A) (A) (A) (A) (A) (A) (A)
                 (A) (A) (A) (A) (A) (A) (A) (A) (A) (A) (A) (A)
                 (A) (A) (A) (A) (A) (A) (A) (A) (A) (A) (A) (A)
                 (A) (A) (A) (A) (A) (A) (A) (A) (A) (A) (A) (A)
                 (A) (A) (A) (A) (A) (A) (A) (A) (A) (A) (A) (A)
                 (A) (A) (A) (A) (A) (A) (A) (A) (A) (A) (A) (A)
                 (A) (A) (A) (A) (A) (A) (A) (A) (A) (A) (A) (A)
                 (A) (A) (A) (A) (A) (A) (A) (A) (A) (A) (A) (A)
                 (A) (A) (A) (A) (A) (A) (A) (A) (A) (A) (A) (A)
                 (A) (A) (A) (A) (A) (A) (A) (A) (A) (A) (A) (A)
                 (A) (A) (A) (A) (A) (A) (A) (A) (A) (A) (A) (A)
                 (A) (A) (A) (A) (A) (A) (A) (A) (A) (A) (A) (A)
                 (A) (A) (A) (A) (A) (A) (A) (A) (A) (A) (A) (A)
                 (A) (A) (A) (A) (A) (A) (A) (A) (A) (A) (A) (A)
                 (A) (A) (A) (A) (A) (A) (A) (A) (A) (A) (A) (A)
                 (A) (A) (A) (A) (A) (A) (A) (A) (A) (A) (A) (A)
                 (A) (A) (A) (A) (A) (A) (A) (A) (A) (A) (A) (A)
                 (A) (A) (A) (A) (A) (A) (A) (A) (A) (A) (A) (A)
                 (A) (A) (A) (A) (A) (A) (A) (A) (A) (A) (A) (A)
                 (A) (A) (A) (A) (A) (A) (A) (A) (A) (A) (A) (A)
                 (A) (A) (A) (A) (A) (A) (A) (A) (A) (A) (A) (A)
                 (A) (A) (A) (A) (A) (A) (A) (A) (A) (A) (A) (A)
                 (A) (A) (A)
    40 initial guesses have been made.
 Convergence on wavefunction:    0.000001000000000
 Iteration     1 Dimension    40 NMult     0 NNew     40
 CISAX will form     3 AO SS matrices at one time.
 New state      2 was old state      3
 New state      3 was old state      2
 New state      9 was old state     10
 New state     10 was old state      9
 Iteration     2 Dimension    60 NMult    40 NNew     20
 Iteration     3 Dimension    80 NMult    60 NNew     20
 Iteration     4 Dimension   100 NMult    80 NNew     20
 Iteration     5 Dimension   120 NMult   100 NNew     20
 Iteration     6 Dimension   140 NMult   120 NNew     20
 Iteration     7 Dimension   160 NMult   140 NNew     20
 Iteration     8 Dimension   180 NMult   160 NNew     20
 Iteration     9 Dimension   200 NMult   180 NNew     20
 Iteration    10 Dimension   220 NMult   200 NNew     20
 Iteration    11 Dimension   230 NMult   220 NNew     10
 ***********************************************************************
 Excited states from <AA,BB:AA,BB> singles matrix:
 ***********************************************************************
 
 Ground to excited state transition densities written to RWF  633
 Ground to excited state transition electric dipole moments (Au):
       state          X           Y           Z        Dip. S.      Osc.
         1         0.0643      0.0193      0.1330      0.0222      0.0029
         2        -0.0733      0.0733     -0.3549      0.1367      0.0192
         3        -0.1654     -0.0991     -0.0515      0.0398      0.0057
         4         0.0049      0.1876      0.2483      0.0969      0.0142
         5        -0.0556     -0.3117     -0.0091      0.1004      0.0150
         6         0.0667      0.1479      0.0304      0.0272      0.0042
         7        -0.2032     -0.3334      0.1686      0.1808      0.0278
         8        -0.0406     -0.1496     -0.0072      0.0241      0.0038
         9         0.0472     -0.1674      0.0110      0.0304      0.0048
        10        -0.1186      0.1027     -0.0767      0.0305      0.0048
 Ground to excited state transition velocity dipole moments (Au):
       state          X           Y           Z        Dip. S.      Osc.
         1        -0.0131     -0.0048     -0.0275      0.0009      0.0033
         2         0.0163     -0.0132      0.0729      0.0058      0.0182
         3         0.0379      0.0203      0.0106      0.0020      0.0061
         4        -0.0025     -0.0394     -0.0547      0.0045      0.0138
         5         0.0107      0.0698      0.0005      0.0050      0.0148
         6        -0.0152     -0.0328     -0.0053      0.0013      0.0039
         7         0.0457      0.0763     -0.0381      0.0094      0.0271
         8         0.0107      0.0353      0.0011      0.0014      0.0039
         9        -0.0112      0.0398     -0.0020      0.0017      0.0048
        10         0.0292     -0.0252      0.0163      0.0018      0.0049
 Ground to excited state transition magnetic dipole moments (Au):
       state          X           Y           Z
         1         0.1654     -0.1598      0.0792
         2         0.1464      0.3064      0.0217
         3        -0.0805      0.0474     -0.0378
         4         0.1285     -0.2443      0.1926
         5         0.3406     -0.1947      0.1029
         6         0.0575     -0.1206     -0.0630
         7         0.0848     -0.2329     -0.1290
         8         0.0830     -0.0625     -0.0629
         9         0.0331     -0.0292      0.1319
        10         0.0553      0.1777     -0.0111
 Ground to excited state transition velocity quadrupole moments (Au):
       state          XX          YY          ZZ          XY          XZ          YZ
         1         0.2874     -0.1290     -0.2892      0.0851      0.0589      0.0661
         2        -0.0413      0.0602      0.0639      0.0631     -0.2363     -0.1688
         3        -0.0334      0.0468      0.0308     -0.0703     -0.0534     -0.0005
         4         0.0422      0.2043     -0.1842      0.2343      0.1210     -0.0784
         5         0.1108      0.3542      0.0329      0.1770     -0.1470     -0.2513
         6         0.1785     -0.0749     -0.0434     -0.1211      0.1693     -0.0429
         7        -0.0145      0.6048     -0.0382      0.2753     -0.1820     -0.2985
         8         0.0481     -0.1044     -0.0175     -0.1186     -0.1160     -0.1458
         9         0.0166      0.5904     -0.2142     -0.1601      0.0457      0.0318
        10         0.0003     -0.0112      0.0504     -0.0249     -0.0291      0.1769
 <0|del|b> * <b|rxdel|0> + <0|del|b> * <b|delr+rdel|0>
 Rotatory Strengths (R) in cgs (10**-40 erg-esu-cm/Gauss)
       state          XX          YY          ZZ    R(velocity)    E-M Angle
         1        -6.3673     -5.2446     -1.4984     -4.3701      118.52
         2        -1.6701     -5.6695      7.0646     -0.0917       90.00
         3         1.4912     -4.5166     -5.2217     -2.7490      123.93
         4       -14.3460      3.4648      6.9974     -1.2946       93.05
         5        -5.0272      1.4499    -27.5817    -10.3864      110.20
         6        16.1308     -0.8145     -4.8158      3.5001       50.81
         7       -14.5037      8.6518    -21.6965     -9.1828      109.40
         8         2.5493     -0.9214     -5.8298     -1.4006      108.06
         9        -4.3852     -1.9443      0.9622     -1.7891      108.14
        10        -8.6727     10.4537    -10.8965     -3.0385      113.01
 1/2[<0|r|b>*<b|rxdel|0> + (<0|rxdel|b>*<b|r|0>)*]
 Rotatory Strengths (R) in cgs (10**-40 erg-esu-cm/Gauss)
       state          XX          YY          ZZ     R(length)
         1        -7.5184      2.1817     -7.4494     -4.2620
         2         7.5890    -15.8900      5.4486     -0.9508
         3        -9.4173      3.3221     -1.3779     -2.4911
         4        -0.4481     32.4097    -33.8186     -0.6190
         5        13.3864    -42.9297      0.6660     -9.6258
         6        -2.7115     12.6057      1.3542      3.7495
         7        12.1865    -54.8974     15.3747     -9.1121
         8         2.3805     -6.6105     -0.3197     -1.5166
         9        -1.1053     -3.4586     -1.0245     -1.8628
        10         4.6410    -12.9024     -0.6044     -2.9552
  1/2[<0|del|b>*<b|r|0> + (<0|r|b>*<b|del|0>)*] (Au)
       state          X           Y           Z        Dip. S.   Osc.(frdel)
         1        -0.0008     -0.0001     -0.0037      0.0046      0.0031
         2        -0.0012     -0.0010     -0.0259      0.0280      0.0187
         3        -0.0063     -0.0020     -0.0005      0.0088      0.0059
         4        -0.0000     -0.0074     -0.0136      0.0210      0.0140
         5        -0.0006     -0.0218     -0.0000      0.0224      0.0149
         6        -0.0010     -0.0049     -0.0002      0.0060      0.0040
         7        -0.0093     -0.0255     -0.0064      0.0412      0.0274
         8        -0.0004     -0.0053     -0.0000      0.0057      0.0038
         9        -0.0005     -0.0067     -0.0000      0.0072      0.0048
        10        -0.0035     -0.0026     -0.0012      0.0073      0.0049

 Excitation energies and oscillator strengths:
 
 Excited State   1:      Singlet-A      5.2505 eV  236.14 nm  f=0.0029  <S**2>=0.000
      56 -> 57         0.67445
      56 -> 58        -0.10480
      56 -> 59        -0.12247
 This state for optimization and/or second-order correction.
 Total Energy, E(TD-HF/TD-DFT) =  -638.056433877    
 Copying the excited state density for this state as the 1-particle RhoCI density.
 
 Excited State   2:      Singlet-A      5.7352 eV  216.18 nm  f=0.0192  <S**2>=0.000
      56 -> 57         0.16013
      56 -> 59         0.65850
      56 -> 60        -0.11550
 
 Excited State   3:      Singlet-A      5.8169 eV  213.15 nm  f=0.0057  <S**2>=0.000
      56 -> 58         0.66492
      56 -> 59        -0.13216
      56 -> 61        -0.11506
 
 Excited State   4:      Singlet-A      5.9820 eV  207.26 nm  f=0.0142  <S**2>=0.000
      56 -> 58         0.12000
      56 -> 59         0.11516
      56 -> 60         0.67476
 
 Excited State   5:      Singlet-A      6.1053 eV  203.08 nm  f=0.0150  <S**2>=0.000
      55 -> 57         0.59946
      55 -> 58         0.31981
      55 -> 59         0.14009
 
 Excited State   6:      Singlet-A      6.2523 eV  198.30 nm  f=0.0042  <S**2>=0.000
      55 -> 59        -0.10938
      56 -> 59        -0.10572
      56 -> 61         0.65493
 
 Excited State   7:      Singlet-A      6.2750 eV  197.58 nm  f=0.0278  <S**2>=0.000
      55 -> 57        -0.34099
      55 -> 58         0.53382
      55 -> 59         0.19200
      56 -> 61         0.16636
 
 Excited State   8:      Singlet-A      6.3640 eV  194.82 nm  f=0.0038  <S**2>=0.000
      56 -> 62         0.62372
      56 -> 63         0.19194
 
 Excited State   9:      Singlet-A      6.4203 eV  193.11 nm  f=0.0048  <S**2>=0.000
      55 -> 58        -0.26008
      55 -> 59         0.60837
      55 -> 61        -0.13526
      56 -> 63         0.12342
 
 Excited State  10:      Singlet-A      6.4412 eV  192.49 nm  f=0.0048  <S**2>=0.000
      55 -> 58         0.10261
      56 -> 62        -0.19310
      56 -> 63         0.63384
      56 -> 64         0.13253
 SavETr:  write IOETrn=   770 NScale= 10 NData=  16 NLR=1 NState=   10 LETran=     190.
          IDoAtm=1111111111111111111111111111111111111
          Differentiating once with respect to electric field.
                with respect to dipole field.
          Differentiating once with respect to nuclear coordinates.
          There are     1 degrees of freedom in the 1st order CPHF.  IDoFFX=0 NUNeed=     1.
 LinEq1:  Iter=  0 NonCon=     1 RMS=8.27D-03 Max=2.16D-01 NDo=     1
 AX will form     1 AO Fock derivatives at one time.
 LinEq1:  Iter=  1 NonCon=     1 RMS=2.14D-03 Max=3.66D-02 NDo=     1
 LinEq1:  Iter=  2 NonCon=     1 RMS=1.01D-03 Max=1.98D-02 NDo=     1
 LinEq1:  Iter=  3 NonCon=     1 RMS=5.81D-04 Max=1.17D-02 NDo=     1
 LinEq1:  Iter=  4 NonCon=     1 RMS=2.82D-04 Max=4.40D-03 NDo=     1
 LinEq1:  Iter=  5 NonCon=     1 RMS=1.32D-04 Max=2.77D-03 NDo=     1
 LinEq1:  Iter=  6 NonCon=     1 RMS=5.32D-05 Max=1.11D-03 NDo=     1
 LinEq1:  Iter=  7 NonCon=     1 RMS=2.70D-05 Max=6.46D-04 NDo=     1
 LinEq1:  Iter=  8 NonCon=     1 RMS=1.32D-05 Max=2.76D-04 NDo=     1
 LinEq1:  Iter=  9 NonCon=     1 RMS=8.32D-06 Max=1.57D-04 NDo=     1
 LinEq1:  Iter= 10 NonCon=     1 RMS=3.39D-06 Max=1.06D-04 NDo=     1
 LinEq1:  Iter= 11 NonCon=     1 RMS=1.02D-06 Max=3.00D-05 NDo=     1
 LinEq1:  Iter= 12 NonCon=     1 RMS=4.38D-07 Max=1.39D-05 NDo=     1
 LinEq1:  Iter= 13 NonCon=     1 RMS=2.04D-07 Max=7.69D-06 NDo=     1
 LinEq1:  Iter= 14 NonCon=     1 RMS=7.14D-08 Max=2.16D-06 NDo=     1
 LinEq1:  Iter= 15 NonCon=     1 RMS=2.81D-08 Max=6.70D-07 NDo=     1
 LinEq1:  Iter= 16 NonCon=     1 RMS=1.41D-08 Max=3.22D-07 NDo=     1
 LinEq1:  Iter= 17 NonCon=     1 RMS=4.75D-09 Max=1.26D-07 NDo=     1
 LinEq1:  Iter= 18 NonCon=     1 RMS=1.62D-09 Max=3.10D-08 NDo=     1
 LinEq1:  Iter= 19 NonCon=     1 RMS=7.90D-10 Max=1.65D-08 NDo=     1
 LinEq1:  Iter= 20 NonCon=     1 RMS=2.27D-10 Max=4.19D-09 NDo=     1
 LinEq1:  Iter= 21 NonCon=     0 RMS=8.11D-11 Max=9.51D-10 NDo=     1
 Linear equations converged to 1.000D-10 1.000D-09 after    21 iterations.
 End of Minotr F.D. properties file   721 does not exist.
 End of Minotr F.D. properties file   722 does not exist.
 End of Minotr F.D. properties file   788 does not exist.

 **********************************************************************

            Population analysis using the SCF density.

 **********************************************************************

 Orbital symmetries:
       Occupied  (A) (A) (A) (A) (A) (A) (A) (A) (A) (A) (A) (A)
                 (A) (A) (A) (A) (A) (A) (A) (A) (A) (A) (A) (A)
                 (A) (A) (A) (A) (A) (A) (A) (A) (A) (A) (A) (A)
                 (A) (A) (A) (A) (A) (A) (A) (A) (A) (A) (A) (A)
                 (A) (A) (A) (A) (A) (A) (A) (A)
       Virtual   (A) (A) (A) (A) (A) (A) (A) (A) (A) (A) (A) (A)
                 (A) (A) (A) (A) (A) (A) (A) (A) (A) (A) (A) (A)
                 (A) (A) (A) (A) (A) (A) (A) (A) (A) (A) (A) (A)
                 (A) (A) (A) (A) (A) (A) (A) (A) (A) (A) (A) (A)
                 (A) (A) (A) (A) (A) (A) (A) (A) (A) (A) (A) (A)
                 (A) (A) (A) (A) (A) (A) (A) (A) (A) (A) (A) (A)
                 (A) (A) (A) (A) (A) (A) (A) (A) (A) (A) (A) (A)
                 (A) (A) (A) (A) (A) (A) (A) (A) (A) (A) (A) (A)
                 (A) (A) (A) (A) (A) (A) (A) (A) (A) (A) (A) (A)
                 (A) (A) (A) (A) (A) (A) (A) (A) (A) (A) (A) (A)
                 (A) (A) (A) (A) (A) (A) (A) (A) (A) (A) (A) (A)
                 (A) (A) (A) (A) (A) (A) (A) (A) (A) (A) (A) (A)
                 (A) (A) (A) (A) (A) (A) (A) (A) (A) (A) (A) (A)
                 (A) (A) (A) (A) (A) (A) (A) (A) (A) (A) (A) (A)
                 (A) (A) (A) (A) (A) (A) (A) (A) (A) (A) (A) (A)
                 (A) (A) (A) (A) (A) (A) (A) (A) (A) (A) (A) (A)
                 (A) (A) (A) (A) (A) (A) (A) (A) (A) (A) (A) (A)
                 (A) (A) (A) (A) (A) (A) (A) (A) (A) (A) (A) (A)
                 (A) (A) (A) (A) (A) (A) (A) (A) (A) (A) (A) (A)
                 (A) (A) (A) (A) (A) (A) (A) (A) (A) (A) (A) (A)
                 (A) (A) (A) (A) (A) (A) (A) (A) (A) (A) (A) (A)
                 (A) (A) (A) (A) (A) (A) (A) (A) (A) (A) (A) (A)
                 (A) (A) (A) (A) (A) (A) (A) (A) (A) (A) (A) (A)
                 (A) (A) (A) (A) (A) (A) (A) (A) (A) (A) (A) (A)
                 (A) (A) (A) (A) (A) (A) (A) (A) (A) (A) (A) (A)
                 (A) (A) (A) (A) (A) (A) (A) (A) (A) (A) (A) (A)
                 (A) (A) (A) (A) (A) (A) (A) (A) (A) (A) (A) (A)
                 (A) (A) (A) (A) (A) (A) (A) (A) (A) (A) (A) (A)
                 (A) (A) (A) (A) (A) (A) (A) (A) (A) (A) (A) (A)
                 (A) (A) (A) (A) (A) (A) (A) (A) (A) (A) (A) (A)
                 (A) (A) (A) (A) (A) (A) (A) (A) (A) (A) (A) (A)
                 (A) (A) (A) (A) (A) (A) (A) (A) (A) (A) (A) (A)
                 (A) (A) (A) (A) (A) (A) (A) (A) (A) (A) (A) (A)
                 (A) (A) (A) (A) (A) (A) (A) (A) (A) (A) (A) (A)
                 (A) (A) (A) (A) (A) (A) (A) (A) (A) (A) (A) (A)
                 (A) (A) (A) (A) (A) (A) (A) (A) (A) (A) (A) (A)
                 (A) (A) (A) (A) (A) (A) (A) (A) (A) (A) (A) (A)
                 (A) (A) (A) (A) (A) (A) (A) (A) (A) (A) (A) (A)
                 (A) (A) (A) (A) (A) (A) (A) (A) (A) (A) (A) (A)
                 (A) (A) (A) (A) (A) (A) (A) (A) (A) (A) (A) (A)
                 (A) (A) (A) (A) (A) (A) (A) (A) (A) (A) (A) (A)
                 (A) (A) (A) (A) (A) (A) (A) (A) (A) (A) (A) (A)
                 (A) (A) (A)
 The electronic state is 1-A.
 Alpha  occ. eigenvalues --  -19.14925 -19.13560 -14.31486 -10.25511 -10.22988
 Alpha  occ. eigenvalues --  -10.22332 -10.21670 -10.21386 -10.18156 -10.18036
 Alpha  occ. eigenvalues --  -10.17528 -10.16733 -10.16369 -10.16301  -1.04317
 Alpha  occ. eigenvalues --   -1.03113  -0.89655  -0.80690  -0.77469  -0.75293
 Alpha  occ. eigenvalues --   -0.71369  -0.69179  -0.66843  -0.64505  -0.62752
 Alpha  occ. eigenvalues --   -0.58285  -0.56710  -0.54163  -0.50659  -0.50098
 Alpha  occ. eigenvalues --   -0.49343  -0.47496  -0.46559  -0.45456  -0.44686
 Alpha  occ. eigenvalues --   -0.42937  -0.42719  -0.42211  -0.41548  -0.39086
 Alpha  occ. eigenvalues --   -0.38538  -0.37867  -0.36909  -0.36536  -0.35689
 Alpha  occ. eigenvalues --   -0.35454  -0.34231  -0.33732  -0.32103  -0.31714
 Alpha  occ. eigenvalues --   -0.30934  -0.30426  -0.29038  -0.27220  -0.24800
 Alpha  occ. eigenvalues --   -0.22623
 Alpha virt. eigenvalues --   -0.00151   0.00908   0.01171   0.01765   0.02616
 Alpha virt. eigenvalues --    0.03141   0.03270   0.03870   0.04783   0.05170
 Alpha virt. eigenvalues --    0.05384   0.05792   0.06138   0.07130   0.07291
 Alpha virt. eigenvalues --    0.07705   0.07866   0.08629   0.08791   0.09747
 Alpha virt. eigenvalues --    0.10066   0.10484   0.10808   0.11686   0.12081
 Alpha virt. eigenvalues --    0.12554   0.12999   0.13373   0.13885   0.14390
 Alpha virt. eigenvalues --    0.14869   0.15317   0.15874   0.16047   0.17045
 Alpha virt. eigenvalues --    0.17457   0.17662   0.18152   0.18455   0.18588
 Alpha virt. eigenvalues --    0.19375   0.19560   0.20078   0.20496   0.20725
 Alpha virt. eigenvalues --    0.20984   0.21078   0.21829   0.22294   0.23208
 Alpha virt. eigenvalues --    0.23423   0.23757   0.24219   0.24626   0.25227
 Alpha virt. eigenvalues --    0.25758   0.25938   0.26085   0.26563   0.27043
 Alpha virt. eigenvalues --    0.27348   0.27728   0.28008   0.29261   0.29698
 Alpha virt. eigenvalues --    0.30048   0.30679   0.31429   0.31678   0.32111
 Alpha virt. eigenvalues --    0.32676   0.33464   0.34141   0.34679   0.34970
 Alpha virt. eigenvalues --    0.36144   0.36243   0.37125   0.37340   0.38470
 Alpha virt. eigenvalues --    0.38777   0.38875   0.40165   0.40233   0.41134
 Alpha virt. eigenvalues --    0.41969   0.43623   0.44541   0.45993   0.46801
 Alpha virt. eigenvalues --    0.47287   0.51522   0.52578   0.55827   0.56897
 Alpha virt. eigenvalues --    0.57778   0.58924   0.59892   0.60969   0.62377
 Alpha virt. eigenvalues --    0.62488   0.63534   0.64122   0.64915   0.65551
 Alpha virt. eigenvalues --    0.66691   0.67214   0.67401   0.68303   0.68523
 Alpha virt. eigenvalues --    0.69465   0.69633   0.71338   0.71793   0.72538
 Alpha virt. eigenvalues --    0.73530   0.74569   0.75151   0.76063   0.77143
 Alpha virt. eigenvalues --    0.77618   0.78151   0.79649   0.80260   0.81692
 Alpha virt. eigenvalues --    0.82607   0.83144   0.83751   0.84095   0.84738
 Alpha virt. eigenvalues --    0.85257   0.85798   0.86557   0.87259   0.88008
 Alpha virt. eigenvalues --    0.88804   0.89338   0.89787   0.90769   0.91817
 Alpha virt. eigenvalues --    0.92903   0.93588   0.93947   0.96190   0.98346
 Alpha virt. eigenvalues --    0.99407   0.99967   1.01158   1.01478   1.02375
 Alpha virt. eigenvalues --    1.03189   1.03912   1.04873   1.05406   1.06909
 Alpha virt. eigenvalues --    1.07550   1.08249   1.10799   1.10958   1.11507
 Alpha virt. eigenvalues --    1.13678   1.14157   1.16689   1.16926   1.17778
 Alpha virt. eigenvalues --    1.19334   1.20566   1.20948   1.22670   1.24151
 Alpha virt. eigenvalues --    1.26236   1.28548   1.29578   1.30493   1.31032
 Alpha virt. eigenvalues --    1.32538   1.35126   1.36019   1.37497   1.38541
 Alpha virt. eigenvalues --    1.39203   1.41917   1.43216   1.43587   1.44485
 Alpha virt. eigenvalues --    1.45852   1.47626   1.48628   1.48697   1.50283
 Alpha virt. eigenvalues --    1.50812   1.52777   1.52956   1.54358   1.55135
 Alpha virt. eigenvalues --    1.57307   1.57817   1.59426   1.59879   1.61799
 Alpha virt. eigenvalues --    1.62652   1.63193   1.64980   1.65868   1.66808
 Alpha virt. eigenvalues --    1.66942   1.68309   1.68547   1.70959   1.71178
 Alpha virt. eigenvalues --    1.72499   1.73920   1.75515   1.76188   1.76444
 Alpha virt. eigenvalues --    1.78925   1.81142   1.81573   1.83376   1.84428
 Alpha virt. eigenvalues --    1.85403   1.86268   1.87361   1.87728   1.89780
 Alpha virt. eigenvalues --    1.90999   1.91094   1.92831   1.94230   1.95799
 Alpha virt. eigenvalues --    1.96147   1.96852   1.96992   1.99084   2.01485
 Alpha virt. eigenvalues --    2.02859   2.03553   2.05231   2.06755   2.11605
 Alpha virt. eigenvalues --    2.12102   2.16839   2.19112   2.22312   2.24345
 Alpha virt. eigenvalues --    2.25931   2.26426   2.28178   2.30246   2.30719
 Alpha virt. eigenvalues --    2.31517   2.32630   2.33473   2.35328   2.36979
 Alpha virt. eigenvalues --    2.38636   2.40678   2.42047   2.43150   2.44431
 Alpha virt. eigenvalues --    2.45119   2.46105   2.47792   2.48903   2.51016
 Alpha virt. eigenvalues --    2.54042   2.56347   2.57364   2.59835   2.60356
 Alpha virt. eigenvalues --    2.61121   2.63616   2.64923   2.68131   2.68996
 Alpha virt. eigenvalues --    2.72374   2.74468   2.75646   2.77378   2.78201
 Alpha virt. eigenvalues --    2.79774   2.81295   2.82152   2.84065   2.85894
 Alpha virt. eigenvalues --    2.86669   2.87647   2.91196   2.93283   2.94227
 Alpha virt. eigenvalues --    2.94669   2.95033   2.95440   2.96215   2.97215
 Alpha virt. eigenvalues --    2.97978   2.98221   3.00070   3.00399   3.01172
 Alpha virt. eigenvalues --    3.02100   3.02211   3.03451   3.03818   3.04557
 Alpha virt. eigenvalues --    3.05743   3.06418   3.07878   3.08868   3.09454
 Alpha virt. eigenvalues --    3.10572   3.11352   3.12753   3.14850   3.19492
 Alpha virt. eigenvalues --    3.21817   3.22933   3.24103   3.26121   3.27755
 Alpha virt. eigenvalues --    3.29704   3.32591   3.33280   3.33853   3.34657
 Alpha virt. eigenvalues --    3.36271   3.37879   3.39956   3.41732   3.42982
 Alpha virt. eigenvalues --    3.44087   3.44977   3.46935   3.47236   3.49069
 Alpha virt. eigenvalues --    3.49547   3.50144   3.50790   3.53123   3.53936
 Alpha virt. eigenvalues --    3.55758   3.57496   3.57642   3.59810   3.61271
 Alpha virt. eigenvalues --    3.63293   3.63422   3.64669   3.65821   3.66625
 Alpha virt. eigenvalues --    3.66701   3.68608   3.72152   3.73123   3.74239
 Alpha virt. eigenvalues --    3.76098   3.76200   3.78360   3.80529   3.82045
 Alpha virt. eigenvalues --    3.83011   3.84719   3.87197   3.88804   3.89159
 Alpha virt. eigenvalues --    3.91966   3.93915   3.94484   3.96649   3.98697
 Alpha virt. eigenvalues --    4.01337   4.01758   4.04356   4.06706   4.08260
 Alpha virt. eigenvalues --    4.10707   4.12155   4.16323   4.16869   4.21109
 Alpha virt. eigenvalues --    4.24027   4.29680   4.31712   4.32312   4.34348
 Alpha virt. eigenvalues --    4.38104   4.38854   4.39929   4.41222   4.43042
 Alpha virt. eigenvalues --    4.44736   4.45316   4.47099   4.47373   4.49034
 Alpha virt. eigenvalues --    4.49874   4.50418   4.51138   4.51940   4.52419
 Alpha virt. eigenvalues --    4.53680   4.54365   4.55628   4.58448   4.58721
 Alpha virt. eigenvalues --    4.59868   4.59978   4.60390   4.61686   4.63051
 Alpha virt. eigenvalues --    4.64270   4.65657   4.66901   4.67279   4.68142
 Alpha virt. eigenvalues --    4.69766   4.70783   4.71454   4.72003   4.72366
 Alpha virt. eigenvalues --    4.72850   4.73345   4.74090   4.75769   4.76993
 Alpha virt. eigenvalues --    4.77292   4.77684   4.79308   4.81326   4.82059
 Alpha virt. eigenvalues --    4.82707   4.82796   4.83508   4.85612   4.86304
 Alpha virt. eigenvalues --    4.86777   4.88408   4.89310   4.90120   4.91706
 Alpha virt. eigenvalues --    4.92603   4.94242   4.94980   4.96423   4.97028
 Alpha virt. eigenvalues --    4.99627   5.00659   5.02592   5.04481   5.07222
 Alpha virt. eigenvalues --    5.10640   5.12506   5.14177   5.15777   5.17840
 Alpha virt. eigenvalues --    5.22350   5.26018   5.29312   5.35155   5.36218
 Alpha virt. eigenvalues --    5.40227   5.41210   5.44175   5.45533   5.46524
 Alpha virt. eigenvalues --    5.48129   5.49587   5.50473   5.52952   5.53246
 Alpha virt. eigenvalues --    5.54746   5.57424   5.58725   5.65785   5.69890
 Alpha virt. eigenvalues --    5.79549   5.81510   5.93932   5.99359   6.04452
 Alpha virt. eigenvalues --    6.04886   6.07909   6.19301   6.20752   6.23508
 Alpha virt. eigenvalues --    6.26143   6.39285   6.51646   6.75382   7.09048
 Alpha virt. eigenvalues --    7.36864   7.51496  11.33189  11.70443  11.77840
 Alpha virt. eigenvalues --   12.04757  12.08338  12.27610  12.41661  12.61617
 Alpha virt. eigenvalues --   12.72438  12.82914  12.99880  13.19871  13.95413
 Alpha virt. eigenvalues --   14.09902  26.73406
          Condensed to atoms (all electrons):
               1          2          3          4          5          6
     1  C    5.289134   0.082292  -0.000491  -0.049455  -0.018775   0.002957
     2  O    0.082292   7.972684  -0.038256   0.034463  -0.035465  -0.006090
     3  C   -0.000491  -0.038256   8.752352  -1.109942  -0.738462   0.576877
     4  C   -0.049455   0.034463  -1.109942   6.164875   0.472346  -0.375938
     5  C   -0.018775  -0.035465  -0.738462   0.472346   5.908590  -0.267300
     6  C    0.002957  -0.006090   0.576877  -0.375938  -0.267300   6.231806
     7  C    0.000321   0.004262  -0.005818  -0.025181   0.037824   0.047859
     8  C   -0.000459   0.007034  -0.261604   0.112033   0.142778  -0.234886
     9  O    0.000080   0.013722   0.067547  -0.087562  -0.025093  -0.075170
    10  C   -0.008473  -0.017119   0.174342  -0.027778  -0.035595   0.067068
    11  C   -0.000587  -0.068398   0.165319  -0.080591   0.013620  -0.045978
    12  C   -0.028141   0.112364  -1.141936   0.343992   0.079350  -0.094504
    13  C   -0.019199   0.029619  -0.018433   0.019980  -0.002075   0.011038
    14  N   -0.007738  -0.036784  -0.129623   0.040604   0.062424  -0.033583
    15  H    0.407542  -0.044118  -0.009481   0.001444   0.000500  -0.000074
    16  H    0.406936  -0.035096  -0.012196  -0.010179  -0.001529   0.000288
    17  H    0.394972  -0.051139   0.003203   0.018779  -0.002753   0.001010
    18  H   -0.013187  -0.001802   0.136900   0.086838   0.037467  -0.013329
    19  H    0.002064   0.008878  -0.014681   0.358493  -0.079027   0.032568
    20  H   -0.002855   0.002982  -0.270219   0.535614   0.029536  -0.018622
    21  H   -0.001928  -0.003295  -0.032127  -0.041488   0.459291  -0.040634
    22  H   -0.002255  -0.004365   0.035474  -0.070618   0.445944  -0.124669
    23  H    0.000523   0.000948  -0.025459   0.034358   0.005162   0.218531
    24  H    0.000111   0.000089  -0.022612   0.009248   0.053310  -0.161080
    25  H   -0.000048   0.000014   0.003079  -0.001652  -0.004215  -0.045866
    26  H    0.000022   0.000072   0.000601   0.000763  -0.019905  -0.056850
    27  H   -0.000349  -0.006023   0.008829  -0.024891  -0.006128  -0.022692
    28  H   -0.000161   0.000182   0.001934  -0.005091   0.008876  -0.014071
    29  H   -0.000376  -0.003133   0.006096  -0.001185   0.000194  -0.016327
    30  H    0.000355   0.000482   0.000057   0.000351  -0.000250  -0.003042
    31  H    0.000195   0.000823  -0.005085   0.000212   0.000984  -0.000791
    32  H   -0.000489   0.000367  -0.008063   0.003490   0.002762  -0.008197
    33  H   -0.005944   0.030910  -0.087089   0.000320   0.007782  -0.010622
    34  H    0.001362   0.000367  -0.007605  -0.000530   0.000174  -0.000073
    35  H   -0.000533  -0.000860   0.012199  -0.001842  -0.000005   0.000052
    36  H   -0.000495   0.000227   0.002790   0.000616   0.000006  -0.000103
    37  H    0.002836  -0.005690   0.034912  -0.007773  -0.003234   0.001481
               7          8          9         10         11         12
     1  C    0.000321  -0.000459   0.000080  -0.008473  -0.000587  -0.028141
     2  O    0.004262   0.007034   0.013722  -0.017119  -0.068398   0.112364
     3  C   -0.005818  -0.261604   0.067547   0.174342   0.165319  -1.141936
     4  C   -0.025181   0.112033  -0.087562  -0.027778  -0.080591   0.343992
     5  C    0.037824   0.142778  -0.025093  -0.035595   0.013620   0.079350
     6  C    0.047859  -0.234886  -0.075170   0.067068  -0.045978  -0.094504
     7  C    5.487798  -0.022881  -0.011044  -0.019333   0.004130  -0.002375
     8  C   -0.022881   5.704724   0.214138  -0.229156   0.038408   0.095633
     9  O   -0.011044   0.214138   7.949874   0.170029  -0.059651  -0.007234
    10  C   -0.019333  -0.229156   0.170029   5.573414   0.165068  -0.241939
    11  C    0.004130   0.038408  -0.059651   0.165068   5.915447  -0.261557
    12  C   -0.002375   0.095633  -0.007234  -0.241939  -0.261557   7.441485
    13  C    0.002748  -0.015029  -0.006624  -0.002274  -0.024859  -0.915471
    14  N   -0.001351   0.020099   0.000898   0.015977  -0.013536   0.255629
    15  H   -0.000220   0.000207  -0.000020  -0.001422   0.003007   0.010464
    16  H    0.000061  -0.000829   0.000035  -0.000333   0.006665   0.037796
    17  H    0.000088  -0.001448  -0.000065   0.000547  -0.003351  -0.009114
    18  H    0.000207   0.003259   0.000461   0.000057  -0.006837   0.026667
    19  H    0.004453  -0.009732  -0.000892  -0.003475  -0.000574   0.008326
    20  H   -0.017174   0.006700  -0.009984   0.009381  -0.018268   0.040744
    21  H   -0.008403  -0.014625  -0.001370   0.001155  -0.002258   0.000636
    22  H   -0.000954   0.035613   0.000569   0.001312   0.000965  -0.002141
    23  H   -0.028013   0.064416   0.002543  -0.006113   0.001800   0.002616
    24  H    0.444581   0.037486  -0.002335  -0.008947   0.001361   0.003881
    25  H    0.424022  -0.013022  -0.001035  -0.003541   0.000600  -0.000348
    26  H    0.427547   0.007372  -0.001865   0.000796  -0.000147   0.000274
    27  H    0.006597   0.419142  -0.032944   0.005710  -0.008575  -0.014501
    28  H   -0.017487   0.381610  -0.046748   0.002401  -0.005415   0.000569
    29  H    0.000782  -0.005644  -0.034449   0.449288  -0.084527   0.004803
    30  H   -0.004463   0.002249  -0.054394   0.404657  -0.048161   0.021359
    31  H    0.000240  -0.001109   0.002260  -0.042083   0.465562  -0.105389
    32  H   -0.000007   0.007601  -0.002573  -0.035167   0.435601  -0.030985
    33  H    0.000103   0.011900   0.004181  -0.034648   0.010604   0.358977
    34  H    0.000010   0.000094  -0.000001  -0.002002   0.026264  -0.196253
    35  H    0.000005  -0.000401  -0.000062   0.000753   0.012041  -0.134762
    36  H    0.000005  -0.000336  -0.000089  -0.004936  -0.025287  -0.030782
    37  H   -0.000020  -0.001891   0.000346  -0.001002  -0.003495  -0.144960
              13         14         15         16         17         18
     1  C   -0.019199  -0.007738   0.407542   0.406936   0.394972  -0.013187
     2  O    0.029619  -0.036784  -0.044118  -0.035096  -0.051139  -0.001802
     3  C   -0.018433  -0.129623  -0.009481  -0.012196   0.003203   0.136900
     4  C    0.019980   0.040604   0.001444  -0.010179   0.018779   0.086838
     5  C   -0.002075   0.062424   0.000500  -0.001529  -0.002753   0.037467
     6  C    0.011038  -0.033583  -0.000074   0.000288   0.001010  -0.013329
     7  C    0.002748  -0.001351  -0.000220   0.000061   0.000088   0.000207
     8  C   -0.015029   0.020099   0.000207  -0.000829  -0.001448   0.003259
     9  O   -0.006624   0.000898  -0.000020   0.000035  -0.000065   0.000461
    10  C   -0.002274   0.015977  -0.001422  -0.000333   0.000547   0.000057
    11  C   -0.024859  -0.013536   0.003007   0.006665  -0.003351  -0.006837
    12  C   -0.915471   0.255629   0.010464   0.037796  -0.009114   0.026667
    13  C    6.417429   0.009271   0.001559  -0.031864   0.004689   0.006606
    14  N    0.009271   6.806231  -0.004342   0.003578  -0.003966  -0.023925
    15  H    0.001559  -0.004342   0.534579  -0.031590  -0.027515   0.000188
    16  H   -0.031864   0.003578  -0.031590   0.552564  -0.042186  -0.001919
    17  H    0.004689  -0.003966  -0.027515  -0.042186   0.561791   0.008213
    18  H    0.006606  -0.023925   0.000188  -0.001919   0.008213   0.690639
    19  H    0.001493   0.010200   0.000005   0.000004  -0.000009  -0.011906
    20  H    0.001984   0.026528   0.000004   0.000005  -0.000008   0.005541
    21  H    0.000001   0.003368   0.000122  -0.000009   0.000024   0.000723
    22  H    0.000051  -0.001937  -0.000002   0.000001  -0.000002  -0.000219
    23  H    0.000038   0.000203   0.000000   0.000000   0.000000   0.000006
    24  H    0.000092   0.000411   0.000000  -0.000000  -0.000000   0.000002
    25  H    0.000007   0.000025   0.000000   0.000000  -0.000000  -0.000000
    26  H    0.000005  -0.000099   0.000000   0.000000   0.000000  -0.000000
    27  H   -0.000771   0.001438   0.000073  -0.000000  -0.000006   0.000003
    28  H   -0.000138   0.000366  -0.000001  -0.000000   0.000000   0.000000
    29  H   -0.007686   0.002063  -0.000004   0.000010  -0.000000  -0.000003
    30  H   -0.006017   0.000230  -0.000000  -0.000000  -0.000000  -0.000000
    31  H   -0.013134   0.006542   0.000000  -0.000000   0.000000   0.000005
    32  H   -0.051328   0.005871  -0.000000  -0.000001   0.000000  -0.000008
    33  H   -0.007140  -0.068787   0.000586   0.000358   0.000219   0.000742
    34  H    0.513505   0.015624  -0.000000   0.000045  -0.000000   0.000010
    35  H    0.469099  -0.001635   0.000005   0.000443  -0.000006   0.000020
    36  H    0.427579  -0.005598   0.000000  -0.000025  -0.000000   0.000003
    37  H    0.057373   0.338135   0.000034  -0.001168   0.000066  -0.013062
              19         20         21         22         23         24
     1  C    0.002064  -0.002855  -0.001928  -0.002255   0.000523   0.000111
     2  O    0.008878   0.002982  -0.003295  -0.004365   0.000948   0.000089
     3  C   -0.014681  -0.270219  -0.032127   0.035474  -0.025459  -0.022612
     4  C    0.358493   0.535614  -0.041488  -0.070618   0.034358   0.009248
     5  C   -0.079027   0.029536   0.459291   0.445944   0.005162   0.053310
     6  C    0.032568  -0.018622  -0.040634  -0.124669   0.218531  -0.161080
     7  C    0.004453  -0.017174  -0.008403  -0.000954  -0.028013   0.444581
     8  C   -0.009732   0.006700  -0.014625   0.035613   0.064416   0.037486
     9  O   -0.000892  -0.009984  -0.001370   0.000569   0.002543  -0.002335
    10  C   -0.003475   0.009381   0.001155   0.001312  -0.006113  -0.008947
    11  C   -0.000574  -0.018268  -0.002258   0.000965   0.001800   0.001361
    12  C    0.008326   0.040744   0.000636  -0.002141   0.002616   0.003881
    13  C    0.001493   0.001984   0.000001   0.000051   0.000038   0.000092
    14  N    0.010200   0.026528   0.003368  -0.001937   0.000203   0.000411
    15  H    0.000005   0.000004   0.000122  -0.000002   0.000000   0.000000
    16  H    0.000004   0.000005  -0.000009   0.000001   0.000000  -0.000000
[...]
     34          1           0        3.741122    1.208867   -1.500446
     35          1           0        4.194280   -0.049984   -0.336858
     36          1           0        4.051615    1.638809    0.192673
     37          1           0        2.373698   -0.869479   -1.502052
 ---------------------------------------------------------------------
                    Distance matrix (angstroms):
                    1          2          3          4          5
     1  C    0.000000
     2  O    1.427810   0.000000
     3  C    2.407055   1.406912   0.000000
     4  C    3.736005   2.464645   1.560592   0.000000
     5  C    4.054669   2.768777   2.620340   1.547299   0.000000
     6  C    4.894000   3.546277   3.651497   2.648384   1.551168
     7  C    6.245780   4.841427   4.607568   3.292045   2.561643
     8  C    4.530987   3.251112   3.621006   3.147770   2.581166
     9  O    4.565801   3.259850   3.206109   2.835695   2.999043
    10  C    4.759962   3.718880   3.804663   3.908766   4.275205
    11  C    4.687039   3.817518   3.520721   3.915643   4.783638
    12  C    3.465835   2.920008   2.636081   3.611937   4.644254
    13  C    4.316273   4.166107   3.804288   4.909418   6.083055
    14  N    3.059853   2.371289   1.470107   2.535570   3.820274
    15  H    1.095767   2.029359   3.302296   4.445857   4.432323
    16  H    1.101738   2.123375   2.774702   4.279042   4.865511
    17  H    1.097457   2.089092   2.684227   3.929851   4.265152
    18  H    2.506468   2.051626   1.107680   2.165993   3.209310
    19  H    4.290926   3.226848   2.128904   1.097974   2.168261
    20  H    4.450919   3.126650   2.185649   1.087626   2.186842
    21  H    3.387542   2.318957   2.633973   2.169898   1.092988
    22  H    4.899985   3.718903   3.407586   2.142507   1.095664
    23  H    5.265043   4.059949   4.421002   3.530784   2.137111
    24  H    6.294000   4.867587   4.367343   3.032489   2.852355
    25  H    6.964317   5.577933   5.485440   4.284277   3.517292
    26  H    6.781503   5.417275   5.108470   3.657987   2.796410
    27  H    3.737739   2.644330   3.419168   3.369443   2.790672
    28  H    5.478081   4.277390   4.711612   4.198966   3.526834
    29  H    4.343792   3.516181   3.986725   4.358990   4.547135
    30  H    5.843575   4.798443   4.854283   4.784312   5.056081
    31  H    5.411263   4.719992   4.506270   5.001090   5.863196
    32  H    5.285680   4.283505   3.650150   3.723539   4.743756
    33  H    2.800361   2.446388   2.722597   3.847209   4.585866
    34  H    5.130281   4.849067   4.194817   5.101327   6.426342
    35  H    3.969159   4.161141   3.875987   5.196906   6.367353
    36  H    4.927378   4.834875   4.686656   5.755866   6.807085
    37  H    3.367706   3.040011   2.076108   3.208206   4.585844
                    6          7          8          9         10
     6  C    0.000000
     7  C    1.538036   0.000000
     8  C    1.532355   2.535477   0.000000
     9  O    2.383618   2.898054   1.415854   0.000000
    10  C    3.713098   4.233641   2.425487   1.406803   0.000000
    11  C    4.648533   5.092398   3.634712   2.362256   1.525563
    12  C    4.953219   5.705877   4.107460   3.101208   2.602300
    13  C    6.480368   7.167142   5.630495   4.568654   3.870004
    14  N    4.539581   5.280493   4.150688   3.271114   3.396701
    15  H    5.056765   6.518400   4.589216   4.885032   5.023154
    16  H    5.631890   6.896818   5.076487   4.856540   4.766539
    17  H    5.361478   6.674976   5.274062   5.339315   5.688851
    18  H    4.491179   5.412817   4.653844   4.298587   4.887080
    19  H    3.462401   3.871178   4.191823   3.870133   4.927488
    20  H    2.714664   2.956236   3.009916   2.308149   3.367832
    21  H    2.168508   3.474862   2.902864   3.536792   4.639960
    22  H    2.149314   2.673553   3.493193   3.922101   5.260164
    23  H    1.098828   2.142986   2.110230   3.300498   4.512915
    24  H    2.191364   1.093825   2.849044   2.646082   3.911651
    25  H    2.186036   1.095991   2.752487   3.224736   4.380425
    26  H    2.180955   1.095088   3.487057   3.916721   5.285016
    27  H    2.175965   3.492506   1.099889   2.064722   2.680173
    28  H    2.175020   2.779535   1.103056   2.078351   2.755010
    29  H    4.003755   4.818887   2.553195   2.079021   1.101839
    30  H    4.239409   4.471062   2.951306   2.063836   1.101473
    31  H    5.646407   6.041149   4.511440   3.294483   2.149032
    32  H    4.659360   4.808626   3.918619   2.513277   2.145675
    33  H    4.833118   5.822522   3.851626   3.168413   2.622935
    34  H    6.859715   7.347304   6.134869   4.930300   4.326774
    35  H    6.957356   7.778783   6.199886   5.284197   4.707615
    36  H    7.013610   7.700887   5.972138   4.930593   3.953300
    37  H    5.471100   6.173694   5.175269   4.295957   4.358393
                   11         12         13         14         15
    11  C    0.000000
    12  C    1.562588   0.000000
    13  C    2.552227   1.539373   0.000000
    14  N    2.561378   1.471515   2.436833   0.000000
    15  H    5.211879   4.146957   5.035881   3.987621   0.000000
    16  H    4.421774   3.020308   3.533319   2.876922   1.786864
    17  H    5.527391   4.240065   4.967564   3.520869   1.792261
    18  H    4.454505   3.372246   4.229178   2.036387   3.521337
    19  H    4.756042   4.343159   5.453220   3.047527   5.096553
    20  H    3.315302   3.400355   4.688501   2.559837   5.151579
    21  H    5.173620   4.788172   6.193220   4.000037   3.615079
    22  H    5.722325   5.600298   6.985682   4.633048   5.297365
    23  H    5.582078   5.825792   7.361199   5.441658   5.230294
    24  H    4.519224   5.230813   6.598708   4.796125   6.717984
    25  H    5.439259   6.257866   7.715709   6.047713   7.126474
    26  H    6.051123   6.545044   7.986746   5.932075   7.073866
    27  H    3.801256   3.933229   5.423834   4.040882   3.624542
    28  H    4.183475   4.901257   6.372506   5.136837   5.403791
    29  H    2.171463   2.762727   3.978895   3.700442   4.403456
    30  H    2.168758   3.531865   4.610530   4.394209   6.046909
    31  H    1.093802   2.146450   2.522870   3.401414   5.874652
    32  H    1.094484   2.197074   3.026978   2.684076   5.928740
    33  H    2.155153   1.091870   2.168947   2.055382   3.277161
    34  H    2.839120   2.191381   1.096843   2.729756   5.947550
    35  H    3.516551   2.191272   1.096838   2.679626   4.727993
    36  H    2.752958   2.168900   1.094033   3.389231   5.474419
    37  H    3.328444   2.087086   2.383634   1.038490   4.398008
                   16         17         18         19         20
    16  H    0.000000
    17  H    1.774286   0.000000
    18  H    2.852899   2.322520   0.000000
    19  H    4.822414   4.220106   2.193636   0.000000
    20  H    4.825496   4.798096   2.940784   1.750762   0.000000
    21  H    4.342001   3.534635   3.085474   2.739651   3.022074
    22  H    5.751187   4.919245   3.751861   2.249576   2.747353
    23  H    6.115458   5.688366   5.175319   4.257288   3.765470
    24  H    6.809387   6.732459   5.176286   3.551249   2.380416
    25  H    7.585142   7.493478   6.367600   4.938040   3.860959
    26  H    7.516567   7.060344   5.752216   3.969513   3.489809
    27  H    4.325075   4.550404   4.400203   4.427933   3.505387
    28  H    5.989510   6.271893   5.754030   5.214562   3.947721
    29  H    4.335259   5.369576   5.039511   5.423371   4.058950
    30  H    5.832710   6.783995   5.937433   5.773456   4.103901
    31  H    4.978437   6.296192   5.378010   5.813001   4.383849
    32  H    5.091903   5.993697   4.516962   4.416115   2.905607
    33  H    2.369309   3.745561   3.488336   4.687914   3.845259
    34  H    4.412743   5.663512   4.537463   5.499550   4.742073
    35  H    3.036670   4.479383   4.049222   5.635335   5.186252
    36  H    4.091751   5.695954   5.206010   6.399869   5.469652
    37  H    2.997737   3.600496   2.094938   3.420023   3.315225
                   21         22         23         24         25
    21  H    0.000000
    22  H    1.748691   0.000000
    23  H    2.353809   2.491104   0.000000
    24  H    3.885941   3.028619   3.070266   0.000000
    25  H    4.312114   3.690525   2.494240   1.765436   0.000000
    26  H    3.693454   2.456488   2.476428   1.770978   1.770343
    27  H    2.689803   3.802193   2.460498   3.850669   3.767712
    28  H    3.844041   4.310710   2.421443   3.212776   2.542327
    29  H    4.661180   5.605355   4.611287   4.698422   4.931787
    30  H    5.512827   5.968358   4.985536   4.120912   4.371507
    31  H    6.216842   6.811083   6.541475   5.450201   6.275049
    32  H    5.329750   5.543778   5.691346   4.043460   5.210936
    33  H    4.509657   5.621311   5.552980   5.542458   6.322589
    34  H    6.682787   7.233321   7.823867   6.641786   7.922745
    35  H    6.327589   7.240869   7.775011   7.277085   8.406542
    36  H    6.894449   7.769036   7.853296   7.159677   8.124402
    37  H    4.709427   5.283380   6.357774   5.641484   6.992335
                   26         27         28         29         30
    26  H    0.000000
    27  H    4.329065   0.000000
    28  H    3.755709   1.783840   0.000000
    29  H    5.853248   2.371003   2.818599   0.000000
    30  H    5.557875   3.395886   2.890178   1.775913   0.000000
    31  H    7.033192   4.629450   4.899216   2.583081   2.400426
    32  H    5.697304   4.322211   4.485348   3.061366   2.561120
    33  H    6.680198   3.405899   4.615042   2.340733   3.622013
    34  H    8.121454   6.093750   6.879207   4.671627   4.954523
    35  H    8.530781   5.848497   7.019657   4.670365   5.544136
    36  H    8.600699   5.733897   6.570143   3.927053   4.525600
    37  H    6.742343   5.027184   6.172829   4.637007   5.319942
                   31         32         33         34         35
    31  H    0.000000
    32  H    1.758062   0.000000
    33  H    2.657006   3.030606   0.000000
    34  H    2.769466   2.926085   3.087089   0.000000
    35  H    3.577807   3.999014   2.512368   1.773131   0.000000
    36  H    2.304142   3.407910   2.514959   1.774234   1.775607
    37  H    3.994127   3.362879   2.708262   2.487846   2.311659
                   36         37
    36  H    0.000000
    37  H    3.461071   0.000000
 Stoichiometry    C11H23NO2
 Framework group  C1[X(C11H23NO2)]
 Deg. of freedom   105
 Full point group                 C1      NOp   1
 Largest Abelian subgroup         C1      NOp   1
 Largest concise Abelian subgroup C1      NOp   1
                         Standard orientation:                         
 ---------------------------------------------------------------------
 Center     Atomic      Atomic             Coordinates (Angstroms)
 Number     Number       Type             X           Y           Z
 ---------------------------------------------------------------------
      1          6           0       -1.450698   -2.441504   -1.316894
      2          8           0       -0.460858   -1.590467   -0.738455
      3          6           0       -0.551281   -1.386053    0.650588
      4          6           0        0.829888   -1.033965    1.286082
      5          6           0        2.054986   -1.324031    0.386565
      6          6           0        2.734995   -0.114996   -0.307656
      7          6           0        3.532658    0.747000    0.685448
      8          6           0        1.771418    0.739057   -1.138453
      9          8           0        0.856305    1.350813   -0.247966
     10          6           0       -0.192404    2.118399   -0.786591
     11          6           0       -1.375420    2.002900    0.169691
     12          6           0       -2.142538    0.643173    0.103718
     13          6           0       -3.629959    0.839568    0.448212
     14          7           0       -1.609696   -0.417997    0.972830
     15          1           0       -1.190005   -2.540883   -2.376549
     16          1           0       -2.474429   -2.041843   -1.238966
     17          1           0       -1.444252   -3.430733   -0.841712
     18          1           0       -0.904125   -2.322065    1.126336
     19          1           0        0.895745   -1.655729    2.188645
     20          1           0        0.830533    0.000012    1.623457
     21          1           0        1.780190   -2.060908   -0.372463
     22          1           0        2.810429   -1.805677    1.017280
     23          1           0        3.449078   -0.536286   -1.028782
     24          1           0        2.883480    1.191662    1.445249
     25          1           0        4.046362    1.567222    0.171112
     26          1           0        4.291219    0.145984    1.197876
     27          1           0        1.224951    0.111715   -1.857878
     28          1           0        2.331204    1.502660   -1.704386
     29          1           0       -0.473873    1.764356   -1.791319
     30          1           0        0.118509    3.170681   -0.882912
     31          1           0       -2.105282    2.782518   -0.066744
     32          1           0       -1.025704    2.192822    1.189262
     33          1           0       -2.044534    0.265664   -0.916117
     34          1           0       -3.758211    1.187545    1.480456
     35          1           0       -4.192488   -0.095331    0.336067
     36          1           0       -4.068583    1.586300   -0.220299
     37          1           0       -2.365788   -0.873764    1.519696
 ---------------------------------------------------------------------
 Rotational constants (GHZ):           0.9222517           0.5344018           0.4185089
 Standard basis: 6-31+G(2df,p) (6D, 7F)
 There are   605 symmetry adapted cartesian basis functions of A   symmetry.
 There are   563 symmetry adapted basis functions of A   symmetry.
   563 basis functions,   833 primitive gaussians,   605 cartesian basis functions
    56 alpha electrons       56 beta electrons
       nuclear repulsion energy      1054.0969695153 Hartrees.
 NAtoms=   37 NActive=   37 NUniq=   37 SFac= 1.00D+00 NAtFMM=   60 NAOKFM=F Big=F
 Integral buffers will be    131072 words long.
 Regular integral format.
 Two-electron integral symmetry is turned on.
 One-electron integrals computed using PRISM.
 PrsmSu:  requested number of processors reduced to:  12 ShMem   1 Linda.
 NBasis=   563 RedAO= T EigKep=  9.45D-06  NBF=   563
 NBsUse=   563 1.00D-06 EigRej= -1.00D+00 NBFU=   563
 Initial guess from the checkpoint file:  "COC1CCCqCrCOCCCqCrN1.chk"
 B after Tr=     0.000000   -0.000000   -0.000000
         Rot=    0.999947    0.007771    0.002645   -0.006264 Ang=   1.18 deg.
 ExpMin= 4.38D-02 ExpMax= 5.48D+03 ExpMxC= 8.25D+02 IAcc=2 IRadAn=         4 AccDes= 0.00D+00
 Harris functional with IExCor=  402 and IRadAn=       4 diagonalized for initial guess.
 HarFok:  IExCor=  402 AccDes= 0.00D+00 IRadAn=         4 IDoV= 1 UseB2=F ITyADJ=14
 ICtDFT=  3500011 ScaDFX=  1.000000  1.000000  1.000000  1.000000
 FoFCou: FMM=F IPFlag=           0 FMFlag=      100000 FMFlg1=           0
         NFxFlg=           0 DoJE=T BraDBF=F KetDBF=T FulRan=T
         wScrn=  0.000000 ICntrl=       500 IOpCl=  0 I1Cent=   200000004 NGrid=           0
         NMat0=    1 NMatS0=      1 NMatT0=    0 NMatD0=    1 NMtDS0=    0 NMtDT0=    0
 Petite list used in FoFCou.
 Requested convergence on RMS density matrix=1.00D-08 within 128 cycles.
 Requested convergence on MAX density matrix=1.00D-06.
 Requested convergence on             energy=1.00D-06.
 No special actions if energy rises.
 SCF Done:  E(RB3LYP) =  -638.245274702     A.U. after   12 cycles
            NFock= 12  Conv=0.13D-08     -V/T= 2.0082
 DoSCS=F DFT=T ScalE2(SS,OS)=  1.000000  1.000000
 ExpMin= 4.38D-02 ExpMax= 5.48D+03 ExpMxC= 8.25D+02 IAcc=3 IRadAn=         5 AccDes= 0.00D+00
 HarFok:  IExCor=  205 AccDes= 0.00D+00 IRadAn=         5 IDoV=-2 UseB2=F ITyADJ=14
 ICtDFT= 12500011 ScaDFX=  1.000000  1.000000  1.000000  1.000000
 Range of M.O.s used for correlation:    15   563
 NBasis=   563 NAE=    56 NBE=    56 NFC=    14 NFV=     0
 NROrb=    549 NOA=    42 NOB=    42 NVA=   507 NVB=   507

 **** Warning!!: The largest alpha MO coefficient is  0.60165770D+02

 Orbital symmetries:
       Occupied  (A) (A) (A) (A) (A) (A) (A) (A) (A) (A) (A) (A)
                 (A) (A) (A) (A) (A) (A) (A) (A) (A) (A) (A) (A)
                 (A) (A) (A) (A) (A) (A) (A) (A) (A) (A) (A) (A)
                 (A) (A) (A) (A) (A) (A) (A) (A) (A) (A) (A) (A)
                 (A) (A) (A) (A) (A) (A) (A) (A)
       Virtual   (A) (A) (A) (A) (A) (A) (A) (A) (A) (A) (A) (A)
                 (A) (A) (A) (A) (A) (A) (A) (A) (A) (A) (A) (A)
                 (A) (A) (A) (A) (A) (A) (A) (A) (A) (A) (A) (A)
                 (A) (A) (A) (A) (A) (A) (A) (A) (A) (A) (A) (A)
                 (A) (A) (A) (A) (A) (A) (A) (A) (A) (A) (A) (A)
                 (A) (A) (A) (A) (A) (A) (A) (A) (A) (A) (A) (A)
                 (A) (A) (A) (A) (A) (A) (A) (A) (A) (A) (A) (A)
                 (A) (A) (A) (A) (A) (A) (A) (A) (A) (A) (A) (A)
                 (A) (A) (A) (A) (A) (A) (A) (A) (A) (A) (A) (A)
                 (A) (A) (A) (A) (A) (A) (A) (A) (A) (A) (A) (A)
                 (A) (A) (A) (A) (A) (A) (A) (A) (A) (A) (A) (A)
                 (A) (A) (A) (A) (A) (A) (A) (A) (A) (A) (A) (A)
                 (A) (A) (A) (A) (A) (A) (A) (A) (A) (A) (A) (A)
                 (A) (A) (A) (A) (A) (A) (A) (A) (A) (A) (A) (A)
                 (A) (A) (A) (A) (A) (A) (A) (A) (A) (A) (A) (A)
                 (A) (A) (A) (A) (A) (A) (A) (A) (A) (A) (A) (A)
                 (A) (A) (A) (A) (A) (A) (A) (A) (A) (A) (A) (A)
                 (A) (A) (A) (A) (A) (A) (A) (A) (A) (A) (A) (A)
                 (A) (A) (A) (A) (A) (A) (A) (A) (A) (A) (A) (A)
                 (A) (A) (A) (A) (A) (A) (A) (A) (A) (A) (A) (A)
                 (A) (A) (A) (A) (A) (A) (A) (A) (A) (A) (A) (A)
                 (A) (A) (A) (A) (A) (A) (A) (A) (A) (A) (A) (A)
                 (A) (A) (A) (A) (A) (A) (A) (A) (A) (A) (A) (A)
                 (A) (A) (A) (A) (A) (A) (A) (A) (A) (A) (A) (A)
                 (A) (A) (A) (A) (A) (A) (A) (A) (A) (A) (A) (A)
                 (A) (A) (A) (A) (A) (A) (A) (A) (A) (A) (A) (A)
                 (A) (A) (A) (A) (A) (A) (A) (A) (A) (A) (A) (A)
                 (A) (A) (A) (A) (A) (A) (A) (A) (A) (A) (A) (A)
                 (A) (A) (A) (A) (A) (A) (A) (A) (A) (A) (A) (A)
                 (A) (A) (A) (A) (A) (A) (A) (A) (A) (A) (A) (A)
                 (A) (A) (A) (A) (A) (A) (A) (A) (A) (A) (A) (A)
                 (A) (A) (A) (A) (A) (A) (A) (A) (A) (A) (A) (A)
                 (A) (A) (A) (A) (A) (A) (A) (A) (A) (A) (A) (A)
                 (A) (A) (A) (A) (A) (A) (A) (A) (A) (A) (A) (A)
                 (A) (A) (A) (A) (A) (A) (A) (A) (A) (A) (A) (A)
                 (A) (A) (A) (A) (A) (A) (A) (A) (A) (A) (A) (A)
                 (A) (A) (A) (A) (A) (A) (A) (A) (A) (A) (A) (A)
                 (A) (A) (A) (A) (A) (A) (A) (A) (A) (A) (A) (A)
                 (A) (A) (A) (A) (A) (A) (A) (A) (A) (A) (A) (A)
                 (A) (A) (A) (A) (A) (A) (A) (A) (A) (A) (A) (A)
                 (A) (A) (A) (A) (A) (A) (A) (A) (A) (A) (A) (A)
                 (A) (A) (A) (A) (A) (A) (A) (A) (A) (A) (A) (A)
                 (A) (A) (A)
 Generating guess from densities on rwf.
 Convergence on wavefunction:    0.000001000000000
 Iteration     1 Dimension    20 NMult     0 NNew     20
 CISAX will form     3 AO SS matrices at one time.
 New state      5 was old state      8
 New state      6 was old state     10
 New state      7 was old state      5
 New state      8 was old state      7
 New state      9 was old state      6
 New state     10 was old state      9
 Iteration     2 Dimension    40 NMult    20 NNew     20
slurmstepd: error: *** JOB 27500991 ON lewis4-r630-hpc4-node670 CANCELLED AT 2023-05-26T10:11:30 DUE TO TIME LIMIT ***
