### Starting Gaussian ###
 Entering Gaussian System, Link 0=g16
 Initial command:
 /cluster/software/gaussian/gaussian-16-A.03/avx2/g16/l1.exe "/local/scratch/linjian/Gau-3061.inp" -scrdir="/local/scratch/linjian/"
 Entering Link 1 = /cluster/software/gaussian/gaussian-16-A.03/avx2/g16/l1.exe PID=      3062.
  
 Copyright (c) 1988,1990,1992,1993,1995,1998,2003,2009,2016,
            Gaussian, Inc.  All Rights Reserved.
  
 This is part of the Gaussian(R) 16 program.  It is based on
 the Gaussian(R) 09 system (copyright 2009, Gaussian, Inc.),
 the Gaussian(R) 03 system (copyright 2003, Gaussian, Inc.),
 the Gaussian(R) 98 system (copyright 1998, Gaussian, Inc.),
 the Gaussian(R) 94 system (copyright 1995, Gaussian, Inc.),
 the Gaussian 92(TM) system (copyright 1992, Gaussian, Inc.),
 the Gaussian 90(TM) system (copyright 1990, Gaussian, Inc.),
 the Gaussian 88(TM) system (copyright 1988, Gaussian, Inc.),
 the Gaussian 86(TM) system (copyright 1986, Carnegie Mellon
 University), and the Gaussian 82(TM) system (copyright 1983,
 Carnegie Mellon University). Gaussian is a federally registered
 trademark of Gaussian, Inc.
  
 This software contains proprietary and confidential information,
 including trade secrets, belonging to Gaussian, Inc.
  
 This software is provided under written license and may be
 used, copied, transmitted, or stored only in accord with that
 written license.
  
 The following legend is applicable only to US Government
 contracts under FAR:
  
                    RESTRICTED RIGHTS LEGEND
  
 Use, reproduction and disclosure by the US Government is
 subject to restrictions as set forth in subparagraphs (a)
 and (c) of the Commercial Computer Software - Restricted
 Rights clause in FAR 52.227-19.
  
 Gaussian, Inc.
 340 Quinnipiac St., Bldg. 40, Wallingford CT 06492
  
  
 ---------------------------------------------------------------
 Warning -- This program may not be used in any manner that
 competes with the business of Gaussian, Inc. or will provide
 assistance to any competitor of Gaussian, Inc.  The licensee
 of this program is prohibited from giving any competitor of
 Gaussian, Inc. access to this program.  By using this program,
 the user acknowledges that Gaussian, Inc. is engaged in the
 business of creating and licensing software in the field of
 computational chemistry and represents and warrants to the
 licensee that it is not a competitor of Gaussian, Inc. and that
 it will not use this program in any manner prohibited above.
 ---------------------------------------------------------------
  

 Cite this work as:
 Gaussian 16, Revision A.03,
 M. J. Frisch, G. W. Trucks, H. B. Schlegel, G. E. Scuseria, 
 M. A. Robb, J. R. Cheeseman, G. Scalmani, V. Barone, 
 G. A. Petersson, H. Nakatsuji, X. Li, M. Caricato, A. V. Marenich, 
 J. Bloino, B. G. Janesko, R. Gomperts, B. Mennucci, H. P. Hratchian, 
 J. V. Ortiz, A. F. Izmaylov, J. L. Sonnenberg, D. Williams-Young, 
 F. Ding, F. Lipparini, F. Egidi, J. Goings, B. Peng, A. Petrone, 
 T. Henderson, D. Ranasinghe, V. G. Zakrzewski, J. Gao, N. Rega, 
 G. Zheng, W. Liang, M. Hada, M. Ehara, K. Toyota, R. Fukuda, 
 J. Hasegawa, M. Ishida, T. Nakajima, Y. Honda, O. Kitao, H. Nakai, 
 T. Vreven, K. Throssell, J. A. Montgomery, Jr., J. E. Peralta, 
 F. Ogliaro, M. J. Bearpark, J. J. Heyd, E. N. Brothers, K. N. Kudin, 
 V. N. Staroverov, T. A. Keith, R. Kobayashi, J. Normand, 
 K. Raghavachari, A. P. Rendell, J. C. Burant, S. S. Iyengar, 
 J. Tomasi, M. Cossi, J. M. Millam, M. Klene, C. Adamo, R. Cammi, 
 J. W. Ochterski, R. L. Martin, K. Morokuma, O. Farkas, 
 J. B. Foresman, and D. J. Fox, Gaussian, Inc., Wallingford CT, 2016.
 
 ******************************************
 Gaussian 16:  ES64L-G16RevA.03 25-Dec-2016
                22-May-2023 
 ******************************************
 %chk=COC1CCC2qOOrCCCCCCOC12.chk
 %NProcShared=20
 Will use up to   20 processors via shared memory.
 -----------------------------
 # opt freq b3lyp/6-31g(2df,p)
 -----------------------------
 1/18=20,19=15,26=3,38=1/1,3;
 2/9=110,12=2,17=6,18=5,40=1/2;
 3/5=1,6=6,7=104,11=2,25=1,30=1,71=1,74=-5/1,2,3;
 4//1;
 5/5=2,38=5/2;
 6/7=2,8=2,9=2,10=2,28=1/1;
 7//1,2,3,16;
 1/18=20,19=15,26=3/3(2);
 2/9=110/2;
 99//99;
 2/9=110/2;
 3/5=1,6=6,7=104,11=2,25=1,30=1,71=1,74=-5/1,2,3;
 4/5=5,16=3,69=1/1;
 5/5=2,38=5/2;
 7//1,2,3,16;
 1/18=20,19=15,26=3/3(-5);
 2/9=110/2;
 6/7=2,8=2,9=2,10=2,19=2,28=1/1;
 99/9=1/99;
 -------------------
 Title Card Required
 -------------------
 Symbolic Z-matrix:
 Charge =  0 Multiplicity = 1
 C                     1.23438   0.12414  -0.08287 
 O                     2.63721   0.26783   0.28972 
 C                     2.90943  -0.68817   1.30446 
 C                     3.45557  -1.95516   0.70146 
 C                     3.00051  -2.86811   1.8092 
 C                     3.80557  -2.28138   3.00689 
 O                     5.12968  -2.9464    2.86473 
 O                     5.27139  -4.0114    3.89463 
 C                     3.08103  -2.77977   4.27072 
 C                     3.87417  -2.52783   5.54677 
 C                     3.24331  -1.40338   6.327 
 C                     4.10156  -0.15756   6.19006 
 C                     3.34616   0.95459   5.48794 
 C                     4.01412   1.23328   4.15666 
 O                     3.2384    0.45554   3.2583 
 C                     3.86895  -0.5945    2.53142 
 H                     1.05937   0.39695  -1.12667 
 H                     0.63652   0.77541   0.56443 
 H                     0.86727  -0.90872   0.04549 
 H                     1.93883  -0.78365   1.81639 
 H                     4.56024  -1.90214   0.66931 
 H                     3.14272  -2.18887  -0.31022 
 H                     3.16653  -3.91824   1.58462 
 H                     1.9171   -2.74025   1.98493 
 H                     5.50571  -4.78542   3.30394 
 H                     2.97254  -3.87804   4.19821 
 H                     2.04295  -2.43263   4.32163 
 H                     4.92155  -2.30289   5.31517 
 H                     3.91415  -3.43325   6.16565 
 H                     3.16692  -1.69059   7.37743 
 H                     2.21443  -1.24155   5.98827 
 H                     5.03837  -0.36785   5.65692 
 H                     4.41514   0.17435   7.18107 
 H                     3.31061   1.83577   6.13051 
 H                     2.29934   0.67516   5.2952 
 H                     5.08508   1.00303   4.10741 
 H                     3.91289   2.30616   3.93636 
 H                     4.87527  -0.28876   2.21012 
 

 GradGradGradGradGradGradGradGradGradGradGradGradGradGradGradGradGradGrad
 Berny optimization.
 Initialization pass.
                           ----------------------------
                           !    Initial Parameters    !
                           ! (Angstroms and Degrees)  !
 --------------------------                            --------------------------
 ! Name  Definition              Value          Derivative Info.                !
 --------------------------------------------------------------------------------
 ! R1    R(1,2)                  1.4586         estimate D2E/DX2                !
 ! R2    R(1,17)                 1.093          estimate D2E/DX2                !
 ! R3    R(1,18)                 1.0957         estimate D2E/DX2                !
 ! R4    R(1,19)                 1.1037         estimate D2E/DX2                !
 ! R5    R(2,3)                  1.4205         estimate D2E/DX2                !
 ! R6    R(3,4)                  1.5057         estimate D2E/DX2                !
 ! R7    R(3,16)                 1.5604         estimate D2E/DX2                !
 ! R8    R(3,20)                 1.1015         estimate D2E/DX2                !
 ! R9    R(4,5)                  1.5059         estimate D2E/DX2                !
 ! R10   R(4,21)                 1.1064         estimate D2E/DX2                !
 ! R11   R(4,22)                 1.0844         estimate D2E/DX2                !
 ! R12   R(5,6)                  1.5578         estimate D2E/DX2                !
 ! R13   R(5,23)                 1.0866         estimate D2E/DX2                !
 ! R14   R(5,24)                 1.105          estimate D2E/DX2                !
 ! R15   R(6,7)                  1.4885         estimate D2E/DX2                !
 ! R16   R(6,9)                  1.5397         estimate D2E/DX2                !
 ! R17   R(6,16)                 1.7538         estimate D2E/DX2                !
 ! R18   R(7,8)                  1.4883         estimate D2E/DX2                !
 ! R19   R(8,25)                 1.0015         estimate D2E/DX2                !
 ! R20   R(9,10)                 1.5234         estimate D2E/DX2                !
 ! R21   R(9,26)                 1.106          estimate D2E/DX2                !
 ! R22   R(9,27)                 1.0958         estimate D2E/DX2                !
 ! R23   R(10,11)                1.507          estimate D2E/DX2                !
 ! R24   R(10,28)                1.096          estimate D2E/DX2                !
 ! R25   R(10,29)                1.0974         estimate D2E/DX2                !
 ! R26   R(11,12)                1.519          estimate D2E/DX2                !
 ! R27   R(11,30)                1.0917         estimate D2E/DX2                !
 ! R28   R(11,31)                1.0952         estimate D2E/DX2                !
 ! R29   R(12,13)                1.5167         estimate D2E/DX2                !
 ! R30   R(12,32)                1.0982         estimate D2E/DX2                !
 ! R31   R(12,33)                1.0911         estimate D2E/DX2                !
 ! R32   R(13,14)                1.5153         estimate D2E/DX2                !
 ! R33   R(13,34)                1.0912         estimate D2E/DX2                !
 ! R34   R(13,35)                1.1005         estimate D2E/DX2                !
 ! R35   R(14,15)                1.419          estimate D2E/DX2                !
 ! R36   R(14,36)                1.0965         estimate D2E/DX2                !
 ! R37   R(14,37)                1.0999         estimate D2E/DX2                !
 ! R38   R(15,16)                1.4243         estimate D2E/DX2                !
 ! R39   R(16,38)                1.0997         estimate D2E/DX2                !
 ! A1    A(2,1,17)             111.9239         estimate D2E/DX2                !
 ! A2    A(2,1,18)             108.3803         estimate D2E/DX2                !
 ! A3    A(2,1,19)             112.4829         estimate D2E/DX2                !
 ! A4    A(17,1,18)            109.1749         estimate D2E/DX2                !
 ! A5    A(17,1,19)            106.9421         estimate D2E/DX2                !
 ! A6    A(18,1,19)            107.8214         estimate D2E/DX2                !
 ! A7    A(1,2,3)              107.4877         estimate D2E/DX2                !
 ! A8    A(2,3,4)              110.4714         estimate D2E/DX2                !
 ! A9    A(2,3,16)             129.7288         estimate D2E/DX2                !
 ! A10   A(2,3,20)             102.7962         estimate D2E/DX2                !
 ! A11   A(4,3,16)              98.1851         estimate D2E/DX2                !
 ! A12   A(4,3,20)             115.6457         estimate D2E/DX2                !
 ! A13   A(16,3,20)            100.4633         estimate D2E/DX2                !
 ! A14   A(3,4,5)               96.0813         estimate D2E/DX2                !
 ! A15   A(3,4,21)             109.4788         estimate D2E/DX2                !
 ! A16   A(3,4,22)             116.764          estimate D2E/DX2                !
 ! A17   A(5,4,21)             110.6185         estimate D2E/DX2                !
 ! A18   A(5,4,22)             117.9322         estimate D2E/DX2                !
 ! A19   A(21,4,22)            105.7391         estimate D2E/DX2                !
 ! A20   A(4,5,6)              100.4309         estimate D2E/DX2                !
 ! A21   A(4,5,23)             112.8109         estimate D2E/DX2                !
 ! A22   A(4,5,24)             110.0673         estimate D2E/DX2                !
 ! A23   A(6,5,23)             116.3543         estimate D2E/DX2                !
 ! A24   A(6,5,24)             109.9281         estimate D2E/DX2                !
 ! A25   A(23,5,24)            107.1271         estimate D2E/DX2                !
 ! A26   A(5,6,7)              102.5921         estimate D2E/DX2                !
 ! A27   A(5,6,9)              105.4249         estimate D2E/DX2                !
 ! A28   A(5,6,16)              99.9337         estimate D2E/DX2                !
 ! A29   A(7,6,9)              110.6327         estimate D2E/DX2                !
 ! A30   A(7,6,16)             111.8196         estimate D2E/DX2                !
 ! A31   A(9,6,16)             123.429          estimate D2E/DX2                !
 ! A32   A(6,7,8)              109.7738         estimate D2E/DX2                !
 ! A33   A(7,8,25)              99.6243         estimate D2E/DX2                !
 ! A34   A(6,9,10)             112.8935         estimate D2E/DX2                !
 ! A35   A(6,9,26)             108.2873         estimate D2E/DX2                !
 ! A36   A(6,9,27)             112.42           estimate D2E/DX2                !
 ! A37   A(10,9,26)            105.6765         estimate D2E/DX2                !
 ! A38   A(10,9,27)            113.6976         estimate D2E/DX2                !
 ! A39   A(26,9,27)            102.9856         estimate D2E/DX2                !
 ! A40   A(9,10,11)            109.8226         estimate D2E/DX2                !
 ! A41   A(9,10,28)            110.7609         estimate D2E/DX2                !
 ! A42   A(9,10,29)            110.7861         estimate D2E/DX2                !
 ! A43   A(11,10,28)           110.8735         estimate D2E/DX2                !
 ! A44   A(11,10,29)           109.808          estimate D2E/DX2                !
 ! A45   A(28,10,29)           104.695          estimate D2E/DX2                !
 ! A46   A(10,11,12)           109.1931         estimate D2E/DX2                !
 ! A47   A(10,11,30)           109.3393         estimate D2E/DX2                !
 ! A48   A(10,11,31)           110.083          estimate D2E/DX2                !
 ! A49   A(12,11,30)           110.0023         estimate D2E/DX2                !
 ! A50   A(12,11,31)           112.4397         estimate D2E/DX2                !
 ! A51   A(30,11,31)           105.708          estimate D2E/DX2                !
 ! A52   A(11,12,13)           111.2054         estimate D2E/DX2                !
 ! A53   A(11,12,32)           111.6345         estimate D2E/DX2                !
 ! A54   A(11,12,33)           109.2672         estimate D2E/DX2                !
 ! A55   A(13,12,32)           109.9089         estimate D2E/DX2                !
 ! A56   A(13,12,33)           109.9086         estimate D2E/DX2                !
 ! A57   A(32,12,33)           104.7148         estimate D2E/DX2                !
 ! A58   A(12,13,14)           108.7847         estimate D2E/DX2                !
 ! A59   A(12,13,34)           109.6193         estimate D2E/DX2                !
 ! A60   A(12,13,35)           111.6323         estimate D2E/DX2                !
 ! A61   A(14,13,34)           112.5324         estimate D2E/DX2                !
 ! A62   A(14,13,35)           108.1884         estimate D2E/DX2                !
 ! A63   A(34,13,35)           106.0931         estimate D2E/DX2                !
 ! A64   A(13,14,15)           102.3817         estimate D2E/DX2                !
 ! A65   A(13,14,36)           115.5544         estimate D2E/DX2                !
 ! A66   A(13,14,37)           108.3479         estimate D2E/DX2                !
 ! A67   A(15,14,36)           112.9783         estimate D2E/DX2                !
 ! A68   A(15,14,37)           110.9461         estimate D2E/DX2                !
 ! A69   A(36,14,37)           106.601          estimate D2E/DX2                !
 ! A70   A(14,15,16)           119.0222         estimate D2E/DX2                !
 ! A71   A(3,16,6)              97.6555         estimate D2E/DX2                !
 ! A72   A(3,16,15)             99.9807         estimate D2E/DX2                !
 ! A73   A(3,16,38)            110.4657         estimate D2E/DX2                !
 ! A74   A(6,16,15)            123.6951         estimate D2E/DX2                !
 ! A75   A(6,16,38)            112.3148         estimate D2E/DX2                !
 ! A76   A(15,16,38)           110.442          estimate D2E/DX2                !
 ! D1    D(17,1,2,3)          -150.3184         estimate D2E/DX2                !
 ! D2    D(18,1,2,3)            89.229          estimate D2E/DX2                !
 ! D3    D(19,1,2,3)           -29.885          estimate D2E/DX2                !
 ! D4    D(1,2,3,4)             93.7576         estimate D2E/DX2                !
 ! D5    D(1,2,3,16)          -145.7218         estimate D2E/DX2                !
 ! D6    D(1,2,3,20)           -30.1969         estimate D2E/DX2                !
 ! D7    D(2,3,4,5)           -154.1782         estimate D2E/DX2                !
 ! D8    D(2,3,4,21)            91.4083         estimate D2E/DX2                !
 ! D9    D(2,3,4,22)           -28.6339         estimate D2E/DX2                !
 ! D10   D(16,3,4,5)            67.8378         estimate D2E/DX2                !
 ! D11   D(16,3,4,21)          -46.5757         estimate D2E/DX2                !
 ! D12   D(16,3,4,22)         -166.6179         estimate D2E/DX2                !
 ! D13   D(20,3,4,5)           -37.98           estimate D2E/DX2                !
 ! D14   D(20,3,4,21)         -152.3935         estimate D2E/DX2                !
 ! D15   D(20,3,4,22)           87.5643         estimate D2E/DX2                !
 ! D16   D(2,3,16,6)          -169.2947         estimate D2E/DX2                !
 ! D17   D(2,3,16,15)           64.405          estimate D2E/DX2                !
 ! D18   D(2,3,16,38)          -51.9667         estimate D2E/DX2                !
 ! D19   D(4,3,16,6)           -43.9166         estimate D2E/DX2                !
 ! D20   D(4,3,16,15)         -170.217          estimate D2E/DX2                !
 ! D21   D(4,3,16,38)           73.4114         estimate D2E/DX2                !
 ! D22   D(20,3,16,6)           74.1966         estimate D2E/DX2                !
 ! D23   D(20,3,16,15)         -52.1037         estimate D2E/DX2                !
 ! D24   D(20,3,16,38)        -168.4754         estimate D2E/DX2                !
 ! D25   D(3,4,5,6)            -62.1699         estimate D2E/DX2                !
 ! D26   D(3,4,5,23)           173.2815         estimate D2E/DX2                !
 ! D27   D(3,4,5,24)            53.6929         estimate D2E/DX2                !
 ! D28   D(21,4,5,6)            51.307          estimate D2E/DX2                !
 ! D29   D(21,4,5,23)          -73.2416         estimate D2E/DX2                !
 ! D30   D(21,4,5,24)          167.1698         estimate D2E/DX2                !
 ! D31   D(22,4,5,6)           173.145          estimate D2E/DX2                !
 ! D32   D(22,4,5,23)           48.5964         estimate D2E/DX2                !
 ! D33   D(22,4,5,24)          -70.9921         estimate D2E/DX2                !
 ! D34   D(4,5,6,7)            -83.5585         estimate D2E/DX2                !
 ! D35   D(4,5,6,9)            160.5807         estimate D2E/DX2                !
 ! D36   D(4,5,6,16)            31.6406         estimate D2E/DX2                !
 ! D37   D(23,5,6,7)            38.5234         estimate D2E/DX2                !
 ! D38   D(23,5,6,9)           -77.3374         estimate D2E/DX2                !
 ! D39   D(23,5,6,16)          153.7225         estimate D2E/DX2                !
 ! D40   D(24,5,6,7)           160.4744         estimate D2E/DX2                !
 ! D41   D(24,5,6,9)            44.6136         estimate D2E/DX2                !
 ! D42   D(24,5,6,16)          -84.3265         estimate D2E/DX2                !
 ! D43   D(5,6,7,8)           -105.0171         estimate D2E/DX2                !
 ! D44   D(9,6,7,8)              7.0269         estimate D2E/DX2                !
 ! D45   D(16,6,7,8)           148.7325         estimate D2E/DX2                !
 ! D46   D(5,6,9,10)           169.0377         estimate D2E/DX2                !
 ! D47   D(5,6,9,26)            52.3925         estimate D2E/DX2                !
 ! D48   D(5,6,9,27)           -60.7086         estimate D2E/DX2                !
 ! D49   D(7,6,9,10)            58.8227         estimate D2E/DX2                !
 ! D50   D(7,6,9,26)           -57.8225         estimate D2E/DX2                !
 ! D51   D(7,6,9,27)          -170.9236         estimate D2E/DX2                !
 ! D52   D(16,6,9,10)          -77.5991         estimate D2E/DX2                !
 ! D53   D(16,6,9,26)          165.7557         estimate D2E/DX2                !
 ! D54   D(16,6,9,27)           52.6547         estimate D2E/DX2                !
 ! D55   D(5,6,16,3)             7.4921         estimate D2E/DX2                !
 ! D56   D(5,6,16,15)          114.9385         estimate D2E/DX2                !
 ! D57   D(5,6,16,38)         -108.3898         estimate D2E/DX2                !
 ! D58   D(7,6,16,3)           115.4625         estimate D2E/DX2                !
 ! D59   D(7,6,16,15)         -137.0911         estimate D2E/DX2                !
 ! D60   D(7,6,16,38)           -0.4194         estimate D2E/DX2                !
 ! D61   D(9,6,16,3)          -108.5578         estimate D2E/DX2                !
 ! D62   D(9,6,16,15)           -1.1115         estimate D2E/DX2                !
 ! D63   D(9,6,16,38)          135.5603         estimate D2E/DX2                !
 ! D64   D(6,7,8,25)           126.6022         estimate D2E/DX2                !
 ! D65   D(6,9,10,11)          106.664          estimate D2E/DX2                !
 ! D66   D(6,9,10,28)          -16.1352         estimate D2E/DX2                !
 ! D67   D(6,9,10,29)         -131.8614         estimate D2E/DX2                !
 ! D68   D(26,9,10,11)        -135.1534         estimate D2E/DX2                !
 ! D69   D(26,9,10,28)         102.0474         estimate D2E/DX2                !
 ! D70   D(26,9,10,29)         -13.6788         estimate D2E/DX2                !
 ! D71   D(27,9,10,11)         -22.9399         estimate D2E/DX2                !
 ! D72   D(27,9,10,28)        -145.7391         estimate D2E/DX2                !
 ! D73   D(27,9,10,29)          98.5347         estimate D2E/DX2                !
 ! D74   D(9,10,11,12)        -105.8594         estimate D2E/DX2                !
 ! D75   D(9,10,11,30)         133.7415         estimate D2E/DX2                !
 ! D76   D(9,10,11,31)          18.0315         estimate D2E/DX2                !
 ! D77   D(28,10,11,12)         16.8733         estimate D2E/DX2                !
 ! D78   D(28,10,11,30)       -103.5258         estimate D2E/DX2                !
 ! D79   D(28,10,11,31)        140.7642         estimate D2E/DX2                !
 ! D80   D(29,10,11,12)        132.0819         estimate D2E/DX2                !
 ! D81   D(29,10,11,30)         11.6828         estimate D2E/DX2                !
 ! D82   D(29,10,11,31)       -104.0273         estimate D2E/DX2                !
 ! D83   D(10,11,12,13)        116.8024         estimate D2E/DX2                !
 ! D84   D(10,11,12,32)         -6.3468         estimate D2E/DX2                !
 ! D85   D(10,11,12,33)       -121.6946         estimate D2E/DX2                !
 ! D86   D(30,11,12,13)       -123.2058         estimate D2E/DX2                !
 ! D87   D(30,11,12,32)        113.645          estimate D2E/DX2                !
 ! D88   D(30,11,12,33)         -1.7028         estimate D2E/DX2                !
 ! D89   D(31,11,12,13)         -5.6864         estimate D2E/DX2                !
 ! D90   D(31,11,12,32)       -128.8357         estimate D2E/DX2                !
 ! D91   D(31,11,12,33)        115.8166         estimate D2E/DX2                !
 ! D92   D(11,12,13,14)       -114.2579         estimate D2E/DX2                !
 ! D93   D(11,12,13,34)        122.3094         estimate D2E/DX2                !
 ! D94   D(11,12,13,35)          5.0547         estimate D2E/DX2                !
 ! D95   D(32,12,13,14)          9.875          estimate D2E/DX2                !
 ! D96   D(32,12,13,34)       -113.5577         estimate D2E/DX2                !
 ! D97   D(32,12,13,35)        129.1876         estimate D2E/DX2                !
 ! D98   D(33,12,13,14)        124.6143         estimate D2E/DX2                !
 ! D99   D(33,12,13,34)          1.1816         estimate D2E/DX2                !
 ! D100  D(33,12,13,35)       -116.0732         estimate D2E/DX2                !
 ! D101  D(12,13,14,15)         95.8588         estimate D2E/DX2                !
 ! D102  D(12,13,14,36)        -27.3699         estimate D2E/DX2                !
 ! D103  D(12,13,14,37)       -146.8565         estimate D2E/DX2                !
 ! D104  D(34,13,14,15)       -142.4674         estimate D2E/DX2                !
 ! D105  D(34,13,14,36)         94.3039         estimate D2E/DX2                !
 ! D106  D(34,13,14,37)        -25.1827         estimate D2E/DX2                !
 ! D107  D(35,13,14,15)        -25.5823         estimate D2E/DX2                !
 ! D108  D(35,13,14,36)       -148.811          estimate D2E/DX2                !
 ! D109  D(35,13,14,37)         91.7024         estimate D2E/DX2                !
 ! D110  D(13,14,15,16)       -118.2234         estimate D2E/DX2                !
 ! D111  D(36,14,15,16)          6.7216         estimate D2E/DX2                !
 ! D112  D(37,14,15,16)        126.3649         estimate D2E/DX2                !
 ! D113  D(14,15,16,3)        -155.3552         estimate D2E/DX2                !
 ! D114  D(14,15,16,6)          98.3895         estimate D2E/DX2                !
 ! D115  D(14,15,16,38)        -38.9656         estimate D2E/DX2                !
 --------------------------------------------------------------------------------
 Trust Radius=3.00D-01 FncErr=1.00D-07 GrdErr=1.00D-06 EigMax=2.50D+02 EigMin=1.00D-04
 Number of steps in this run=    228 maximum allowed number of steps=    228.
 GradGradGradGradGradGradGradGradGradGradGradGradGradGradGradGradGradGrad

                          Input orientation:                          
 ---------------------------------------------------------------------
 Center     Atomic      Atomic             Coordinates (Angstroms)
 Number     Number       Type             X           Y           Z
 ---------------------------------------------------------------------
      1          6           0        1.234380    0.124140   -0.082870
      2          8           0        2.637210    0.267830    0.289720
      3          6           0        2.909430   -0.688170    1.304460
      4          6           0        3.455570   -1.955160    0.701460
      5          6           0        3.000510   -2.868110    1.809200
      6          6           0        3.805570   -2.281380    3.006890
      7          8           0        5.129680   -2.946400    2.864730
      8          8           0        5.271390   -4.011400    3.894630
      9          6           0        3.081030   -2.779770    4.270720
     10          6           0        3.874170   -2.527830    5.546770
     11          6           0        3.243310   -1.403380    6.327000
     12          6           0        4.101560   -0.157560    6.190060
     13          6           0        3.346160    0.954590    5.487940
     14          6           0        4.014120    1.233280    4.156660
     15          8           0        3.238400    0.455540    3.258300
     16          6           0        3.868950   -0.594500    2.531420
     17          1           0        1.059370    0.396950   -1.126670
     18          1           0        0.636520    0.775410    0.564430
     19          1           0        0.867270   -0.908720    0.045490
     20          1           0        1.938830   -0.783650    1.816390
     21          1           0        4.560240   -1.902140    0.669310
     22          1           0        3.142720   -2.188870   -0.310220
     23          1           0        3.166530   -3.918240    1.584620
     24          1           0        1.917100   -2.740250    1.984930
     25          1           0        5.505710   -4.785420    3.303940
     26          1           0        2.972540   -3.878040    4.198210
     27          1           0        2.042950   -2.432630    4.321630
     28          1           0        4.921550   -2.302890    5.315170
     29          1           0        3.914150   -3.433250    6.165650
     30          1           0        3.166920   -1.690590    7.377430
     31          1           0        2.214430   -1.241550    5.988270
     32          1           0        5.038370   -0.367850    5.656920
     33          1           0        4.415140    0.174350    7.181070
     34          1           0        3.310610    1.835770    6.130510
     35          1           0        2.299340    0.675160    5.295200
     36          1           0        5.085080    1.003030    4.107410
     37          1           0        3.912890    2.306160    3.936360
     38          1           0        4.875270   -0.288760    2.210120
 ---------------------------------------------------------------------
                    Distance matrix (angstroms):
                    1          2          3          4          5
     1  C    0.000000
     2  O    1.458562   0.000000
     3  C    2.321707   1.420471   0.000000
     4  C    3.142029   2.404356   1.505703   0.000000
     5  C    3.956350   3.503559   2.239463   1.505870   0.000000
     6  C    4.684460   3.904683   2.497930   2.354555   1.557830
     7  O    5.769742   4.813975   3.530376   2.909457   2.377738
     8  O    7.015743   6.184342   4.830289   4.209710   3.288317
     9  C    5.549464   5.033210   3.633584   3.682374   2.464420
    10  C    6.759755   6.081312   4.723586   4.896959   3.853375
    11  C    6.888799   6.293572   5.084182   5.656520   4.755513
    12  C    6.902878   6.094201   5.056858   5.811489   5.267953
    13  C    6.015246   5.291100   4.515628   5.602589   5.316544
    14  C    5.189486   4.216776   3.612112   4.734610   4.833154
    15  O    3.910158   3.034655   2.287747   3.520805   3.633611
    16  C    3.780465   2.699262   1.560411   2.317549   2.538719
    17  H    1.092965   2.124244   3.242006   3.823121   4.800831
    18  H    1.095713   2.082274   2.802825   3.927064   4.518090
    19  H    1.103651   2.139300   2.409163   2.867862   3.391253
    20  H    2.219802   1.980926   1.101478   2.217207   2.339271
    21  H    3.966476   2.924193   2.145300   1.106409   2.159909
    22  H    3.007235   2.578923   2.216690   1.084432   2.230142
    23  H    4.780645   4.413630   3.252375   2.171911   1.086633
    24  H    3.598143   3.527158   2.378821   2.151872   1.104992
    25  H    7.336111   6.545926   5.246527   4.357333   3.490896
    26  H    6.112797   5.707625   4.307324   4.019707   2.593860
    27  H    5.156596   4.888960   3.591273   3.915240   2.723760
    28  H    6.973129   6.089496   4.768830   4.853487   4.037536
    29  H    7.673343   7.060816   5.672398   5.679121   4.486956
    30  H    7.917325   7.372356   6.160529   6.687443   5.693806
    31  H    6.299551   5.910198   4.767319   5.477228   4.552828
    32  H    6.903447   5.914093   4.855811   5.438878   5.020869
    33  H    7.929980   7.117617   6.127450   6.887738   6.333619
    34  H    6.771004   6.084959   5.460950   6.623198   6.395027
    35  H    5.510118   5.033379   4.261090   5.418293   5.019820
    36  H    5.758366   4.594273   3.930666   4.796529   4.961142
    37  H    5.299985   4.368081   4.110942   5.369597   5.668361
    38  H    4.322542   3.001107   2.200971   2.658664   3.213800
                    6          7          8          9         10
     6  C    0.000000
     7  O    1.488532   0.000000
     8  O    2.435093   1.488288   0.000000
     9  C    1.539681   2.490289   2.540873   0.000000
    10  C    2.552731   2.990793   2.623503   1.523433   0.000000
    11  C    3.479964   4.233983   4.102597   2.479732   1.507027
    12  C    3.838071   4.460099   4.635686   3.406073   2.466517
    13  C    4.103434   5.027912   5.559335   3.936669   3.522713
    14  C    3.703822   4.514785   5.399635   4.121679   4.012224
    15  O    2.806353   3.912165   4.948890   3.393669   3.813371
    16  C    1.753754   2.689232   3.937053   2.901963   3.581917
    17  H    5.639272   6.608834   7.898615   6.581070   7.811033
    18  H    5.035122   6.271502   7.448879   5.687840   6.798344
    19  H    4.391776   5.501672   6.621086   5.123878   6.475110
    20  H    2.673051   3.994750   5.083641   3.363458   4.550103
    21  H    2.485484   2.496920   3.918852   3.991046   4.965058
    22  H    3.383954   3.821278   5.053080   4.619305   5.912212
    23  H    2.260649   2.537147   3.126541   2.918657   4.258242
    24  H    2.195742   3.337247   4.063747   2.565371   4.069638
    25  H    3.041206   1.927770   1.001463   3.291864   3.576160
    26  H    2.159284   2.701736   2.322640   1.105995   2.110597
    27  H    2.204143   3.451727   3.619070   1.095768   2.205311
    28  H    2.563987   2.542062   2.249295   2.169287   1.096012
    29  H    3.363980   3.551142   2.708116   2.170688   1.097450
    30  H    4.456291   5.078774   4.684533   3.293226   2.133656
    31  H    3.535760   4.600185   4.626057   2.463147   2.145734
    32  H    3.493430   3.801787   4.054062   3.401483   2.456218
    33  H    4.881185   5.374052   5.390209   4.356238   3.203960
    34  H    5.191619   6.069883   6.559971   4.981439   4.438396
    35  H    4.030660   5.199395   5.723506   3.687430   3.578061
    36  H    3.692647   4.140560   5.022399   4.283977   4.000629
    37  H    4.681982   5.497122   6.462107   5.164346   5.095329
    38  H    2.397840   2.748871   4.105184   3.697364   4.141119
                   11         12         13         14         15
    11  C    0.000000
    12  C    1.519017   0.000000
    13  C    2.504920   1.516733   0.000000
    14  C    3.500928   2.465116   1.515304   0.000000
    15  O    3.587830   3.117075   2.287347   1.419039   0.000000
    16  C    3.930921   3.691974   3.378461   2.450155   1.424265
    17  H    7.972953   7.943358   7.020928   6.110939   4.896894
    18  H    6.689521   6.672679   5.622740   4.951964   3.758860
    19  H    6.734064   6.984312   6.263951   5.602905   4.219670
    20  H    4.736173   4.919185   4.299109   3.721787   2.302950
    21  H    5.830311   5.807980   5.731849   4.721304   3.742831
    22  H    6.684295   6.877444   6.598590   5.694161   4.442566
    23  H    5.368481   6.018893   6.246010   5.819962   4.683623
    24  H    4.732824   5.396783   5.288207   4.990275   3.685157
    25  H    5.069077   5.631910   6.510087   6.259131   5.710555
    26  H    3.275516   4.368538   5.015706   5.216532   4.442300
    27  H    2.553768   3.592332   3.812072   4.165528   3.301711
    28  H    2.156249   2.457693   3.622551   3.830153   3.830489
    29  H    2.143929   3.281138   4.476052   5.081588   4.902245
    30  H    1.091663   2.152575   3.255653   4.431718   4.645236
    31  H    1.095226   2.185638   2.520749   3.566295   3.373628
    32  H    2.177974   1.098214   2.154293   2.421463   3.109862
    33  H    2.142861   1.091145   2.148996   3.229428   4.105108
    34  H    3.245802   2.145347   1.091164   2.180368   3.187450
    35  H    2.505198   2.177658   1.100483   2.132661   2.253670
    36  H    3.756262   2.579091   2.220822   1.096538   2.104985
    37  H    4.463651   3.344350   2.134321   1.099932   2.083146
    38  H    4.566659   4.056570   3.824683   2.616716   2.081347
                   16         17         18         19         20
    16  C    0.000000
    17  H    4.717874   0.000000
    18  H    4.024215   1.783775   0.000000
    19  H    3.910072   1.765116   1.777312   0.000000
    20  H    2.066981   3.290725   2.386228   2.073637   0.000000
    21  H    2.378079   4.557132   4.751405   3.874798   3.072231
    22  H    3.338314   3.419562   3.979071   2.634955   2.818947
    23  H    3.526623   5.514715   5.428820   4.088120   3.374406
    24  H    2.951714   4.501086   4.002196   2.866718   1.963966
    25  H    4.565039   8.139853   7.882687   6.867418   5.563237
    26  H    3.789904   7.091552   6.349484   5.522147   4.039415
    27  H    3.149262   6.217550   5.136742   4.689339   3.001034
    28  H    3.431593   7.981408   7.099785   6.793410   4.842125
    29  H    4.611743   8.717691   7.734943   7.287873   5.462447
    30  H    5.017776   9.006626   7.674702   7.723798   5.766794
    31  H    3.886634   7.391970   5.997997   6.102643   4.205973
    32  H    3.344796   7.901548   6.827648   7.012757   4.952748
    33  H    4.744333   8.962661   7.643243   8.042196   5.985789
    34  H    4.378516   7.733366   6.265490   7.108418   5.230179
    35  H    3.422600   6.546399   5.015497   5.667359   3.789487
    36  H    2.552414   6.630933   5.691591   6.159862   4.282509
    37  H    3.223293   6.117347   4.944462   5.894924   4.235341
    38  H    1.099723   5.115218   4.669877   4.597177   3.003768
                   21         22         23         24         25
    21  H    0.000000
    22  H    1.746727   0.000000
    23  H    2.616272   2.565484   0.000000
    24  H    3.069116   2.659676   1.763231   0.000000
    25  H    4.018519   5.038645   3.029823   4.335969   0.000000
    26  H    4.344894   4.817489   2.621088   2.703170   2.835491
    27  H    4.467394   4.766859   3.310694   2.360219   4.308366
    28  H    4.677089   5.901038   4.427918   4.506496   3.247960
    29  H    5.742080   6.639313   4.666903   4.684749   3.542712
    30  H    6.854558   7.703819   6.206374   5.634083   5.625054
    31  H    5.850687   6.436623   5.240544   4.285002   5.531471
    32  H    5.240125   6.520457   5.717751   5.371603   5.026912
    33  H    6.836365   7.957593   7.044755   6.460261   6.389116
    34  H    6.734854   7.596639   7.334474   6.329902   7.526494
    35  H    5.757864   6.350960   5.968228   4.771689   6.638061
    36  H    4.531667   5.785883   5.853563   5.343516   5.859065
    37  H    5.366793   6.231525   6.695587   5.766933   7.295720
    38  H    2.253072   3.600592   4.060070   3.848543   4.670530
                   26         27         28         29         30
    26  H    0.000000
    27  H    1.722957   0.000000
    28  H    2.743599   3.047998   0.000000
    29  H    2.226048   2.811235   1.736630   0.000000
    30  H    3.863957   3.339438   2.776068   2.250251   0.000000
    31  H    3.275687   2.055667   2.984628   2.779219   1.743169
    32  H    4.326306   3.875417   1.968456   3.304445   2.865680
    33  H    5.234540   4.538725   3.142412   3.781117   2.252690
    34  H    6.041167   4.806064   4.515353   5.303590   3.743083
    35  H    4.731619   3.266792   3.968018   4.499370   3.268815
    36  H    5.319390   4.593931   3.523426   5.028718   4.650587
    37  H    6.260763   5.108937   4.915471   6.157155   5.326485
    38  H    4.522810   4.132395   3.701378   5.143713   5.620025
                   31         32         33         34         35
    31  H    0.000000
    32  H    2.974522   0.000000
    33  H    2.875877   1.733618   0.000000
    34  H    3.269823   2.839962   2.254768   0.000000
    35  H    2.039935   2.953133   2.878181   1.751407   0.000000
    36  H    4.100781   2.069414   3.253139   2.816937   3.046094
    37  H    4.436366   3.373034   3.914717   2.323425   2.666487
    38  H    4.718294   3.451563   5.013635   4.725595   4.133071
                   36         37         38
    36  H    0.000000
    37  H    1.761089   0.000000
    38  H    2.304875   3.261854   0.000000
 Stoichiometry    C12H22O4
 Framework group  C1[X(C12H22O4)]
 Deg. of freedom   108
 Full point group                 C1      NOp   1
 Largest Abelian subgroup         C1      NOp   1
 Largest concise Abelian subgroup C1      NOp   1
                         Standard orientation:                         
 ---------------------------------------------------------------------
 Center     Atomic      Atomic             Coordinates (Angstroms)
 Number     Number       Type             X           Y           Z
 ---------------------------------------------------------------------
      1          6           0        4.010999   -0.970740    0.913501
      2          8           0        3.272054   -0.859815   -0.339120
      3          6           0        2.070488   -0.153616   -0.064789
      4          6           0        2.252353    1.317575   -0.328726
      5          6           0        1.185862    1.784072    0.626587
      6          6           0       -0.073304    1.127485   -0.013906
      7          8           0       -0.448003    2.106777   -1.070465
      8          8           0       -1.644443    2.879725   -0.639093
      9          6           0       -1.133787    1.101021    1.102020
     10          6           0       -2.521951    0.735540    0.591850
     11          6           0       -2.870307   -0.667201    1.018578
     12          6           0       -2.775912   -1.592499   -0.182391
     13          6           0       -1.697691   -2.640623    0.015983
     14          6           0       -0.595834   -2.404992   -0.997198
     15          8           0        0.339962   -1.637684   -0.256121
     16          6           0        0.651413   -0.318177   -0.692506
     17          1           0        5.090869   -1.005915    0.748529
     18          1           0        3.694419   -1.888631    1.421281
     19          1           0        3.817077   -0.124019    1.594312
     20          1           0        1.859664   -0.427850    0.980966
     21          1           0        1.965577    1.543234   -1.373225
     22          1           0        3.253608    1.715606   -0.206040
     23          1           0        1.162840    2.864814    0.737206
     24          1           0        1.363376    1.357910    1.630520
     25          1           0       -1.295247    3.810437   -0.760601
     26          1           0       -1.226995    2.122175    1.516484
     27          1           0       -0.813852    0.511774    1.968702
     28          1           0       -2.574252    0.836456   -0.498252
     29          1           0       -3.274293    1.437826    0.972864
     30          1           0       -3.884679   -0.681022    1.421799
     31          1           0       -2.219832   -0.982473    1.841382
     32          1           0       -2.589020   -1.034575   -1.109680
     33          1           0       -3.740686   -2.077168   -0.340203
     34          1           0       -2.135451   -3.636726   -0.066383
     35          1           0       -1.256684   -2.583505    1.022617
     36          1           0       -0.906463   -1.917742   -1.929128
     37          1           0       -0.170194   -3.379369   -1.278751
     38          1           0        0.709694   -0.280324   -1.790031
 ---------------------------------------------------------------------
 Rotational constants (GHZ):           0.6578302           0.4418140           0.3054067
 Standard basis: 6-31G(2df,p) (6D, 7F)
 There are   606 symmetry adapted cartesian basis functions of A   symmetry.
 There are   558 symmetry adapted basis functions of A   symmetry.
   558 basis functions,   858 primitive gaussians,   606 cartesian basis functions
    63 alpha electrons       63 beta electrons
       nuclear repulsion energy      1282.0678877188 Hartrees.
 NAtoms=   38 NActive=   38 NUniq=   38 SFac= 1.00D+00 NAtFMM=   60 NAOKFM=F Big=F
 Integral buffers will be    131072 words long.
 Raffenetti 2 integral format.
 Two-electron integral symmetry is turned on.
 One-electron integrals computed using PRISM.
 PrsmSu:  requested number of processors reduced to:  12 ShMem   1 Linda.
 NBasis=   558 RedAO= T EigKep=  3.39D-04  NBF=   558
 NBsUse=   558 1.00D-06 EigRej= -1.00D+00 NBFU=   558
 ExpMin= 1.61D-01 ExpMax= 5.48D+03 ExpMxC= 8.25D+02 IAcc=3 IRadAn=         5 AccDes= 0.00D+00
 Harris functional with IExCor=  402 and IRadAn=       5 diagonalized for initial guess.
 HarFok:  IExCor=  402 AccDes= 0.00D+00 IRadAn=         5 IDoV= 1 UseB2=F ITyADJ=14
 ICtDFT=  3500011 ScaDFX=  1.000000  1.000000  1.000000  1.000000
 FoFCou: FMM=F IPFlag=           0 FMFlag=      100000 FMFlg1=           0
         NFxFlg=           0 DoJE=T BraDBF=F KetDBF=T FulRan=T
         wScrn=  0.000000 ICntrl=       500 IOpCl=  0 I1Cent=   200000004 NGrid=           0
         NMat0=    1 NMatS0=      1 NMatT0=    0 NMatD0=    1 NMtDS0=    0 NMtDT0=    0
 Petite list used in FoFCou.
 Requested convergence on RMS density matrix=1.00D-08 within 128 cycles.
 Requested convergence on MAX density matrix=1.00D-06.
 Requested convergence on             energy=1.00D-06.
 No special actions if energy rises.
 Integral accuracy reduced to 1.0D-05 until final iterations.
 Initial convergence to 1.0D-05 achieved.  Increase integral accuracy.
 SCF Done:  E(RB3LYP) =  -771.226887879     A.U. after   13 cycles
            NFock= 13  Conv=0.94D-08     -V/T= 2.0071

 **********************************************************************

            Population analysis using the SCF density.

 **********************************************************************

 Orbital symmetries:
       Occupied  (A) (A) (A) (A) (A) (A) (A) (A) (A) (A) (A) (A)
                 (A) (A) (A) (A) (A) (A) (A) (A) (A) (A) (A) (A)
                 (A) (A) (A) (A) (A) (A) (A) (A) (A) (A) (A) (A)
                 (A) (A) (A) (A) (A) (A) (A) (A) (A) (A) (A) (A)
                 (A) (A) (A) (A) (A) (A) (A) (A) (A) (A) (A) (A)
                 (A) (A) (A)
       Virtual   (A) (A) (A) (A) (A) (A) (A) (A) (A) (A) (A) (A)
                 (A) (A) (A) (A) (A) (A) (A) (A) (A) (A) (A) (A)
                 (A) (A) (A) (A) (A) (A) (A) (A) (A) (A) (A) (A)
                 (A) (A) (A) (A) (A) (A) (A) (A) (A) (A) (A) (A)
                 (A) (A) (A) (A) (A) (A) (A) (A) (A) (A) (A) (A)
                 (A) (A) (A) (A) (A) (A) (A) (A) (A) (A) (A) (A)
                 (A) (A) (A) (A) (A) (A) (A) (A) (A) (A) (A) (A)
                 (A) (A) (A) (A) (A) (A) (A) (A) (A) (A) (A) (A)
                 (A) (A) (A) (A) (A) (A) (A) (A) (A) (A) (A) (A)
                 (A) (A) (A) (A) (A) (A) (A) (A) (A) (A) (A) (A)
                 (A) (A) (A) (A) (A) (A) (A) (A) (A) (A) (A) (A)
                 (A) (A) (A) (A) (A) (A) (A) (A) (A) (A) (A) (A)
                 (A) (A) (A) (A) (A) (A) (A) (A) (A) (A) (A) (A)
                 (A) (A) (A) (A) (A) (A) (A) (A) (A) (A) (A) (A)
                 (A) (A) (A) (A) (A) (A) (A) (A) (A) (A) (A) (A)
                 (A) (A) (A) (A) (A) (A) (A) (A) (A) (A) (A) (A)
                 (A) (A) (A) (A) (A) (A) (A) (A) (A) (A) (A) (A)
                 (A) (A) (A) (A) (A) (A) (A) (A) (A) (A) (A) (A)
                 (A) (A) (A) (A) (A) (A) (A) (A) (A) (A) (A) (A)
                 (A) (A) (A) (A) (A) (A) (A) (A) (A) (A) (A) (A)
                 (A) (A) (A) (A) (A) (A) (A) (A) (A) (A) (A) (A)
                 (A) (A) (A) (A) (A) (A) (A) (A) (A) (A) (A) (A)
                 (A) (A) (A) (A) (A) (A) (A) (A) (A) (A) (A) (A)
                 (A) (A) (A) (A) (A) (A) (A) (A) (A) (A) (A) (A)
                 (A) (A) (A) (A) (A) (A) (A) (A) (A) (A) (A) (A)
                 (A) (A) (A) (A) (A) (A) (A) (A) (A) (A) (A) (A)
                 (A) (A) (A) (A) (A) (A) (A) (A) (A) (A) (A) (A)
                 (A) (A) (A) (A) (A) (A) (A) (A) (A) (A) (A) (A)
                 (A) (A) (A) (A) (A) (A) (A) (A) (A) (A) (A) (A)
                 (A) (A) (A) (A) (A) (A) (A) (A) (A) (A) (A) (A)
                 (A) (A) (A) (A) (A) (A) (A) (A) (A) (A) (A) (A)
                 (A) (A) (A) (A) (A) (A) (A) (A) (A) (A) (A) (A)
                 (A) (A) (A) (A) (A) (A) (A) (A) (A) (A) (A) (A)
                 (A) (A) (A) (A) (A) (A) (A) (A) (A) (A) (A) (A)
                 (A) (A) (A) (A) (A) (A) (A) (A) (A) (A) (A) (A)
                 (A) (A) (A) (A) (A) (A) (A) (A) (A) (A) (A) (A)
                 (A) (A) (A) (A) (A) (A) (A) (A) (A) (A) (A) (A)
                 (A) (A) (A) (A) (A) (A) (A) (A) (A) (A) (A) (A)
                 (A) (A) (A) (A) (A) (A) (A) (A) (A) (A) (A) (A)
                 (A) (A) (A) (A) (A) (A) (A) (A) (A) (A) (A) (A)
                 (A) (A) (A) (A) (A) (A) (A) (A) (A) (A) (A) (A)
                 (A) (A) (A)
 The electronic state is 1-A.
 Alpha  occ. eigenvalues --  -19.19403 -19.19193 -19.14190 -19.12992 -10.25300
 Alpha  occ. eigenvalues --  -10.25070 -10.22303 -10.21935 -10.21842 -10.17633
 Alpha  occ. eigenvalues --  -10.17200 -10.16328 -10.16294 -10.16246 -10.15831
 Alpha  occ. eigenvalues --  -10.15757  -1.08886  -1.03278  -1.00990  -0.90548
 Alpha  occ. eigenvalues --   -0.82449  -0.80856  -0.76635  -0.73107  -0.68805
 Alpha  occ. eigenvalues --   -0.68159  -0.65141  -0.61113  -0.58793  -0.58102
 Alpha  occ. eigenvalues --   -0.57299  -0.55064  -0.50729  -0.49747  -0.49060
 Alpha  occ. eigenvalues --   -0.48468  -0.46030  -0.45475  -0.44882  -0.43742
 Alpha  occ. eigenvalues --   -0.42692  -0.42204  -0.41724  -0.40163  -0.39641
 Alpha  occ. eigenvalues --   -0.38191  -0.37985  -0.37256  -0.35731  -0.34986
 Alpha  occ. eigenvalues --   -0.34457  -0.34196  -0.33833  -0.33346  -0.32882
 Alpha  occ. eigenvalues --   -0.31674  -0.30755  -0.29192  -0.28552  -0.28114
 Alpha  occ. eigenvalues --   -0.25433  -0.23550  -0.22556
 Alpha virt. eigenvalues --   -0.00299   0.06748   0.07176   0.07925   0.09321
 Alpha virt. eigenvalues --    0.09719   0.10569   0.11170   0.12282   0.12750
 Alpha virt. eigenvalues --    0.12844   0.13838   0.14521   0.14958   0.15563
 Alpha virt. eigenvalues --    0.15925   0.17314   0.17774   0.18219   0.18859
 Alpha virt. eigenvalues --    0.19507   0.19932   0.20709   0.21115   0.21554
 Alpha virt. eigenvalues --    0.22453   0.23144   0.23807   0.25112   0.25428
 Alpha virt. eigenvalues --    0.26124   0.27185   0.28367   0.29741   0.30821
 Alpha virt. eigenvalues --    0.32100   0.33455   0.35743   0.36181   0.41337
 Alpha virt. eigenvalues --    0.43218   0.45418   0.45948   0.47221   0.48837
 Alpha virt. eigenvalues --    0.50216   0.50895   0.51897   0.52694   0.53413
 Alpha virt. eigenvalues --    0.54333   0.55223   0.55343   0.56101   0.56680
 Alpha virt. eigenvalues --    0.57188   0.57979   0.58498   0.59414   0.60009
 Alpha virt. eigenvalues --    0.60848   0.61372   0.62208   0.63122   0.64213
 Alpha virt. eigenvalues --    0.64408   0.65650   0.65713   0.66909   0.67797
 Alpha virt. eigenvalues --    0.68873   0.69296   0.69520   0.70684   0.72223
 Alpha virt. eigenvalues --    0.72920   0.73470   0.73812   0.74205   0.75265
 Alpha virt. eigenvalues --    0.75894   0.76375   0.77276   0.77551   0.78335
 Alpha virt. eigenvalues --    0.78806   0.79252   0.80404   0.80697   0.81882
 Alpha virt. eigenvalues --    0.83600   0.83795   0.84426   0.85023   0.85288
 Alpha virt. eigenvalues --    0.86905   0.87214   0.87358   0.88832   0.89454
 Alpha virt. eigenvalues --    0.90002   0.90413   0.91680   0.92299   0.92779
 Alpha virt. eigenvalues --    0.93398   0.93921   0.96146   0.98155   0.98789
 Alpha virt. eigenvalues --    0.99145   1.00337   1.01021   1.02556   1.05486
 Alpha virt. eigenvalues --    1.06320   1.07456   1.09056   1.10646   1.11314
 Alpha virt. eigenvalues --    1.13467   1.13770   1.15733   1.18434   1.19717
 Alpha virt. eigenvalues --    1.21330   1.22319   1.24027   1.25805   1.27645
 Alpha virt. eigenvalues --    1.29041   1.29620   1.30531   1.32318   1.33241
 Alpha virt. eigenvalues --    1.35020   1.35163   1.36958   1.37363   1.38566
 Alpha virt. eigenvalues --    1.40207   1.40828   1.41338   1.42328   1.42773
 Alpha virt. eigenvalues --    1.43112   1.44371   1.45548   1.46722   1.47336
 Alpha virt. eigenvalues --    1.49047   1.50099   1.51913   1.52611   1.53101
 Alpha virt. eigenvalues --    1.53866   1.56325   1.56882   1.57624   1.58178
 Alpha virt. eigenvalues --    1.59497   1.60099   1.61644   1.62986   1.63218
 Alpha virt. eigenvalues --    1.64533   1.64790   1.67074   1.67348   1.67664
 Alpha virt. eigenvalues --    1.69411   1.70593   1.71968   1.73672   1.75454
 Alpha virt. eigenvalues --    1.76430   1.77087   1.78202   1.78460   1.80890
 Alpha virt. eigenvalues --    1.82233   1.82768   1.83646   1.84861   1.86640
 Alpha virt. eigenvalues --    1.87848   1.90368   1.92946   1.93601   1.96375
 Alpha virt. eigenvalues --    1.97633   1.99803   2.00699   2.01924   2.04483
 Alpha virt. eigenvalues --    2.06971   2.08268   2.10110   2.10294   2.11507
 Alpha virt. eigenvalues --    2.13948   2.15016   2.15466   2.17166   2.20240
 Alpha virt. eigenvalues --    2.21165   2.22011   2.24820   2.26929   2.27300
 Alpha virt. eigenvalues --    2.28737   2.30557   2.31663   2.33581   2.34343
 Alpha virt. eigenvalues --    2.36249   2.38512   2.38740   2.40887   2.42150
 Alpha virt. eigenvalues --    2.43040   2.45046   2.45695   2.46983   2.49351
 Alpha virt. eigenvalues --    2.51473   2.51692   2.53051   2.54685   2.54957
 Alpha virt. eigenvalues --    2.56458   2.58043   2.58981   2.59525   2.61331
 Alpha virt. eigenvalues --    2.63170   2.64834   2.65243   2.66249   2.67969
 Alpha virt. eigenvalues --    2.69570   2.70783   2.71744   2.72660   2.74374
 Alpha virt. eigenvalues --    2.76041   2.77330   2.79028   2.79593   2.81855
 Alpha virt. eigenvalues --    2.83238   2.84109   2.86204   2.88268   2.89645
 Alpha virt. eigenvalues --    2.89934   2.91285   2.92116   2.92481   2.93634
 Alpha virt. eigenvalues --    2.94562   2.95019   2.97677   2.98331   2.99438
 Alpha virt. eigenvalues --    3.00288   3.01081   3.01886   3.04252   3.06792
 Alpha virt. eigenvalues --    3.07874   3.08638   3.09234   3.10346   3.12145
 Alpha virt. eigenvalues --    3.13719   3.15262   3.15892   3.17450   3.19046
 Alpha virt. eigenvalues --    3.19811   3.20506   3.22941   3.24400   3.26057
 Alpha virt. eigenvalues --    3.27033   3.27578   3.31671   3.33386   3.33634
 Alpha virt. eigenvalues --    3.34718   3.36582   3.37678   3.38249   3.39593
 Alpha virt. eigenvalues --    3.41217   3.42594   3.43234   3.43692   3.45111
 Alpha virt. eigenvalues --    3.46085   3.47850   3.48785   3.49224   3.50187
 Alpha virt. eigenvalues --    3.51933   3.52928   3.54304   3.56070   3.59719
 Alpha virt. eigenvalues --    3.60373   3.61714   3.63007   3.63735   3.64892
 Alpha virt. eigenvalues --    3.65732   3.66586   3.68251   3.69562   3.71749
 Alpha virt. eigenvalues --    3.74093   3.75065   3.76271   3.79063   3.81002
 Alpha virt. eigenvalues --    3.84717   3.85930   3.88525   3.88903   3.89502
 Alpha virt. eigenvalues --    3.91190   3.93870   3.97346   3.98464   3.99674
 Alpha virt. eigenvalues --    4.01668   4.02373   4.02929   4.08217   4.10259
 Alpha virt. eigenvalues --    4.12651   4.16158   4.18078   4.18590   4.20230
 Alpha virt. eigenvalues --    4.21841   4.23330   4.24335   4.27096   4.27884
 Alpha virt. eigenvalues --    4.30206   4.31537   4.33107   4.33764   4.35243
 Alpha virt. eigenvalues --    4.36080   4.37788   4.38797   4.40176   4.41904
 Alpha virt. eigenvalues --    4.43164   4.44002   4.45086   4.45450   4.46460
 Alpha virt. eigenvalues --    4.47520   4.47890   4.49920   4.51137   4.51807
 Alpha virt. eigenvalues --    4.53246   4.53801   4.55881   4.58263   4.58442
 Alpha virt. eigenvalues --    4.59450   4.60614   4.61928   4.62663   4.63363
 Alpha virt. eigenvalues --    4.64471   4.64731   4.66742   4.68023   4.68327
 Alpha virt. eigenvalues --    4.68861   4.70422   4.71107   4.71817   4.72907
 Alpha virt. eigenvalues --    4.73526   4.74091   4.74325   4.75177   4.75337
 Alpha virt. eigenvalues --    4.76628   4.77191   4.78443   4.78847   4.80655
 Alpha virt. eigenvalues --    4.81640   4.82571   4.83987   4.84179   4.85726
 Alpha virt. eigenvalues --    4.86177   4.86852   4.88462   4.89311   4.91398
 Alpha virt. eigenvalues --    4.91765   4.92558   4.93848   4.94943   4.95564
 Alpha virt. eigenvalues --    4.97743   4.98675   4.98983   5.00000   5.01904
 Alpha virt. eigenvalues --    5.02829   5.05376   5.06842   5.08601   5.10190
 Alpha virt. eigenvalues --    5.11666   5.14134   5.15707   5.17623   5.20092
 Alpha virt. eigenvalues --    5.22264   5.25382   5.28211   5.30013   5.31841
 Alpha virt. eigenvalues --    5.33712   5.34606   5.37689   5.38764   5.41094
 Alpha virt. eigenvalues --    5.42776   5.45901   5.47404   5.50545   5.50968
 Alpha virt. eigenvalues --    5.51866   5.53765   5.55864   5.58580   5.60149
 Alpha virt. eigenvalues --    5.63928   5.64980   5.68996   5.71191   5.77786
 Alpha virt. eigenvalues --    5.81502   5.84874   5.87927   5.88902   5.91692
 Alpha virt. eigenvalues --    5.97420   5.99177   6.00280   6.06082   6.07359
 Alpha virt. eigenvalues --    6.11216   6.16666   6.18787   6.21864   6.22809
 Alpha virt. eigenvalues --    6.37888   6.56214   6.68863   6.84551   7.05112
 Alpha virt. eigenvalues --    7.10518   7.23135   7.31654   7.89017  10.92337
 Alpha virt. eigenvalues --   11.25974  11.34945  11.65624  11.94434  12.24205
 Alpha virt. eigenvalues --   12.40758  12.48617  12.62544  12.79192  12.89140
 Alpha virt. eigenvalues --   13.11490  13.35168  13.54914  13.78703  14.16264
          Condensed to atoms (all electrons):
               1          2          3          4          5          6
     1  C    4.873324   0.369889  -0.093467   0.000842  -0.001411  -0.000051
     2  O    0.369889   7.745357   0.378005  -0.051135   0.000640   0.000727
     3  C   -0.093467   0.378005   4.616792   0.305311  -0.009515  -0.046540
     4  C    0.000842  -0.051135   0.305311   5.153720   0.309815  -0.000274
     5  C   -0.001411   0.000640  -0.009515   0.309815   5.021989   0.342894
     6  C   -0.000051   0.000727  -0.046540  -0.000274   0.342894   4.658206
     7  O   -0.000000   0.000000   0.001573  -0.005177  -0.035707   0.243444
     8  O   -0.000000   0.000000  -0.000038   0.000071   0.005145  -0.053058
     9  C    0.000001  -0.000011   0.001818  -0.000103  -0.051743   0.363115
    10  C    0.000000   0.000000   0.000051  -0.000189   0.003874  -0.006986
    11  C   -0.000000  -0.000000  -0.000007   0.000003  -0.000031  -0.003007
    12  C    0.000000   0.000000   0.000011  -0.000003  -0.000007   0.000141
    13  C    0.000000  -0.000000  -0.000326   0.000012   0.000016   0.000154
    14  C    0.000006   0.000012   0.004752  -0.000349  -0.000090   0.003556
    15  O   -0.000303  -0.001344  -0.025748   0.003349   0.001100  -0.020031
    16  C    0.002630  -0.011620   0.354541  -0.052057  -0.050142   0.318222
    17  H    0.381449  -0.018013   0.002855   0.000467  -0.000046   0.000001
    18  H    0.374990  -0.029674  -0.001788  -0.001067   0.000200  -0.000005
    19  H    0.361462  -0.032077  -0.000340   0.004826  -0.000269   0.000005
    20  H   -0.016817  -0.044727   0.355105  -0.069099   0.013238  -0.017521
    21  H    0.000050   0.001640  -0.022301   0.358629  -0.023787  -0.008105
    22  H    0.002281  -0.000931  -0.026167   0.364837  -0.024096   0.003665
    23  H   -0.000012  -0.000138   0.001912  -0.028871   0.347841  -0.020188
    24  H   -0.000073   0.000666  -0.010299  -0.038099   0.353908  -0.018482
    25  H    0.000000  -0.000000   0.000007   0.000016   0.000288   0.001935
    26  H   -0.000000   0.000000   0.000022   0.000606  -0.007232  -0.009520
    27  H   -0.000004  -0.000002  -0.000138   0.000029  -0.001325  -0.025097
    28  H    0.000000   0.000000   0.000027   0.000005   0.000596  -0.007639
    29  H   -0.000000  -0.000000   0.000000   0.000001  -0.000310   0.000911
    30  H   -0.000000   0.000000  -0.000000  -0.000000   0.000004   0.000055
    31  H    0.000000  -0.000000   0.000006   0.000001  -0.000048   0.000219
    32  H   -0.000000   0.000000   0.000018  -0.000001   0.000009   0.000179
    33  H   -0.000000   0.000000  -0.000000   0.000000  -0.000000  -0.000008
    34  H    0.000000   0.000000   0.000012  -0.000000  -0.000000  -0.000019
    35  H   -0.000002   0.000000  -0.000180   0.000009   0.000003  -0.000193
    36  H   -0.000001  -0.000009   0.000061   0.000071  -0.000022  -0.000114
    37  H   -0.000000   0.000036  -0.000267  -0.000003   0.000004  -0.000151
    38  H   -0.000140  -0.000752  -0.031870  -0.005039   0.005985  -0.041590
               7          8          9         10         11         12
     1  C   -0.000000  -0.000000   0.000001   0.000000  -0.000000   0.000000
     2  O    0.000000   0.000000  -0.000011   0.000000  -0.000000   0.000000
     3  C    0.001573  -0.000038   0.001818   0.000051  -0.000007   0.000011
     4  C   -0.005177   0.000071  -0.000103  -0.000189   0.000003  -0.000003
     5  C   -0.035707   0.005145  -0.051743   0.003874  -0.000031  -0.000007
     6  C    0.243444  -0.053058   0.363115  -0.006986  -0.003007   0.000141
     7  O    8.021844   0.104850  -0.021077  -0.006780  -0.000193  -0.000021
     8  O    0.104850   8.000419  -0.016046  -0.001314   0.001095  -0.000006
     9  C   -0.021077  -0.016046   4.968601   0.383973  -0.021300   0.001423
    10  C   -0.006780  -0.001314   0.383973   4.854255   0.383434  -0.033699
    11  C   -0.000193   0.001095  -0.021300   0.383434   4.890540   0.418069
    12  C   -0.000021  -0.000006   0.001423  -0.033699   0.418069   4.818514
    13  C    0.000001  -0.000001  -0.000514   0.004019  -0.035726   0.405617
    14  C   -0.000055   0.000001  -0.000383  -0.000218   0.002764  -0.029608
    15  O    0.000248  -0.000002   0.002753  -0.000452   0.000890   0.003019
    16  C   -0.016782   0.000913  -0.028137  -0.000532   0.000458  -0.000050
    17  H   -0.000000   0.000000  -0.000000  -0.000000  -0.000000   0.000000
    18  H   -0.000000   0.000000   0.000001   0.000000  -0.000000  -0.000000
    19  H   -0.000000  -0.000000  -0.000009  -0.000000  -0.000000  -0.000000
    20  H   -0.000112   0.000000   0.003160  -0.000034   0.000003   0.000001
    21  H    0.006614  -0.000114   0.001174  -0.000004   0.000001   0.000000
    22  H    0.000136  -0.000001  -0.000241   0.000003  -0.000000  -0.000000
    23  H   -0.004922   0.001868  -0.002771  -0.000102  -0.000003   0.000000
    24  H    0.003466  -0.000141  -0.005195   0.000214  -0.000025   0.000001
    25  H   -0.027343   0.273024   0.000354   0.000388  -0.000049  -0.000000
    26  H   -0.008319   0.012866   0.340422  -0.032406   0.004299  -0.000107
    27  H    0.002467   0.000673   0.363694  -0.039053  -0.012858   0.000079
    28  H    0.003226   0.000807  -0.034905   0.391685  -0.048379  -0.017201
    29  H    0.000591   0.001243  -0.020062   0.349274  -0.033001   0.004762
    30  H   -0.000001  -0.000001   0.003844  -0.024045   0.346071  -0.026033
    31  H   -0.000002  -0.000012  -0.015585  -0.036387   0.380592  -0.039809
    32  H    0.000148  -0.000094   0.000203  -0.014556  -0.042931   0.388349
    33  H   -0.000001  -0.000000   0.000007   0.004008  -0.026601   0.352866
    34  H    0.000000  -0.000000   0.000014  -0.000110   0.004233  -0.026822
    35  H   -0.000001   0.000000   0.000154   0.000277  -0.015173  -0.038230
    36  H   -0.000030   0.000002   0.000140  -0.000138   0.000420  -0.014487
    37  H    0.000001  -0.000000   0.000013   0.000000  -0.000186   0.005270
    38  H    0.001967  -0.000097   0.003420  -0.000164   0.000057  -0.000149
              13         14         15         16         17         18
     1  C    0.000000   0.000006  -0.000303   0.002630   0.381449   0.374990
     2  O   -0.000000   0.000012  -0.001344  -0.011620  -0.018013  -0.029674
     3  C   -0.000326   0.004752  -0.025748   0.354541   0.002855  -0.001788
     4  C    0.000012  -0.000349   0.003349  -0.052057   0.000467  -0.001067
     5  C    0.000016  -0.000090   0.001100  -0.050142  -0.000046   0.000200
     6  C    0.000154   0.003556  -0.020031   0.318222   0.000001  -0.000005
     7  O    0.000001  -0.000055   0.000248  -0.016782  -0.000000  -0.000000
     8  O   -0.000001   0.000001  -0.000002   0.000913   0.000000   0.000000
     9  C   -0.000514  -0.000383   0.002753  -0.028137  -0.000000   0.000001
    10  C    0.004019  -0.000218  -0.000452  -0.000532  -0.000000   0.000000
    11  C   -0.035726   0.002764   0.000890   0.000458  -0.000000  -0.000000
    12  C    0.405617  -0.029608   0.003019  -0.000050   0.000000  -0.000000
    13  C    4.881118   0.415869  -0.061075   0.004997   0.000000  -0.000000
    14  C    0.415869   4.791084   0.341410  -0.074774   0.000000   0.000003
    15  O   -0.061075   0.341410   7.743249   0.329335   0.000002   0.000222
    16  C    0.004997  -0.074774   0.329335   4.988504  -0.000185   0.000447
    17  H    0.000000   0.000000   0.000002  -0.000185   0.582190  -0.040337
    18  H   -0.000000   0.000003   0.000222   0.000447  -0.040337   0.610810
    19  H    0.000000  -0.000001  -0.000019  -0.000046  -0.033741  -0.045743
    20  H   -0.000110  -0.000193   0.003636  -0.038015  -0.000014   0.009370
    21  H   -0.000000  -0.000014   0.000165  -0.015090   0.000023  -0.000006
    22  H   -0.000000   0.000003  -0.000048   0.004737  -0.000219   0.000046
    23  H   -0.000000   0.000001  -0.000031   0.003753   0.000000  -0.000001
    24  H   -0.000001   0.000015  -0.000088  -0.000851  -0.000004  -0.000004
    25  H    0.000000  -0.000000   0.000000  -0.000059  -0.000000  -0.000000
    26  H    0.000007  -0.000005  -0.000006   0.002857   0.000000   0.000000
    27  H   -0.000029  -0.000041   0.000982  -0.002752  -0.000000   0.000001
    28  H    0.000597  -0.000110   0.000081  -0.000019   0.000000   0.000000
    29  H   -0.000129   0.000003  -0.000002  -0.000014  -0.000000  -0.000000
    30  H    0.004212  -0.000044   0.000020  -0.000023  -0.000000  -0.000000
    31  H   -0.015356   0.000525  -0.000335   0.000199  -0.000000  -0.000000
    32  H   -0.045295  -0.014533   0.000318  -0.000143   0.000000  -0.000000
    33  H   -0.025690   0.003477   0.000009   0.000036   0.000000  -0.000000
    34  H    0.334871  -0.027777   0.004188  -0.000202  -0.000000  -0.000000
    35  H    0.374501  -0.034413   0.003992   0.000569  -0.000000   0.000002
    36  H   -0.032980   0.363715  -0.021479  -0.009745  -0.000000   0.000000
    37  H   -0.043502   0.352552  -0.020447   0.002419   0.000000  -0.000004
    38  H    0.000128  -0.010861  -0.026171   0.330278   0.000004   0.000016
              19         20         21         22         23         24
     1  C    0.361462  -0.016817   0.000050   0.002281  -0.000012  -0.000073
     2  O   -0.032077  -0.044727   0.001640  -0.000931  -0.000138   0.000666
     3  C   -0.000340   0.355105  -0.022301  -0.026167   0.001912  -0.010299
     4  C    0.004826  -0.069099   0.358629   0.364837  -0.028871  -0.038099
     5  C   -0.000269   0.013238  -0.023787  -0.024096   0.347841   0.353908
     6  C    0.000005  -0.017521  -0.008105   0.003665  -0.020188  -0.018482
     7  O   -0.000000  -0.000112   0.006614   0.000136  -0.004922   0.003466
     8  O   -0.000000   0.000000  -0.000114  -0.000001   0.001868  -0.000141
     9  C   -0.000009   0.003160   0.001174  -0.000241  -0.002771  -0.005195
    10  C   -0.000000  -0.000034  -0.000004   0.000003  -0.000102   0.000214
    11  C   -0.000000   0.000003   0.000001  -0.000000  -0.000003  -0.000025
    12  C   -0.000000   0.000001   0.000000  -0.000000   0.000000   0.000001
    13  C    0.000000  -0.000110  -0.000000  -0.000000  -0.000000  -0.000001
    14  C   -0.000001  -0.000193  -0.000014   0.000003   0.000001   0.000015
    15  O   -0.000019   0.003636   0.000165  -0.000048  -0.000031  -0.000088
    16  C   -0.000046  -0.038015  -0.015090   0.004737   0.003753  -0.000851
    17  H   -0.033741  -0.000014   0.000023  -0.000219   0.000000  -0.000004
    18  H   -0.045743   0.009370  -0.000006   0.000046  -0.000001  -0.000004
    19  H    0.627888   0.001645  -0.000088   0.001026   0.000125   0.000635
    20  H    0.001645   0.712883   0.005384  -0.001209   0.000726   0.001138
    21  H   -0.000088   0.005384   0.622354  -0.045115  -0.000255   0.005675
    22  H    0.001026  -0.001209  -0.045115   0.643752  -0.002609  -0.001904
    23  H    0.000125   0.000726  -0.000255  -0.002609   0.665879  -0.043150
    24  H    0.000635   0.001138   0.005675  -0.001904  -0.043150   0.659313
    25  H    0.000000  -0.000000  -0.000040  -0.000000   0.000309  -0.000029
    26  H    0.000000  -0.000087   0.000027  -0.000004   0.003247   0.000648
    27  H   -0.000004   0.001419  -0.000010   0.000002   0.000080   0.002425
    28  H   -0.000000   0.000003  -0.000011   0.000000  -0.000003  -0.000009
    29  H    0.000000   0.000000   0.000000  -0.000000   0.000007  -0.000003
    30  H    0.000000   0.000000  -0.000000   0.000000  -0.000000   0.000000
    31  H    0.000000  -0.000003  -0.000000  -0.000000   0.000001  -0.000025
    32  H    0.000000   0.000003  -0.000001   0.000000   0.000000  -0.000001
    33  H    0.000000  -0.000000   0.000000  -0.000000   0.000000  -0.000000
    34  H   -0.000000   0.000002  -0.000000   0.000000  -0.000000  -0.000000
    35  H   -0.000000   0.000220   0.000000  -0.000000   0.000000  -0.000004
    36  H   -0.000000   0.000095  -0.000006   0.000000   0.000000  -0.000001
    37  H    0.000000   0.000037   0.000000  -0.000000  -0.000000  -0.000000
    38  H    0.000009   0.008142   0.004101  -0.000185  -0.000086  -0.000347
              25         26         27         28         29         30
     1  C    0.000000  -0.000000  -0.000004   0.000000  -0.000000  -0.000000
     2  O   -0.000000   0.000000  -0.000002   0.000000  -0.000000   0.000000
     3  C    0.000007   0.000022  -0.000138   0.000027   0.000000  -0.000000
     4  C    0.000016   0.000606   0.000029   0.000005   0.000001  -0.000000
     5  C    0.000288  -0.007232  -0.001325   0.000596  -0.000310   0.000004
     6  C    0.001935  -0.009520  -0.025097  -0.007639   0.000911   0.000055
     7  O   -0.027343  -0.008319   0.002467   0.003226   0.000591  -0.000001
     8  O    0.273024   0.012866   0.000673   0.000807   0.001243  -0.000001
     9  C    0.000354   0.340422   0.363694  -0.034905  -0.020062   0.003844
    10  C    0.000388  -0.032406  -0.039053   0.391685   0.349274  -0.024045
    11  C   -0.000049   0.004299  -0.012858  -0.048379  -0.033001   0.346071
    12  C   -0.000000  -0.000107   0.000079  -0.017201   0.004762  -0.026033
    13  C    0.000000   0.000007  -0.000029   0.000597  -0.000129   0.004212
    14  C   -0.000000  -0.000005  -0.000041  -0.000110   0.000003  -0.000044
    15  O    0.000000  -0.000006   0.000982   0.000081  -0.000002   0.000020
    16  C   -0.000059   0.002857  -0.002752  -0.000019  -0.000014  -0.000023
    17  H   -0.000000   0.000000  -0.000000   0.000000  -0.000000  -0.000000
    18  H   -0.000000   0.000000   0.000001   0.000000  -0.000000  -0.000000
    19  H    0.000000   0.000000  -0.000004  -0.000000   0.000000   0.000000
    20  H   -0.000000  -0.000087   0.001419   0.000003   0.000000   0.000000
    21  H   -0.000040   0.000027  -0.000010  -0.000011   0.000000  -0.000000
    22  H   -0.000000  -0.000004   0.000002   0.000000  -0.000000   0.000000
    23  H    0.000309   0.003247   0.000080  -0.000003   0.000007  -0.000000
    24  H   -0.000029   0.000648   0.002425  -0.000009  -0.000003   0.000000
    25  H    0.433895   0.000149  -0.000043   0.000359   0.000024   0.000000
    26  H    0.000149   0.637863  -0.043337   0.002703  -0.013231  -0.000571
    27  H   -0.000043  -0.043337   0.641888   0.004112   0.003446   0.000552
    28  H    0.000359   0.002703   0.004112   0.603627  -0.038710   0.003443
    29  H    0.000024  -0.013231   0.003446  -0.038710   0.676882  -0.013272
    30  H    0.000000  -0.000571   0.000552   0.003443  -0.013272   0.681211
    31  H    0.000001   0.000597   0.007037   0.004681   0.003949  -0.043122
    32  H    0.000004  -0.000040   0.000109   0.008137   0.000562   0.004686
    33  H   -0.000000   0.000007  -0.000015   0.000872  -0.000642  -0.015036
    34  H    0.000000  -0.000000   0.000006  -0.000019   0.000008  -0.000490
    35  H   -0.000000   0.000008   0.000234   0.000100  -0.000028   0.000469
    36  H   -0.000000   0.000001   0.000005  -0.000039   0.000001  -0.000009
    37  H    0.000000  -0.000000   0.000002   0.000004  -0.000000   0.000008
    38  H    0.000006  -0.000061   0.000042   0.000023   0.000002   0.000000
              31         32         33         34         35         36
     1  C    0.000000  -0.000000  -0.000000   0.000000  -0.000002  -0.000001
     2  O   -0.000000   0.000000   0.000000   0.000000   0.000000  -0.000009
     3  C    0.000006   0.000018  -0.000000   0.000012  -0.000180   0.000061
     4  C    0.000001  -0.000001   0.000000  -0.000000   0.000009   0.000071
     5  C   -0.000048   0.000009  -0.000000  -0.000000   0.000003  -0.000022
     6  C    0.000219   0.000179  -0.000008  -0.000019  -0.000193  -0.000114
     7  O   -0.000002   0.000148  -0.000001   0.000000  -0.000001  -0.000030
     8  O   -0.000012  -0.000094  -0.000000  -0.000000   0.000000   0.000002
     9  C   -0.015585   0.000203   0.000007   0.000014   0.000154   0.000140
    10  C   -0.036387  -0.014556   0.004008  -0.000110   0.000277  -0.000138
    11  C    0.380592  -0.042931  -0.026601   0.004233  -0.015173   0.000420
    12  C   -0.039809   0.388349   0.352866  -0.026822  -0.038230  -0.014487
    13  C   -0.015356  -0.045295  -0.025690   0.334871   0.374501  -0.032980
    14  C    0.000525  -0.014533   0.003477  -0.027777  -0.034413   0.363715
    15  O   -0.000335   0.000318   0.000009   0.004188   0.003992  -0.021479
    16  C    0.000199  -0.000143   0.000036  -0.000202   0.000569  -0.009745
    17  H   -0.000000   0.000000   0.000000  -0.000000  -0.000000  -0.000000
    18  H   -0.000000  -0.000000  -0.000000  -0.000000   0.000002   0.000000
    19  H    0.000000   0.000000   0.000000  -0.000000  -0.000000  -0.000000
    20  H   -0.000003   0.000003  -0.000000   0.000002   0.000220   0.000095
    21  H   -0.000000  -0.000001   0.000000  -0.000000   0.000000  -0.000006
    22  H   -0.000000   0.000000  -0.000000   0.000000  -0.000000   0.000000
    23  H    0.000001   0.000000   0.000000  -0.000000   0.000000   0.000000
    24  H   -0.000025  -0.000001  -0.000000  -0.000000  -0.000004  -0.000001
    25  H    0.000001   0.000004  -0.000000   0.000000  -0.000000  -0.000000
    26  H    0.000597  -0.000040   0.000007  -0.000000   0.000008   0.000001
    27  H    0.007037   0.000109  -0.000015   0.000006   0.000234   0.000005
    28  H    0.004681   0.008137   0.000872  -0.000019   0.000100  -0.000039
    29  H    0.003949   0.000562  -0.000642   0.000008  -0.000028   0.000001
    30  H   -0.043122   0.004686  -0.015036  -0.000490   0.000469  -0.000009
    31  H    0.647831   0.004062   0.004527   0.000453   0.007233   0.000030
    32  H    0.004062   0.644076  -0.042703   0.004878   0.004058   0.007548
    33  H    0.004527  -0.042703   0.671936  -0.015467   0.004430   0.000560
    34  H    0.000453   0.004878  -0.015467   0.684868  -0.038803   0.003485
    35  H    0.007233   0.004058   0.004430  -0.038803   0.614340   0.005475
    36  H    0.000030   0.007548   0.000560   0.003485   0.005475   0.632130
    37  H   -0.000040   0.000758  -0.000496  -0.002698   0.001165  -0.047001
    38  H   -0.000007   0.000149  -0.000004   0.000021   0.000165   0.009741
              37         38
     1  C   -0.000000  -0.000140
     2  O    0.000036  -0.000752
     3  C   -0.000267  -0.031870
     4  C   -0.000003  -0.005039
     5  C    0.000004   0.005985
     6  C   -0.000151  -0.041590
     7  O    0.000001   0.001967
     8  O   -0.000000  -0.000097
     9  C    0.000013   0.003420
    10  C    0.000000  -0.000164
    11  C   -0.000186   0.000057
    12  C    0.005270  -0.000149
    13  C   -0.043502   0.000128
    14  C    0.352552  -0.010861
    15  O   -0.020447  -0.026171
    16  C    0.002419   0.330278
    17  H    0.000000   0.000004
    18  H   -0.000004   0.000016
    19  H    0.000000   0.000009
    20  H    0.000037   0.008142
    21  H    0.000000   0.004101
    22  H   -0.000000  -0.000185
    23  H   -0.000000  -0.000086
    24  H   -0.000000  -0.000347
    25  H    0.000000   0.000006
    26  H   -0.000000  -0.000061
    27  H    0.000002   0.000042
    28  H    0.000004   0.000023
    29  H   -0.000000   0.000002
    30  H    0.000008   0.000000
    31  H   -0.000040  -0.000007
    32  H    0.000758   0.000149
    33  H   -0.000496  -0.000004
    34  H   -0.002698   0.000021
    35  H    0.001165   0.000165
    36  H   -0.047001   0.009741
    37  H    0.659652   0.000967
    38  H    0.000967   0.645539
 Mulliken charges:
               1
     1  C   -0.254644
     2  O   -0.306538
     3  C    0.246112
     4  C   -0.251153
     5  C   -0.201770
     6  C    0.341150
     7  O   -0.264055
     8  O   -0.332051
     9  C   -0.220201
    10  C   -0.178285
    11  C   -0.193459
    12  C   -0.171891
    13  C   -0.165385
    14  C   -0.086280
    15  O   -0.261384
    16  C   -0.043657
    17  H    0.125568
    18  H    0.122523
    19  H    0.114714
    20  H    0.071729
    21  H    0.109109
    22  H    0.082242
    23  H    0.077392
    24  H    0.090632
    25  H    0.316805
    26  H    0.108598
    27  H    0.095425
    28  H    0.121958
    29  H    0.077738
    30  H    0.078068
    31  H    0.088788
    32  H    0.092040
    33  H    0.083927
    34  H    0.075368
    35  H    0.109622
    36  H    0.102580
    37  H    0.091908
    38  H    0.106758
 Sum of Mulliken charges =  -0.00000
 Mulliken charges with hydrogens summed into heavy atoms:
               1
     1  C    0.108161
     2  O   -0.306538
     3  C    0.317841
     4  C   -0.059802
     5  C   -0.033746
     6  C    0.341150
     7  O   -0.264055
     8  O   -0.015246
     9  C   -0.016178
    10  C    0.021410
    11  C   -0.026603
    12  C    0.004076
    13  C    0.019604
    14  C    0.108209
    15  O   -0.261384
    16  C    0.063102
 Electronic spatial extent (au):  <R**2>=           3865.8775
 Charge=             -0.0000 electrons
 Dipole moment (field-independent basis, Debye):
    X=             -0.2377    Y=              1.2524    Z=              1.2857  Tot=              1.8106
 Quadrupole moment (field-independent basis, Debye-Ang):
   XX=            -98.8928   YY=            -90.3902   ZZ=            -96.5069
   XY=              2.4496   XZ=              4.5942   YZ=              0.8466
 Traceless Quadrupole moment (field-independent basis, Debye-Ang):
   XX=             -3.6295   YY=              4.8731   ZZ=             -1.2436
   XY=              2.4496   XZ=              4.5942   YZ=              0.8466
 Octapole moment (field-independent basis, Debye-Ang**2):
  XXX=             21.8117  YYY=             55.3906  ZZZ=             -9.3722  XYY=            -10.5332
  XXY=              3.7320  XXZ=             17.6825  XZZ=              4.6240  YZZ=             -0.7593
  YYZ=             -8.5662  XYZ=             -7.7018
 Hexadecapole moment (field-independent basis, Debye-Ang**3):
 XXXX=          -2721.8893 YYYY=          -1459.1185 ZZZZ=           -472.5750 XXXY=            -43.4361
 XXXZ=             78.0649 YYYX=            -89.1790 YYYZ=            -41.5908 ZZZX=              3.8801
 ZZZY=            -10.0988 XXYY=           -752.5174 XXZZ=           -550.4505 YYZZ=           -362.1619
 XXYZ=            -21.3741 YYXZ=             14.3640 ZZXY=            -13.7505
 N-N= 1.282067887719D+03 E-N=-4.364401176563D+03  KE= 7.657620317720D+02
 PrsmSu:  requested number of processors reduced to:  12 ShMem   1 Linda.
 Calling FoFJK, ICntrl=      2127 FMM=F ISym2X=0 I1Cent= 0 IOpClX= 0 NMat=1 NMatS=1 NMatT=0.
 ***** Axes restored to original set *****
 -------------------------------------------------------------------
 Center     Atomic                   Forces (Hartrees/Bohr)
[...]
 6,0.00000544,0.00000382,0.00001562,-0.00000536,0.00000231,0.00001887,0
 .00002691,-0.00000106,0.00000981,-0.00006924,0.00004270,0.00004086,-0.
 00004345,-0.00006224,0.00046163,0.00044381,0.00000351,0.00038746,0.000
 24832,0.00003591,0.00062450,-0.00010604,0.00067151,0.00014665,-0.00053
 672,0.00050524,0.09056267,0.00006777,-0.00003074,0.00006277,-0.0000392
 7,0.00012407,-0.00011662,0.00012058,-0.00027795,-0.00001859,-0.0000710
 7,0.00001660,-0.00007088,0.00003163,0.00002441,-0.00002984,-0.00011077
 ,-0.00000745,0.00013914,0.00003868,0.00000147,-0.00008962,0.00004109,-
 0.00003903,-0.00000804,0.00010319,0.00005034,0.00001196,-0.00020142,0.
 00017905,0.00030059,0.00200260,-0.00065073,0.00423882,-0.00884392,-0.0
 2089056,-0.00484997,-0.08840645,-0.24526171,-0.05543762,-0.00402757,-0
 .00817385,0.00004199,0.00129504,0.00035739,-0.00177018,-0.00060967,0.0
 0059283,0.00010296,-0.00000319,0.00001684,-0.00001940,-0.00001493,-0.0
 0000338,-0.00000342,-0.00001088,-0.00000130,-0.00000702,0.00001386,0.0
 0000993,0.00001781,0.00001066,-0.00000147,-0.00000486,-0.00000473,-0.0
 0002586,-0.00003266,0.00000009,-0.00000979,-0.00001188,0.00000688,0.00
 000574,0.00000724,-0.00002178,0.00001046,0.00000548,-0.00001915,-0.000
 03536,-0.00002503,-0.00000004,0.00003803,0.00001244,0.00003766,0.00009
 669,-0.00011422,0.00008075,-0.00006347,-0.00007993,-0.00039568,-0.0014
 7755,-0.00010635,0.00017752,0.00041196,-0.00005890,0.00059098,0.000591
 03,-0.00055357,-0.00033400,0.00098136,0.00026477,0.09707656,0.26961224
 ,0.00010044,-0.00003298,0.00009128,-0.00006018,0.00012940,-0.00015618,
 0.00032742,-0.00055276,-0.00014859,-0.00015371,0.00005385,-0.00015485,
 0.00003109,-0.00006651,0.00002359,0.00006175,0.00020047,-0.00040935,-0
 .00010071,0.00000887,0.00009932,0.00011616,-0.00017027,0.00000758,-0.0
 0008844,0.00002864,-0.00004804,0.00021286,0.00016025,-0.00036827,-0.00
 204057,0.00204822,-0.00310432,0.00917910,0.02200325,0.00420501,-0.0220
 4738,-0.05376748,-0.06160183,-0.01530116,-0.02621708,-0.00475073,0.003
 20186,-0.00406706,-0.00791688,-0.00172122,-0.00002429,0.00009664,-0.00
 000688,0.00002195,-0.00002843,-0.00002055,-0.00000400,-0.00000393,-0.0
 0001499,-0.00000358,-0.00001450,0.00001935,0.00002691,0.00003194,0.000
 01216,-0.00001179,-0.00000090,0.00000065,-0.00009805,-0.00004730,-0.00
 001614,-0.00004204,-0.00002261,-0.00002229,-0.00000724,-0.00000610,-0.
 00001924,-0.00000527,0.00001910,0.00003488,-0.00000099,0.00007379,0.00
 002823,0.00001840,-0.00002157,-0.00013042,-0.00006870,0.00008741,-0.00
 008818,0.00003425,0.00016378,0.00033265,0.00129839,-0.00007829,-0.0001
 0651,-0.00035343,-0.00009776,-0.00006770,-0.00068461,0.00082494,0.0006
 2412,-0.00038086,0.00083723,0.02699842,0.05765541,0.07133357,-0.000077
 13,0.00002677,-0.00001748,0.00008186,-0.00003397,0.00004455,-0.0000804
 7,0.00005292,0.00001666,0.00002270,0.00000265,0.00001210,-0.00001506,0
 .00000682,0.00000914,-0.00000336,-0.00000198,-0.00003391,0.00003542,0.
 00000589,0.00001326,0.00002562,0.00001074,0.00001295,-0.00006701,0.000
 03720,-0.00000195,0.00005446,-0.00014863,0.00010962,0.00051403,-0.0005
 8086,0.00020139,-0.01054944,0.00103314,-0.00047305,-0.29659126,0.02439
 834,0.00974221,-0.01195599,0.00066968,0.00128965,0.00151671,-0.0001119
 3,-0.00080028,0.00045452,0.00000044,-0.00018517,-0.00000094,-0.0000032
 6,0.00000498,0.00002956,0.00000435,0.00000031,0.00001479,-0.00000372,0
 .00000184,0.00003172,0.00000822,0.00001205,0.00000237,-0.00000467,-0.0
 0000691,0.00000303,0.00000621,0.00001354,0.00000231,0.00000270,0.00000
 378,0.00000914,0.00000517,-0.00000015,-0.00000645,-0.00000808,-0.00000
 546,0.00002392,0.00001379,0.00001467,0.00002762,0.00003287,0.00001469,
 0.00008061,-0.00009433,-0.00007510,0.00006887,-0.00000515,-0.00007336,
 0.00026146,0.00001354,0.00002842,0.00048251,0.00083161,0.00014788,0.00
 091412,0.00123420,-0.00174640,0.00062961,-0.00008060,-0.00056797,-0.01
 224169,0.00091972,0.00068406,0.32506686,-0.00003504,0.00001420,-0.0000
 3852,0.00000829,-0.00005944,0.00006799,-0.00002324,0.00008894,-0.00001
 554,0.00001400,-0.00001842,0.00002947,-0.00000327,0.00001142,-0.000014
 53,-0.00000495,-0.00003606,0.00005436,-0.00000369,-0.00000420,0.000005
 67,-0.00004618,0.00005560,-0.00000310,0.00002879,-0.00004872,0.0000398
 6,0.00001545,-0.00003289,-0.00019088,0.00163127,0.00168246,-0.00030598
 ,0.02338001,-0.00358966,0.00035036,0.02287036,-0.04966567,0.00013119,0
 .00821916,-0.00188069,-0.00236436,0.00058739,0.00095992,0.00114599,0.0
 0018658,-0.00023379,-0.00037961,-0.00000096,-0.00000795,0.00001195,0.0
 0000832,0.00000507,0.00000113,0.00000596,0.,0.00000481,-0.00003508,-0.
 00000714,-0.00001733,-0.00000620,0.00000572,0.00000464,0.00000379,0.00
 001704,0.00001019,-0.00000020,0.00000883,0.00000869,-0.00000241,-0.000
 00510,-0.00000104,0.00001010,-0.00000074,-0.00000503,-0.00003176,0.000
 00631,-0.00001846,-0.00005176,-0.00004845,-0.00003186,-0.00012700,0.00
 000531,0.00012211,-0.00005391,0.00004836,0.00002131,-0.00026071,0.0002
 3094,-0.00009080,-0.00085108,-0.00035975,-0.00019246,0.00166029,-0.002
 58606,0.00352619,-0.00074054,0.00078660,-0.00055736,-0.02856979,0.0028
 0089,0.00196425,-0.02765029,0.05140912,0.00005453,-0.00002365,0.000010
 58,-0.00005729,-0.00001058,-0.00001198,-0.00009315,0.00003366,0.000093
 45,0.00001562,0.00000597,0.00003129,0.00000881,-0.00001398,0.00001067,
 0.00002992,0.00008063,0.00001316,-0.00004598,0.00000229,0.00002735,-0.
 00001480,-0.00002869,-0.00000345,0.00001508,-0.00001937,-0.00001999,0.
 00018412,-0.00002461,0.00009471,-0.00015895,-0.00132973,0.00048118,-0.
 02367278,0.00336211,-0.00099179,0.00837684,-0.00061657,-0.04716670,0.0
 3566416,-0.00368560,-0.00413045,-0.00102364,0.00168335,0.00253449,0.00
 011786,0.00002947,-0.00010170,0.00000168,0.00000007,0.00000002,-0.0000
 2499,-0.00000295,-0.00000358,-0.00001376,0.00000290,-0.00000344,-0.000
 05854,-0.00000828,-0.00005593,-0.00000471,0.00000576,0.00000970,-0.000
 00023,0.00000342,0.00000152,-0.00000234,-0.00000436,-0.00000084,-0.000
 01037,-0.00000443,-0.00000254,0.00000147,0.00000330,0.00000518,0.00000
 391,0.00001068,0.00002549,-0.00000696,-0.00001058,0.00001134,-0.000027
 99,0.00004050,-0.00012792,-0.00001938,-0.00004856,0.00000547,0.0000822
 0,-0.00021788,-0.00003065,0.00063427,0.00014537,0.00027838,-0.00138905
 ,0.00381995,-0.00285075,0.00010404,-0.00072835,0.00078245,-0.00822426,
 0.00091974,-0.00018862,-0.01060006,-0.00173661,0.05574423,0.00004553,0
 .00000294,0.00009875,0.00005284,0.00003628,-0.00021668,0.00029673,-0.0
 0017289,-0.00037332,-0.00006264,0.00007217,-0.00020387,0.00000435,0.00
 003117,0.00007321,0.00029498,-0.00001353,-0.00060334,-0.00012193,0.000
 01912,0.00001060,0.00028845,-0.00018309,0.00009141,-0.00009301,0.00006
 423,-0.00021495,-0.00080940,0.00006200,0.00021032,-0.00009399,0.000013
 25,0.00012069,0.00058393,-0.00018763,-0.00085171,-0.00752378,0.0032399
 8,0.00124378,-0.26855228,0.06271175,0.01276629,-0.02584058,-0.01021008
 ,-0.00584493,-0.00016228,0.00273477,0.00537280,-0.00001093,0.00002081,
 -0.00002127,0.00002126,-0.00000054,0.00000290,-0.00000254,-0.00001500,
 -0.00002263,0.00030640,0.00006383,0.00035339,0.00002176,-0.00005222,-0
 .00004053,0.00000601,-0.00007314,-0.00002576,0.00000086,-0.00002370,-0
 .00000828,0.00001596,0.00001175,0.00000144,-0.00002817,-0.00001113,0.0
 0000494,0.00009480,-0.00001546,0.00006686,0.00018852,0.00013655,-0.000
 00927,0.00064210,-0.00002632,-0.00013909,0.00023950,0.00013085,-0.0000
 8031,0.00010511,-0.00008270,-0.00000198,0.00014871,0.00010992,-0.00012
 626,0.00043875,-0.00052466,0.00076640,0.00034473,0.00001720,-0.0001096
 3,-0.00008763,0.00038388,0.00069778,0.00080278,0.00060664,0.00103989,0
 .30268262,0.00009656,-0.00003449,0.00005976,-0.00004334,0.00016611,-0.
 00011056,0.00017307,-0.00022348,-0.00033953,-0.00001101,0.00009682,-0.
 00011089,0.00001396,-0.00001037,0.00002016,-0.00044160,-0.00004860,0.0
 0029271,0.00008183,0.00009975,0.00008178,0.00001463,-0.00006708,-0.000
 01523,-0.00021675,-0.00005218,-0.00001858,-0.00033577,-0.00031823,-0.0
 0008161,-0.00020483,-0.00001728,-0.00001499,-0.00076781,0.00020850,0.0
 0038840,0.00711819,-0.00018004,0.00056636,0.07055602,-0.07061903,-0.00
 291582,-0.03488505,-0.00375563,-0.00524454,-0.00369391,0.00307874,0.00
 329844,0.00000261,0.00001243,-0.00002955,-0.00004494,-0.00001968,-0.00
 000201,-0.00001759,0.00000938,-0.00000232,0.00022985,-0.00001497,-0.00
 001921,0.00001009,-0.00001989,-0.00000925,-0.00000852,-0.00005538,-0.0
 0001584,-0.00000043,-0.00001214,-0.00001479,0.00001102,0.00001738,0.00
 001441,0.00000411,-0.00000026,0.00000063,0.00006836,-0.00000511,0.0000
 6919,0.00012979,0.00002939,-0.00004855,0.00013526,-0.00065397,0.000300
 52,0.00011433,0.00008082,-0.00002974,0.00004250,0.00005183,0.00000710,
 0.00010098,-0.00006874,-0.00004427,-0.00029272,0.00032554,-0.00024615,
 -0.00004493,-0.00008044,-0.00000046,-0.00023133,-0.00001975,0.00036218
 ,-0.00020121,0.00044527,-0.00191631,-0.06246041,0.07676898,0.00001791,
 0.00002353,0.00001800,0.00005006,-0.00005958,-0.00012825,0.00025686,0.
 00013520,-0.00044970,-0.00003162,0.00000274,-0.00004078,0.00003322,-0.
 00004406,0.00000226,-0.00033331,-0.00026152,0.00005530,0.00004144,0.00
 008612,-0.00003781,-0.00000595,0.00005268,-0.00002447,-0.00001195,0.00
 011135,0.00013172,0.00022516,0.00016573,-0.00011754,0.00005118,0.00014
 673,-0.00029180,0.00088517,-0.00023737,0.00244274,0.03164078,-0.007607
 84,-0.00279271,0.01491104,-0.00117948,-0.05093158,-0.01189771,-0.00554
 352,-0.00189037,-0.00402942,0.00061806,0.00276690,-0.00000977,0.000002
 82,0.00000366,0.00001655,0.00000255,0.00000981,0.00000215,-0.00000838,
 -0.00000719,0.00019214,-0.00001941,-0.00000224,0.00001302,-0.00001164,
 -0.00002123,-0.00000031,-0.00000549,-0.00000805,-0.00000951,-0.0000115
 6,-0.00001750,0.00001421,0.00000912,0.00000947,-0.00000366,-0.00000593
 ,-0.00000828,0.00000469,-0.00001699,-0.00003207,0.00001513,0.00000018,
 -0.00004818,-0.00015895,0.00042911,0.00012992,-0.00010187,-0.00007196,
 0.00006651,-0.00000203,0.00008655,0.00001866,-0.00013097,-0.00014127,-
 0.00002674,-0.00087462,0.00025110,-0.00024715,-0.00030638,-0.00024632,
 0.00042039,-0.00069766,-0.00005757,0.00059946,0.00196073,-0.00158023,-
 0.00591541,-0.01382010,0.00758367,0.05462432,0.00005304,-0.00001852,-0
 .00002550,-0.00015978,0.00021183,0.00001371,0.00002672,-0.00016340,0.0
 0010546,-0.00004665,0.00003886,-0.00000936,0.00006504,-0.00010158,0.00
 007607,0.00030686,-0.00033568,-0.00062978,-0.00016996,-0.00003200,0.00
 004899,0.00021952,-0.00019517,0.00002107,-0.00005557,0.00005543,-0.000
 22589,-0.00056283,-0.00003313,0.00015267,-0.00014271,-0.00005518,-0.00
 010462,-0.00011041,0.00095339,0.00111571,0.00255417,-0.00724224,0.0071
 2081,-0.06134014,0.04147056,-0.02661724,0.00095372,-0.02720903,0.00607
 362,-0.00084890,0.00036749,0.00293884,0.00000558,0.00000363,-0.0000107
 9,-0.00004628,-0.00001895,-0.00001493,-0.00001513,0.00000408,0.0000084
 2,-0.00005013,-0.00001119,0.00001816,-0.00000009,0.00000821,0.00000458
 ,-0.00000305,-0.00002734,-0.00001732,-0.00002699,-0.00003662,-0.000043
 86,-0.00001112,-0.00000483,-0.00000618,-0.00000270,-0.00001240,0.00001
 661,0.00007800,-0.00001951,0.00008305,0.00012075,0.00007131,-0.0000059
 7,0.00032771,-0.00003986,-0.00010904,0.00015630,0.00009122,-0.00002419
 ,0.00006290,-0.00001496,-0.00000843,0.00008986,-0.00001548,-0.00003466
 ,0.00033399,-0.00014842,0.00031134,0.00040460,-0.00020834,0.00028467,0
 .00041948,0.00008675,-0.00077327,0.00040276,-0.00054091,-0.00056484,-0
 .00552012,0.02439406,-0.01827840,0.06244833,-0.00006129,0.00014835,-0.
 00011129,0.00017543,0.00093072,0.00018153,0.00003186,-0.00132479,0.000
 38050,-0.00012256,0.00017840,-0.00021206,0.00010270,-0.00011950,0.0001
 1723,0.00062788,-0.00055598,-0.00061733,-0.00020564,-0.00010541,-0.000
 04030,0.00029231,-0.00038654,-0.00006763,-0.00005100,0.00022351,-0.000
 20135,-0.00008992,0.00015435,-0.00023225,-0.00011665,-0.00009828,-0.00
 039559,0.00077114,0.00054884,-0.00128888,-0.00069053,0.00635054,-0.004
 89985,0.03988195,-0.19100829,0.11322617,-0.01117367,-0.03589503,0.0018
 8641,-0.00212676,0.00170769,0.00533635,-0.00001791,0.00003492,-0.00008
 090,0.00000066,-0.00003488,-0.00000777,0.00005106,0.00002374,0.0001064
 5,0.00010329,0.00007797,0.00002441,0.00002882,-0.00002408,-0.00000650,
 -0.00001896,-0.00007960,-0.00007812,-0.00003775,-0.00004741,-0.0001035
 7,-0.00001645,0.00000174,-0.00001706,-0.00001535,-0.00001907,0.0000537
 9,0.00007151,-0.00008580,0.00002428,0.00012228,0.00012596,-0.00005118,
 -0.00012312,0.00007738,-0.00003895,0.00000044,-0.00004833,0.00010244,0
 .00008507,0.00013028,0.00012992,0.00010807,0.00001697,-0.00002994,-0.0
 0006144,-0.00002646,-0.00005740,-0.00012599,0.00012376,-0.00037915,-0.
 00006653,0.00107497,0.00056644,-0.00021675,0.00004370,0.00031849,0.003
 78452,-0.00543627,0.00750777,-0.03148702,0.22345440,-0.00019315,0.0001
 3731,-0.00014295,0.00009466,0.00019394,-0.00000503,-0.00028962,0.00009
 308,0.00056282,0.00008440,-0.00003757,0.00004880,-0.00006062,0.0000002
 5,0.00000012,0.00048615,-0.00004779,-0.00019293,-0.00010259,-0.0000108
 0,0.00004304,0.00007128,-0.00013414,-0.00000261,-0.00010024,-0.0000846
 8,-0.00005219,0.00006168,-0.00000538,-0.00008987,-0.00014416,-0.000299
 65,-0.00013057,0.00350090,-0.00379632,-0.00412559,-0.00835155,0.024352
 37,-0.01964982,-0.02522494,0.11458566,-0.13779312,-0.00026285,-0.01452
 622,0.01011627,-0.00003202,0.00006649,0.00186743,-0.00000215,-0.000032
 29,0.00002173,0.00004708,0.00000106,0.00000227,0.00004699,-0.00001793,
 0.00003663,-0.00001011,0.00003259,-0.00004055,-0.00000241,-0.00000465,
 0.00000542,0.00000154,0.00002740,0.00002192,0.00000535,0.00000016,0.00
 000610,-0.00000783,-0.00000190,-0.00001075,0.00001283,-0.00001517,0.00
 000873,0.00004404,-0.00001396,0.00003483,0.00004843,0.00001311,-0.0000
 2000,0.00000507,0.00002184,-0.00001978,-0.00001212,0.00003749,0.000049
 29,0.00004792,0.00022845,0.00008942,0.00008801,0.00009687,0.00003506,-
 0.00006984,-0.00018273,0.00024166,-0.00052129,0.00137033,-0.00160732,-
 0.00061238,-0.00026902,0.00074773,0.00048769,-0.00002061,0.00122738,0.
 00125633,-0.00156410,0.00237177,0.02945429,-0.12048218,0.14637845,0.00
 020764,0.00029914,-0.00008095,0.00255766,-0.00060541,0.00216607,-0.022
 12163,-0.00854431,0.00369798,-0.00011085,0.00023363,0.00031990,-0.0004
 0720,-0.00015045,-0.00042635,0.00536360,0.00043862,-0.00154452,-0.0014
 2747,0.00274855,-0.00016344,0.00022349,0.00012666,-0.00030619,-0.00043
 193,0.00089407,0.00000682,-0.00024263,-0.00006598,-0.00004480,-0.00009
 707,0.00000335,-0.00003019,-0.00001808,-0.00003616,-0.00008859,0.00052
 958,0.00005496,-0.00009434,0.00107312,-0.00318309,-0.00300503,-0.01347
 763,0.00237529,0.01146501,-0.24387173,-0.08223971,0.05947194,0.0000291
 8,0.00000086,-0.00002812,0.00032503,-0.00014231,0.00017318,0.00013336,
 -0.00001130,0.00019129,-0.00134100,-0.00000232,-0.00272960,0.00041618,
 -0.00042159,-0.00026429,0.00026932,-0.00011896,-0.00033636,-0.00006202
 ,0.00008234,0.00013797,-0.00000418,0.00005425,-0.00007134,0.00008910,-
 0.00003522,0.00000822,0.00004348,0.00010288,-0.00029501,0.00004820,0.0
 0004802,0.00000030,0.00011712,0.00004404,-0.00009896,0.00005842,-0.000
 01174,-0.00002665,0.00004904,-0.00001574,0.00002713,0.00008662,0.00001
 620,-0.00005333,0.00001123,0.00000553,0.00002254,-0.00000486,0.0000049
 6,0.00000324,0.00001225,0.00002865,0.00011657,0.00002945,-0.00019743,-
 0.00032033,0.00128259,0.00060494,0.00037278,0.00008321,0.00058628,0.00
 015522,0.27057943,0.00030850,0.00004835,0.00007215,0.00087259,0.000218
 76,-0.00053985,0.00185079,0.00184671,0.00159989,-0.00011348,-0.0001037
 9,0.00044506,0.00173676,-0.00247928,0.00050956,-0.02561321,-0.01101561
 ,0.00768195,-0.00020376,-0.00195823,0.00058474,0.00013013,0.00225559,-
 0.00011776,0.00085356,-0.00329219,-0.00087728,-0.00010069,-0.00008185,
 -0.00001105,0.00015312,0.00003728,0.00003668,-0.00004971,0.00004628,0.
 00012578,0.00021032,-0.00021448,-0.00009542,0.00367173,0.00241660,-0.0
 0107828,0.01945507,0.00246245,-0.01407880,-0.08986991,-0.08463893,0.02
 605147,-0.00006736,0.00002235,-0.00003622,-0.00006777,-0.00004924,0.00
 008864,-0.00001528,-0.00003788,-0.00002678,0.00044449,0.00020300,0.000
 15866,-0.00005632,-0.00001099,-0.00050490,0.00008065,0.00009826,-0.000
 10379,-0.00057942,-0.00058595,-0.00075201,0.00012181,0.00020588,0.0001
 1322,-0.00003527,-0.00005305,-0.00019771,-0.00022935,-0.00029618,0.001
 22958,0.00013609,0.00015694,-0.00026962,0.00014250,0.00016357,0.000281
 73,0.00005458,0.00010233,0.00005845,-0.00002263,0.00001201,-0.00001799
 ,-0.00002435,-0.00005061,0.00000309,0.00000188,0.00001664,-0.00000675,
 0.00001142,0.00000536,0.00001082,-0.00005827,-0.00002635,-0.00002216,-
 0.00017153,-0.00004097,-0.00003658,-0.00020109,0.00032208,-0.00010485,
 0.00021494,-0.00013249,0.00028871,0.08702849,0.09442765,-0.00038776,0.
 00013672,0.00000282,0.00139548,-0.00097707,0.00200445,-0.02584638,-0.0
 0809763,0.00639862,0.00044001,0.00067436,0.00091620,-0.00030206,0.0007
 4371,-0.00072162,0.00862792,0.00667289,-0.00126815,0.00055037,-0.00053
 922,0.00027803,0.00047562,-0.00141479,0.00034424,-0.00016609,0.0009062
 8,0.00014126,0.00010630,-0.00006427,-0.00000422,0.00016349,-0.00004676
 ,0.00004088,0.00007186,0.00004441,0.00011046,-0.00031283,0.00002120,-0
 .00014941,0.00513541,0.00304645,0.00234415,0.02847168,-0.00122577,-0.0
 1982444,0.05400414,0.02118232,-0.06404012,0.00012648,0.00000397,0.0000
 2395,0.00032992,-0.00001914,-0.00010617,0.00006081,-0.00000078,0.00014
 171,-0.00256890,0.00042163,-0.00390492,0.00007901,-0.00038272,-0.00034
 040,0.00025988,0.00011213,-0.00010650,0.00022646,0.00004617,0.00030474
 ,-0.00000974,0.00011653,-0.00004393,-0.00007611,-0.00002394,0.00014744
 ,0.00006521,0.00011749,-0.00035924,-0.00009633,-0.00019619,0.00009108,
 -0.00005971,-0.00000829,-0.00029284,-0.00004973,0.00000260,-0.00000932
 ,-0.00008065,0.00003739,-0.00003237,-0.00014992,-0.00002374,0.00004438
 ,-0.00004019,0.00000092,-0.00004242,-0.00001111,-0.00000871,-0.0000040
 0,-0.00005815,-0.00004593,-0.00007332,-0.00023894,0.00006416,0.0002176
 9,-0.00146385,-0.00025102,-0.00063183,-0.00034379,-0.00056295,-0.00003
 379,-0.06832779,-0.02046240,0.07843691\\0.00000203,-0.00000050,0.00000
 095,-0.00000107,-0.00000833,0.00000436,0.00000165,0.00000036,0.0000042
 3,-0.00000190,0.00000631,-0.00000854,0.00000769,0.00000227,0.00001174,
 0.00002039,0.00000404,-0.00001964,-0.00001116,0.00001201,0.00001440,-0
 .00000691,0.00000030,0.00000329,-0.00000209,-0.00000536,0.00001624,-0.
 00000459,-0.00000309,-0.00001108,-0.00000526,0.00000356,0.00000503,0.0
 0000091,-0.00001006,-0.00000223,-0.00000416,0.00000450,-0.00000532,0.0
 0001494,0.00000720,0.00000641,-0.00001390,-0.00000793,-0.00000719,0.00
 000232,-0.00000103,0.00000391,-0.00000408,-0.00000012,-0.00000112,-0.0
 0000185,-0.00000204,-0.00000055,-0.00000170,-0.00000183,-0.00000225,-0
 .00000417,0.00000013,0.00000024,0.00000165,0.00000087,-0.00000131,0.00
 000204,-0.00000292,0.00000376,-0.00000287,-0.00000068,-0.00000298,-0.0
 0000282,0.00000077,0.00000296,0.00000411,-0.00000499,-0.00000242,0.000
 00257,-0.00000096,-0.00000010,0.00000325,0.00000005,-0.00000215,0.0000
 0267,0.00000171,-0.00000210,0.00000094,0.00000253,0.00000007,0.0000036
 0,-0.00000122,-0.00000222,0.00000429,-0.00000033,0.00000048,-0.0000002
 9,0.00000035,-0.00000144,-0.00000079,0.00000121,-0.00000070,-0.0000030
 6,-0.00000092,0.00000076,-0.00000204,-0.00000207,-0.00000172,-0.000000
 30,0.00000055,-0.00000290,-0.00000096,0.00000038,-0.00000049,0.0000009
 2,0.00000530,-0.00000036\\\@


 ...THE PHYSICISTS HAVE MADE THEIR UNIVERSE, AND IF YOU DO NOT LIKE
 IT, YOU MUST MAKE YOUR OWN.
                               -- E. R. HARRISON IN "COSMOLOGY" (1980)
 Job cpu time:       0 days 16 hours 24 minutes 19.7 seconds.
 Elapsed time:       0 days  4 hours  6 minutes  7.9 seconds.
 File lengths (MBytes):  RWF=    858 Int=      0 D2E=      0 Chk=     26 Scr=      1
 Normal termination of Gaussian 16 at Tue May 23 05:26:52 2023.
### All Done ###
