### Starting Gaussian ###
 Entering Gaussian System, Link 0=g16
 Initial command:
 /cluster/software/gaussian/gaussian-16-A.03/avx2/g16/l1.exe "/local/scratch/yxie/Gau-22264.inp" -scrdir="/local/scratch/yxie/"
 Entering Link 1 = /cluster/software/gaussian/gaussian-16-A.03/avx2/g16/l1.exe PID=     22265.
  
 Copyright (c) 1988,1990,1992,1993,1995,1998,2003,2009,2016,
            Gaussian, Inc.  All Rights Reserved.
  
 This is part of the Gaussian(R) 16 program.  It is based on
 the Gaussian(R) 09 system (copyright 2009, Gaussian, Inc.),
 the Gaussian(R) 03 system (copyright 2003, Gaussian, Inc.),
 the Gaussian(R) 98 system (copyright 1998, Gaussian, Inc.),
 the Gaussian(R) 94 system (copyright 1995, Gaussian, Inc.),
 the Gaussian 92(TM) system (copyright 1992, Gaussian, Inc.),
 the Gaussian 90(TM) system (copyright 1990, Gaussian, Inc.),
 the Gaussian 88(TM) system (copyright 1988, Gaussian, Inc.),
 the Gaussian 86(TM) system (copyright 1986, Carnegie Mellon
 University), and the Gaussian 82(TM) system (copyright 1983,
 Carnegie Mellon University). Gaussian is a federally registered
 trademark of Gaussian, Inc.
  
 This software contains proprietary and confidential information,
 including trade secrets, belonging to Gaussian, Inc.
  
 This software is provided under written license and may be
 used, copied, transmitted, or stored only in accord with that
 written license.
  
 The following legend is applicable only to US Government
 contracts under FAR:
  
                    RESTRICTED RIGHTS LEGEND
  
 Use, reproduction and disclosure by the US Government is
 subject to restrictions as set forth in subparagraphs (a)
 and (c) of the Commercial Computer Software - Restricted
 Rights clause in FAR 52.227-19.
  
 Gaussian, Inc.
 340 Quinnipiac St., Bldg. 40, Wallingford CT 06492
  
  
 ---------------------------------------------------------------
 Warning -- This program may not be used in any manner that
 competes with the business of Gaussian, Inc. or will provide
 assistance to any competitor of Gaussian, Inc.  The licensee
 of this program is prohibited from giving any competitor of
 Gaussian, Inc. access to this program.  By using this program,
 the user acknowledges that Gaussian, Inc. is engaged in the
 business of creating and licensing software in the field of
 computational chemistry and represents and warrants to the
 licensee that it is not a competitor of Gaussian, Inc. and that
 it will not use this program in any manner prohibited above.
 ---------------------------------------------------------------
  

 Cite this work as:
 Gaussian 16, Revision A.03,
 M. J. Frisch, G. W. Trucks, H. B. Schlegel, G. E. Scuseria, 
 M. A. Robb, J. R. Cheeseman, G. Scalmani, V. Barone, 
 G. A. Petersson, H. Nakatsuji, X. Li, M. Caricato, A. V. Marenich, 
 J. Bloino, B. G. Janesko, R. Gomperts, B. Mennucci, H. P. Hratchian, 
 J. V. Ortiz, A. F. Izmaylov, J. L. Sonnenberg, D. Williams-Young, 
 F. Ding, F. Lipparini, F. Egidi, J. Goings, B. Peng, A. Petrone, 
 T. Henderson, D. Ranasinghe, V. G. Zakrzewski, J. Gao, N. Rega, 
 G. Zheng, W. Liang, M. Hada, M. Ehara, K. Toyota, R. Fukuda, 
 J. Hasegawa, M. Ishida, T. Nakajima, Y. Honda, O. Kitao, H. Nakai, 
 T. Vreven, K. Throssell, J. A. Montgomery, Jr., J. E. Peralta, 
 F. Ogliaro, M. J. Bearpark, J. J. Heyd, E. N. Brothers, K. N. Kudin, 
 V. N. Staroverov, T. A. Keith, R. Kobayashi, J. Normand, 
 K. Raghavachari, A. P. Rendell, J. C. Burant, S. S. Iyengar, 
 J. Tomasi, M. Cossi, J. M. Millam, M. Klene, C. Adamo, R. Cammi, 
 J. W. Ochterski, R. L. Martin, K. Morokuma, O. Farkas, 
 J. B. Foresman, and D. J. Fox, Gaussian, Inc., Wallingford CT, 2016.
 
 ******************************************
 Gaussian 16:  ES64L-G16RevA.03 25-Dec-2016
                23-May-2023 
 ******************************************
 %chk=COC1qCdOrCC2CCCC1CC2qCrO.chk
 %NProcShared=20
 Will use up to   20 processors via shared memory.
 -----------------------------
 # opt freq b3lyp/6-31g(2df,p)
 -----------------------------
 1/18=20,19=15,26=3,38=1/1,3;
 2/9=110,12=2,17=6,18=5,40=1/2;
 3/5=1,6=6,7=104,11=2,25=1,30=1,71=1,74=-5/1,2,3;
 4//1;
 5/5=2,38=5/2;
 6/7=2,8=2,9=2,10=2,28=1/1;
 7//1,2,3,16;
 1/18=20,19=15,26=3/3(2);
 2/9=110/2;
 99//99;
 2/9=110/2;
 3/5=1,6=6,7=104,11=2,25=1,30=1,71=1,74=-5/1,2,3;
 4/5=5,16=3,69=1/1;
 5/5=2,38=5/2;
 7//1,2,3,16;
 1/18=20,19=15,26=3/3(-5);
 2/9=110/2;
 6/7=2,8=2,9=2,10=2,19=2,28=1/1;
 99/9=1/99;
 -------------------
 Title Card Required
 -------------------
 Symbolic Z-matrix:
 Charge =  0 Multiplicity = 1
 C                     0.86025   0.0405   -0.10854 
 O                     2.2628   -0.09063   0.00377 
 C                     2.78517  -0.97828   1.00654 
 C                     3.14605  -2.27574   0.27316 
 O                     3.5883   -3.29076   0.83883 
 C                     1.83789  -1.33566   2.17416 
 C                     2.11171  -0.51821   3.45758 
 C                     1.9509    0.99231   3.20498 
 C                     3.24006   1.71883   2.8051 
 C                     3.97313   1.22999   1.58296 
 C                     4.09987  -0.31809   1.52606 
 C                     4.54248  -0.97149   2.88239 
 C                     3.5076   -0.85052   4.04725 
 C                     3.92932   0.06851   5.23428 
 O                     3.42439  -2.13356   4.69986 
 H                     0.63633   0.78346  -0.87658 
 H                     0.41474   0.42274   0.8096 
 H                     0.419    -0.91981  -0.37521 
 H                     2.99054  -2.28435  -0.81374 
 H                     1.92563  -2.40254   2.41674 
 H                     0.78279  -1.23942   1.90789 
 H                     1.33689  -0.84569   4.16608 
 H                     1.56562   1.42954   4.13463 
 H                     1.17152   1.19826   2.46939 
 H                     4.03373   1.56312   3.50692 
 H                     3.10924   2.80097   2.86809 
 H                     4.99019   1.64493   1.63786 
 H                     3.5329    1.67935   0.68829 
 H                     4.89793  -0.50832   0.79182 
 H                     5.52179  -0.5898    3.18818 
 H                     4.71656  -2.03905   2.68207 
 H                     4.01617   1.14837   5.1159 
 H                     4.91139  -0.22976   5.60897 
 H                     3.19198  -0.00456   6.03846 
 H                     3.18439  -2.81857   4.05585 
 

 GradGradGradGradGradGradGradGradGradGradGradGradGradGradGradGradGradGrad
 Berny optimization.
 Initialization pass.
                           ----------------------------
                           !    Initial Parameters    !
                           ! (Angstroms and Degrees)  !
 --------------------------                            --------------------------
 ! Name  Definition              Value          Derivative Info.                !
 --------------------------------------------------------------------------------
 ! R1    R(1,2)                  1.4131         estimate D2E/DX2                !
 ! R2    R(1,16)                 1.0918         estimate D2E/DX2                !
 ! R3    R(1,17)                 1.0898         estimate D2E/DX2                !
 ! R4    R(1,18)                 1.09           estimate D2E/DX2                !
 ! R5    R(2,3)                  1.4375         estimate D2E/DX2                !
 ! R6    R(3,4)                  1.5335         estimate D2E/DX2                !
 ! R7    R(3,6)                  1.5454         estimate D2E/DX2                !
 ! R8    R(3,11)                 1.5602         estimate D2E/DX2                !
 ! R9    R(4,5)                  1.2433         estimate D2E/DX2                !
 ! R10   R(4,19)                 1.098          estimate D2E/DX2                !
 ! R11   R(6,7)                  1.5461         estimate D2E/DX2                !
 ! R12   R(6,20)                 1.0976         estimate D2E/DX2                !
 ! R13   R(6,21)                 1.0924         estimate D2E/DX2                !
 ! R14   R(7,8)                  1.5399         estimate D2E/DX2                !
 ! R15   R(7,13)                 1.5513         estimate D2E/DX2                !
 ! R16   R(7,22)                 1.0998         estimate D2E/DX2                !
 ! R17   R(8,9)                  1.5329         estimate D2E/DX2                !
 ! R18   R(8,23)                 1.0972         estimate D2E/DX2                !
 ! R19   R(8,24)                 1.0913         estimate D2E/DX2                !
 ! R20   R(9,10)                 1.5066         estimate D2E/DX2                !
 ! R21   R(9,25)                 1.0708         estimate D2E/DX2                !
 ! R22   R(9,26)                 1.0918         estimate D2E/DX2                !
 ! R23   R(10,11)                1.5543         estimate D2E/DX2                !
 ! R24   R(10,27)                1.0998         estimate D2E/DX2                !
 ! R25   R(10,28)                1.0937         estimate D2E/DX2                !
 ! R26   R(11,12)                1.5692         estimate D2E/DX2                !
 ! R27   R(11,29)                1.101          estimate D2E/DX2                !
 ! R28   R(12,13)                1.5629         estimate D2E/DX2                !
 ! R29   R(12,30)                1.0946         estimate D2E/DX2                !
 ! R30   R(12,31)                1.1001         estimate D2E/DX2                !
 ! R31   R(13,14)                1.5593         estimate D2E/DX2                !
 ! R32   R(13,15)                1.4419         estimate D2E/DX2                !
 ! R33   R(14,32)                1.0898         estimate D2E/DX2                !
 ! R34   R(14,33)                1.0926         estimate D2E/DX2                !
 ! R35   R(14,34)                1.0935         estimate D2E/DX2                !
 ! R36   R(15,35)                0.9704         estimate D2E/DX2                !
 ! A1    A(2,1,16)             108.8209         estimate D2E/DX2                !
 ! A2    A(2,1,17)             111.7984         estimate D2E/DX2                !
 ! A3    A(2,1,18)             109.8457         estimate D2E/DX2                !
 ! A4    A(16,1,17)            105.6731         estimate D2E/DX2                !
 ! A5    A(16,1,18)            110.1459         estimate D2E/DX2                !
 ! A6    A(17,1,18)            110.4668         estimate D2E/DX2                !
 ! A7    A(1,2,3)              118.2561         estimate D2E/DX2                !
 ! A8    A(2,3,4)              105.9244         estimate D2E/DX2                !
 ! A9    A(2,3,6)              116.5578         estimate D2E/DX2                !
 ! A10   A(2,3,11)             106.0936         estimate D2E/DX2                !
 ! A11   A(4,3,6)              108.0546         estimate D2E/DX2                !
 ! A12   A(4,3,11)             108.6006         estimate D2E/DX2                !
 ! A13   A(6,3,11)             111.2709         estimate D2E/DX2                !
 ! A14   A(3,4,5)              123.8391         estimate D2E/DX2                !
 ! A15   A(3,4,19)             116.5335         estimate D2E/DX2                !
 ! A16   A(5,4,19)             119.6266         estimate D2E/DX2                !
 ! A17   A(3,6,7)              113.35           estimate D2E/DX2                !
 ! A18   A(3,6,20)             110.0444         estimate D2E/DX2                !
 ! A19   A(3,6,21)             112.7979         estimate D2E/DX2                !
 ! A20   A(7,6,20)             108.4392         estimate D2E/DX2                !
 ! A21   A(7,6,21)             109.0751         estimate D2E/DX2                !
 ! A22   A(20,6,21)            102.5155         estimate D2E/DX2                !
 ! A23   A(6,7,8)              111.3441         estimate D2E/DX2                !
 ! A24   A(6,7,13)             111.2004         estimate D2E/DX2                !
 ! A25   A(6,7,22)             104.6289         estimate D2E/DX2                !
 ! A26   A(8,7,13)             111.4959         estimate D2E/DX2                !
 ! A27   A(8,7,22)             108.916          estimate D2E/DX2                !
 ! A28   A(13,7,22)            108.9817         estimate D2E/DX2                !
 ! A29   A(7,8,9)              114.8272         estimate D2E/DX2                !
 ! A30   A(7,8,23)             106.7725         estimate D2E/DX2                !
 ! A31   A(7,8,24)             111.7319         estimate D2E/DX2                !
 ! A32   A(9,8,23)             109.116          estimate D2E/DX2                !
 ! A33   A(9,8,24)             109.5935         estimate D2E/DX2                !
 ! A34   A(23,8,24)            104.1895         estimate D2E/DX2                !
 ! A35   A(8,9,10)             117.8418         estimate D2E/DX2                !
 ! A36   A(8,9,25)             112.5468         estimate D2E/DX2                !
 ! A37   A(8,9,26)             110.7282         estimate D2E/DX2                !
 ! A38   A(10,9,25)             97.1133         estimate D2E/DX2                !
 ! A39   A(10,9,26)            115.2564         estimate D2E/DX2                !
 ! A40   A(25,9,26)            101.2511         estimate D2E/DX2                !
 ! A41   A(9,10,11)            113.1118         estimate D2E/DX2                !
 ! A42   A(9,10,27)            106.681          estimate D2E/DX2                !
 ! A43   A(9,10,28)            109.5361         estimate D2E/DX2                !
 ! A44   A(11,10,27)           107.5893         estimate D2E/DX2                !
 ! A45   A(11,10,28)           114.3366         estimate D2E/DX2                !
 ! A46   A(27,10,28)           104.9545         estimate D2E/DX2                !
 ! A47   A(3,11,10)            111.4034         estimate D2E/DX2                !
 ! A48   A(3,11,12)            110.4441         estimate D2E/DX2                !
 ! A49   A(3,11,29)            108.3985         estimate D2E/DX2                !
 ! A50   A(10,11,12)           113.9585         estimate D2E/DX2                !
 ! A51   A(10,11,29)           104.8096         estimate D2E/DX2                !
 ! A52   A(12,11,29)           107.4587         estimate D2E/DX2                !
 ! A53   A(11,12,13)           115.1648         estimate D2E/DX2                !
 ! A54   A(11,12,30)           110.4018         estimate D2E/DX2                !
 ! A55   A(11,12,31)           106.9373         estimate D2E/DX2                !
 ! A56   A(13,12,30)           110.9286         estimate D2E/DX2                !
 ! A57   A(13,12,31)           108.3989         estimate D2E/DX2                !
 ! A58   A(30,12,31)           104.3406         estimate D2E/DX2                !
 ! A59   A(7,13,12)            109.2139         estimate D2E/DX2                !
 ! A60   A(7,13,14)            113.9822         estimate D2E/DX2                !
 ! A61   A(7,13,15)            108.1028         estimate D2E/DX2                !
 ! A62   A(12,13,14)           115.7167         estimate D2E/DX2                !
 ! A63   A(12,13,15)           107.8597         estimate D2E/DX2                !
 ! A64   A(14,13,15)           101.2745         estimate D2E/DX2                !
 ! A65   A(13,14,32)           121.5246         estimate D2E/DX2                !
 ! A66   A(13,14,33)           110.0748         estimate D2E/DX2                !
 ! A67   A(13,14,34)           109.7606         estimate D2E/DX2                !
 ! A68   A(32,14,33)           103.6575         estimate D2E/DX2                !
 ! A69   A(32,14,34)           101.5275         estimate D2E/DX2                !
 ! A70   A(33,14,34)           109.6112         estimate D2E/DX2                !
 ! A71   A(13,15,35)           110.002          estimate D2E/DX2                !
 ! D1    D(16,1,2,3)           177.1904         estimate D2E/DX2                !
 ! D2    D(17,1,2,3)            60.8501         estimate D2E/DX2                !
 ! D3    D(18,1,2,3)           -62.1553         estimate D2E/DX2                !
 ! D4    D(1,2,3,4)             99.801          estimate D2E/DX2                !
 ! D5    D(1,2,3,6)            -20.3926         estimate D2E/DX2                !
 ! D6    D(1,2,3,11)          -144.8871         estimate D2E/DX2                !
 ! D7    D(2,3,4,5)           -177.5112         estimate D2E/DX2                !
 ! D8    D(2,3,4,19)             2.1606         estimate D2E/DX2                !
 ! D9    D(6,3,4,5)            -51.9179         estimate D2E/DX2                !
 ! D10   D(6,3,4,19)           127.7538         estimate D2E/DX2                !
 ! D11   D(11,3,4,5)            68.8994         estimate D2E/DX2                !
 ! D12   D(11,3,4,19)         -111.4289         estimate D2E/DX2                !
 ! D13   D(2,3,6,7)            -99.7972         estimate D2E/DX2                !
 ! D14   D(2,3,6,20)           138.5862         estimate D2E/DX2                !
 ! D15   D(2,3,6,21)            24.7843         estimate D2E/DX2                !
 ! D16   D(4,3,6,7)            141.154          estimate D2E/DX2                !
 ! D17   D(4,3,6,20)            19.5374         estimate D2E/DX2                !
 ! D18   D(4,3,6,21)           -94.2645         estimate D2E/DX2                !
 ! D19   D(11,3,6,7)            22.016          estimate D2E/DX2                !
 ! D20   D(11,3,6,20)          -99.6006         estimate D2E/DX2                !
 ! D21   D(11,3,6,21)          146.5975         estimate D2E/DX2                !
 ! D22   D(2,3,11,10)           36.3704         estimate D2E/DX2                !
 ! D23   D(2,3,11,12)          164.0748         estimate D2E/DX2                !
 ! D24   D(2,3,11,29)          -78.4458         estimate D2E/DX2                !
 ! D25   D(4,3,11,10)          149.8483         estimate D2E/DX2                !
 ! D26   D(4,3,11,12)          -82.4473         estimate D2E/DX2                !
 ! D27   D(4,3,11,29)           35.0321         estimate D2E/DX2                !
 ! D28   D(6,3,11,10)          -91.3402         estimate D2E/DX2                !
 ! D29   D(6,3,11,12)           36.3642         estimate D2E/DX2                !
 ! D30   D(6,3,11,29)          153.8435         estimate D2E/DX2                !
 ! D31   D(3,6,7,8)             59.7328         estimate D2E/DX2                !
 ! D32   D(3,6,7,13)           -65.2654         estimate D2E/DX2                !
 ! D33   D(3,6,7,22)           177.2305         estimate D2E/DX2                !
 ! D34   D(20,6,7,8)          -177.7561         estimate D2E/DX2                !
 ! D35   D(20,6,7,13)           57.2457         estimate D2E/DX2                !
 ! D36   D(20,6,7,22)          -60.2584         estimate D2E/DX2                !
 ! D37   D(21,6,7,8)           -66.8403         estimate D2E/DX2                !
 ! D38   D(21,6,7,13)          168.1615         estimate D2E/DX2                !
 ! D39   D(21,6,7,22)           50.6575         estimate D2E/DX2                !
 ! D40   D(6,7,8,9)            -92.0452         estimate D2E/DX2                !
 ! D41   D(6,7,8,23)           146.8705         estimate D2E/DX2                !
 ! D42   D(6,7,8,24)            33.5582         estimate D2E/DX2                !
 ! D43   D(13,7,8,9)            32.7876         estimate D2E/DX2                !
 ! D44   D(13,7,8,23)          -88.2968         estimate D2E/DX2                !
 ! D45   D(13,7,8,24)          158.3909         estimate D2E/DX2                !
 ! D46   D(22,7,8,9)           153.0857         estimate D2E/DX2                !
 ! D47   D(22,7,8,23)           32.0013         estimate D2E/DX2                !
 ! D48   D(22,7,8,24)          -81.311          estimate D2E/DX2                !
 ! D49   D(6,7,13,12)           41.3026         estimate D2E/DX2                !
 ! D50   D(6,7,13,14)          172.448          estimate D2E/DX2                !
 ! D51   D(6,7,13,15)          -75.8023         estimate D2E/DX2                !
 ! D52   D(8,7,13,12)          -83.6105         estimate D2E/DX2                !
 ! D53   D(8,7,13,14)           47.535          estimate D2E/DX2                !
 ! D54   D(8,7,13,15)          159.2846         estimate D2E/DX2                !
 ! D55   D(22,7,13,12)         156.1301         estimate D2E/DX2                !
 ! D56   D(22,7,13,14)         -72.7245         estimate D2E/DX2                !
 ! D57   D(22,7,13,15)          39.0252         estimate D2E/DX2                !
 ! D58   D(7,8,9,10)            57.4222         estimate D2E/DX2                !
 ! D59   D(7,8,9,25)           -54.3499         estimate D2E/DX2                !
 ! D60   D(7,8,9,26)          -166.8691         estimate D2E/DX2                !
 ! D61   D(23,8,9,10)          177.2148         estimate D2E/DX2                !
 ! D62   D(23,8,9,25)           65.4427         estimate D2E/DX2                !
 ! D63   D(23,8,9,26)          -47.0764         estimate D2E/DX2                !
 ! D64   D(24,8,9,10)          -69.2849         estimate D2E/DX2                !
 ! D65   D(24,8,9,25)          178.943          estimate D2E/DX2                !
 ! D66   D(24,8,9,26)           66.4239         estimate D2E/DX2                !
 ! D67   D(8,9,10,11)          -44.7813         estimate D2E/DX2                !
 ! D68   D(8,9,10,27)         -162.8729         estimate D2E/DX2                !
 ! D69   D(8,9,10,28)           84.0376         estimate D2E/DX2                !
 ! D70   D(25,9,10,11)          75.4115         estimate D2E/DX2                !
 ! D71   D(25,9,10,27)         -42.6801         estimate D2E/DX2                !
 ! D72   D(25,9,10,28)        -155.7697         estimate D2E/DX2                !
 ! D73   D(26,9,10,11)        -178.5503         estimate D2E/DX2                !
 ! D74   D(26,9,10,27)          63.3581         estimate D2E/DX2                !
 ! D75   D(26,9,10,28)         -49.7314         estimate D2E/DX2                !
 ! D76   D(9,10,11,3)           80.1936         estimate D2E/DX2                !
 ! D77   D(9,10,11,12)         -45.5892         estimate D2E/DX2                !
 ! D78   D(9,10,11,29)        -162.7875         estimate D2E/DX2                !
 ! D79   D(27,10,11,3)        -162.2454         estimate D2E/DX2                !
 ! D80   D(27,10,11,12)         71.9718         estimate D2E/DX2                !
 ! D81   D(27,10,11,29)        -45.2264         estimate D2E/DX2                !
 ! D82   D(28,10,11,3)         -46.1102         estimate D2E/DX2                !
 ! D83   D(28,10,11,12)       -171.8931         estimate D2E/DX2                !
 ! D84   D(28,10,11,29)         70.9087         estimate D2E/DX2                !
 ! D85   D(3,11,12,13)         -59.8806         estimate D2E/DX2                !
 ! D86   D(3,11,12,30)         173.5487         estimate D2E/DX2                !
 ! D87   D(3,11,12,31)          60.6246         estimate D2E/DX2                !
 ! D88   D(10,11,12,13)         66.4064         estimate D2E/DX2                !
 ! D89   D(10,11,12,30)        -60.1643         estimate D2E/DX2                !
 ! D90   D(10,11,12,31)       -173.0884         estimate D2E/DX2                !
 ! D91   D(29,11,12,13)       -177.9374         estimate D2E/DX2                !
 ! D92   D(29,11,12,30)         55.4918         estimate D2E/DX2                !
 ! D93   D(29,11,12,31)        -57.4323         estimate D2E/DX2                !
 ! D94   D(11,12,13,7)          18.2971         estimate D2E/DX2                !
 ! D95   D(11,12,13,14)       -111.9137         estimate D2E/DX2                !
 ! D96   D(11,12,13,15)        135.5557         estimate D2E/DX2                !
 ! D97   D(30,12,13,7)         144.5988         estimate D2E/DX2                !
 ! D98   D(30,12,13,14)         14.388          estimate D2E/DX2                !
 ! D99   D(30,12,13,15)        -98.1427         estimate D2E/DX2                !
 ! D100  D(31,12,13,7)        -101.4049         estimate D2E/DX2                !
 ! D101  D(31,12,13,14)        128.3843         estimate D2E/DX2                !
 ! D102  D(31,12,13,15)         15.8536         estimate D2E/DX2                !
 ! D103  D(7,13,14,32)         -59.5793         estimate D2E/DX2                !
 ! D104  D(7,13,14,33)         179.1502         estimate D2E/DX2                !
 ! D105  D(7,13,14,34)          58.4203         estimate D2E/DX2                !
 ! D106  D(12,13,14,32)         68.3032         estimate D2E/DX2                !
 ! D107  D(12,13,14,33)        -52.9673         estimate D2E/DX2                !
 ! D108  D(12,13,14,34)       -173.6973         estimate D2E/DX2                !
 ! D109  D(15,13,14,32)       -175.3938         estimate D2E/DX2                !
 ! D110  D(15,13,14,33)         63.3357         estimate D2E/DX2                !
 ! D111  D(15,13,14,34)        -57.3943         estimate D2E/DX2                !
 ! D112  D(7,13,15,35)          61.2294         estimate D2E/DX2                !
 ! D113  D(12,13,15,35)        -56.7463         estimate D2E/DX2                !
 ! D114  D(14,13,15,35)       -178.6908         estimate D2E/DX2                !
 --------------------------------------------------------------------------------
 Trust Radius=3.00D-01 FncErr=1.00D-07 GrdErr=1.00D-06 EigMax=2.50D+02 EigMin=1.00D-04
 Number of steps in this run=    210 maximum allowed number of steps=    210.
 GradGradGradGradGradGradGradGradGradGradGradGradGradGradGradGradGradGrad

                          Input orientation:                          
 ---------------------------------------------------------------------
 Center     Atomic      Atomic             Coordinates (Angstroms)
 Number     Number       Type             X           Y           Z
 ---------------------------------------------------------------------
      1          6           0        0.860250    0.040500   -0.108540
      2          8           0        2.262800   -0.090630    0.003770
      3          6           0        2.785170   -0.978280    1.006540
      4          6           0        3.146050   -2.275740    0.273160
      5          8           0        3.588300   -3.290760    0.838830
      6          6           0        1.837890   -1.335660    2.174160
      7          6           0        2.111710   -0.518210    3.457580
      8          6           0        1.950900    0.992310    3.204980
      9          6           0        3.240060    1.718830    2.805100
     10          6           0        3.973130    1.229990    1.582960
     11          6           0        4.099870   -0.318090    1.526060
     12          6           0        4.542480   -0.971490    2.882390
     13          6           0        3.507600   -0.850520    4.047250
     14          6           0        3.929320    0.068510    5.234280
     15          8           0        3.424390   -2.133560    4.699860
     16          1           0        0.636330    0.783460   -0.876580
     17          1           0        0.414740    0.422740    0.809600
     18          1           0        0.419000   -0.919810   -0.375210
     19          1           0        2.990540   -2.284350   -0.813740
     20          1           0        1.925630   -2.402540    2.416740
     21          1           0        0.782790   -1.239420    1.907890
     22          1           0        1.336890   -0.845690    4.166080
     23          1           0        1.565620    1.429540    4.134630
     24          1           0        1.171520    1.198260    2.469390
     25          1           0        4.033730    1.563120    3.506920
     26          1           0        3.109240    2.800970    2.868090
     27          1           0        4.990190    1.644930    1.637860
     28          1           0        3.532900    1.679350    0.688290
     29          1           0        4.897930   -0.508320    0.791820
     30          1           0        5.521790   -0.589800    3.188180
     31          1           0        4.716560   -2.039050    2.682070
     32          1           0        4.016170    1.148370    5.115900
     33          1           0        4.911390   -0.229760    5.608970
     34          1           0        3.191980   -0.004560    6.038460
     35          1           0        3.184390   -2.818570    4.055850
 ---------------------------------------------------------------------
                    Distance matrix (angstroms):
                    1          2          3          4          5
     1  C    0.000000
     2  O    1.413137   0.000000
     3  C    2.446760   1.437477   0.000000
     4  C    3.276514   2.372216   1.533455   0.000000
     5  O    4.408748   3.563019   2.453713   1.243315   0.000000
     6  C    2.839069   2.537960   1.545444   2.491753   2.944394
     7  C    3.820408   3.483455   2.583178   3.781442   4.089646
     8  C    3.615920   3.393786   3.067959   4.550176   5.159887
     9  C    4.119416   3.475145   3.273552   4.730343   5.392910
    10  C    3.737122   2.676398   2.572929   3.832725   4.597717
    11  C    3.646319   2.396650   1.560188   2.512354   3.093664
    12  C    4.850629   3.776150   2.570408   3.234063   3.235060
    13  C    5.007292   4.298452   3.127962   4.050398   4.031779
    14  C    6.161631   5.491889   4.503180   5.542719   5.542650
    15  O    5.867032   5.251297   3.922230   4.437720   4.034046
    16  H    1.091794   2.045594   3.356692   4.120595   5.315640
    17  H    1.089756   2.080441   2.760540   3.876805   4.884918
    18  H    1.089959   2.056882   2.740696   3.113797   4.140019
    19  H    3.231156   2.451599   2.249759   1.098002   2.025134
    20  H    3.671583   3.358725   2.180823   2.469907   2.458293
    21  H    2.389599   2.671296   2.211369   3.054718   3.636175
    22  H    4.391457   4.330387   3.478187   4.524702   4.702957
    23  H    4.520118   4.456566   4.131567   5.580126   6.102030
    24  H    2.843065   2.988547   3.079143   4.559701   5.352649
    25  H    5.045879   4.259477   3.777501   5.097257   5.556731
    26  H    4.640956   4.157179   4.225295   5.701579   6.438678
    27  H    4.762406   3.622302   3.484524   4.542567   5.192762
    28  H    3.234784   2.283539   2.779097   3.995588   4.972698
    29  H    4.173094   2.781977   2.175022   2.542020   3.075600
    30  H    5.744179   4.583738   3.521301   4.121150   4.068540
    31  H    5.194532   4.121962   2.768195   2.885372   2.497455
    32  H    6.203385   5.544664   4.787989   5.994478   6.179181
    33  H    7.012467   6.201020   5.124788   5.981081   5.820182
    34  H    6.574542   6.106412   5.141385   6.196697   6.163792
    35  H    5.560400   4.970949   3.583899   3.821633   3.276480
                    6          7          8          9         10
     6  C    0.000000
     7  C    1.546082   0.000000
     8  C    2.548491   1.539915   0.000000
     9  C    3.419660   2.589064   1.532863   0.000000
    10  C    3.389886   3.167852   2.603239   1.506646   0.000000
    11  C    2.563598   2.779136   3.025557   2.554263   1.554301
    12  C    2.819400   2.538690   3.267547   2.989999   2.619006
    13  C    2.555731   1.551338   2.555143   2.866369   3.258522
    14  C    3.963598   2.608565   2.980874   3.016546   3.831852
    15  O    3.087521   2.423993   3.765223   4.297092   4.618403
    16  H    3.904027   4.759835   4.293116   4.605333   4.169288
    17  H    2.641846   3.282818   2.902076   3.693820   3.729863
    18  H    2.947112   4.209136   4.338281   5.003516   4.592157
    19  H    3.340084   4.704866   5.288427   5.402195   4.365803
    20  H    1.097623   2.160711   3.485250   4.343298   4.252378
    21  H    1.092428   2.165112   2.833292   3.948975   4.047448
    22  H    2.111591   1.099801   2.163092   3.471467   4.234468
    23  H    3.400574   2.133153   1.097205   2.157565   3.513822
    24  H    2.636657   2.192429   1.091303   2.159294   2.938670
    25  H    3.873098   2.833466   2.180636   1.070845   1.953528
    26  H    4.382873   3.515611   2.174051   1.091837   2.205866
    27  H    4.371330   4.034378   3.481244   2.104962   1.099818
    28  H    3.764459   3.810252   3.050980   2.137334   1.093692
    29  H    3.458208   3.856086   4.093924   3.429581   2.121999
    30  H    3.893027   3.421454   3.905715   3.268458   2.878665
    31  H    3.006571   3.114420   4.136599   4.039412   3.528081
    32  H    4.423702   3.025637   2.818033   2.503511   3.534145
    33  H    4.739972   3.542582   4.004638   3.801583   4.384057
    34  H    4.305601   2.844602   3.250021   3.664287   4.688901
    35  H    2.748243   2.607724   4.094909   4.706960   4.809172
                   11         12         13         14         15
    11  C    0.000000
    12  C    1.569225   0.000000
    13  C    2.643986   1.562853   0.000000
    14  C    3.732217   2.643663   1.559328   0.000000
    15  O    3.718227   2.429759   1.441879   2.321567   0.000000
    16  H    4.356857   5.698045   5.929434   6.978363   6.883238
    17  H    3.826529   4.824787   4.655035   5.661762   5.543175
    18  H    4.186371   5.255256   5.394664   6.690703   6.021785
    19  H    3.251377   4.218234   5.094354   6.557119   5.532698
    20  H    3.140949   3.018715   2.751356   4.249634   2.744316
    21  H    3.463764   3.893161   3.486071   4.761954   3.946218
    22  H    3.857736   3.455357   2.173965   2.949153   2.510216
    23  H    4.035006   4.024270   2.996264   2.940869   4.058348
    24  H    3.429930   4.030106   3.484883   4.065269   4.599070
    25  H    2.732605   2.659532   2.528720   2.286599   3.931901
    26  H    3.537079   4.035571   3.857783   3.706444   5.272977
    27  H    2.158383   2.931715   3.772334   4.067528   5.109262
    28  H    2.238991   3.586123   4.205175   4.839213   5.535589
    29  H    1.100998   2.170565   3.556395   4.583273   4.481685
    30  H    2.204161   1.094643   2.205207   2.675044   3.011222
    31  H    2.162954   1.100053   2.176673   3.402254   2.397939
    32  H    3.878719   3.124000   2.322976   1.089796   3.360708
    33  H    4.163715   2.849648   2.189735   1.092620   2.581105
    34  H    4.613493   3.566452   2.186363   1.093488   2.525570
    35  H    3.672920   2.575485   1.994432   3.206064   0.970354
                   16         17         18         19         20
    16  H    0.000000
    17  H    1.738512   0.000000
    18  H    1.788780   1.790596   0.000000
    19  H    3.867520   4.074103   2.943993   0.000000
    20  H    4.760131   3.584396   3.501915   3.403528   0.000000
    21  H    3.444817   2.025951   2.333889   3.656953   1.708174
    22  H    5.345403   3.704758   4.633717   5.440855   2.414661
    23  H    5.137434   3.659781   5.212757   6.348995   4.214925
    24  H    3.413796   1.982183   3.625501   5.120190   3.679295
    25  H    5.600470   4.655437   5.856804   5.878722   4.621584
    26  H    4.920181   4.141701   5.621440   6.279366   5.355480
    27  H    5.101043   4.807755   5.614813   5.044619   5.136165
    28  H    3.411972   3.364031   4.193213   4.273309   4.715155
    29  H    4.755364   4.578884   4.646730   3.061085   3.881108
    30  H    6.501987   5.724058   6.232585   5.029323   4.100428
    31  H    6.105639   5.298321   5.391538   3.906406   2.826980
    32  H    6.889579   5.660482   6.882535   6.927923   4.925930
    33  H    7.833589   6.609052   7.514529   7.011577   4.881195
    34  H    7.414182   5.936044   7.047146   7.224311   4.524468
    35  H    6.617862   5.358656   5.557604   4.902640   2.108136
                   21         22         23         24         25
    21  H    0.000000
    22  H    2.358277   0.000000
    23  H    3.562940   2.286915   0.000000
    24  H    2.531536   2.661548   1.726797   0.000000
    25  H    4.580364   3.675568   2.550182   3.066242   0.000000
    26  H    4.760158   4.257245   2.422335   2.546056   1.671843
    27  H    5.108288   5.093298   4.243575   3.933598   2.101165
    28  H    4.191628   4.826314   3.976161   2.996645   2.865138
    29  H    4.326026   4.917363   5.102349   4.428633   3.522708
    30  H    4.951694   4.305248   4.541452   4.758011   2.636472
    31  H    4.088191   3.879248   4.906065   4.805488   3.757960
    32  H    5.142725   3.472315   2.654645   3.885684   1.661669
    33  H    5.635845   3.903633   4.015113   5.087517   2.898848
    34  H    4.938693   2.766707   2.885526   4.274026   3.094327
    35  H    3.588193   2.705118   4.546764   4.764811   4.496878
                   26         27         28         29         30
    26  H    0.000000
    27  H    2.527423   0.000000
    28  H    2.487780   1.739702   0.000000
    29  H    4.296709   2.315336   2.580683   0.000000
    30  H    4.173748   2.771301   3.918440   2.477576   0.000000
    31  H    5.103320   3.838874   4.382089   2.439072   1.733456
    32  H    2.933643   3.645826   4.485445   4.713787   3.000705
    33  H    4.466038   4.392082   5.455092   4.825216   2.522388
    34  H    4.234276   5.031864   5.619261   5.539970   3.727548
    35  H    5.744184   5.387989   5.629672   4.350559   3.344205
                   31         32         33         34         35
    31  H    0.000000
    32  H    4.071084   0.000000
    33  H    3.446481   1.715744   0.000000
    34  H    4.210564   1.691051   1.786490   0.000000
    35  H    2.200561   4.189532   3.478024   3.442303   0.000000
 Stoichiometry    C12H20O3
 Framework group  C1[X(C12H20O3)]
 Deg. of freedom    99
 Full point group                 C1      NOp   1
 Largest Abelian subgroup         C1      NOp   1
 Largest concise Abelian subgroup C1      NOp   1
                         Standard orientation:                         
 ---------------------------------------------------------------------
 Center     Atomic      Atomic             Coordinates (Angstroms)
 Number     Number       Type             X           Y           Z
 ---------------------------------------------------------------------
      1          6           0       -2.786464   -1.309088   -1.037228
      2          8           0       -2.283166   -0.792073    0.177820
      3          6           0       -1.313055    0.266938    0.116825
      4          6           0       -2.089245    1.563945    0.375256
      5          8           0       -1.574086    2.695290    0.352794
      6          6           0       -0.545784    0.425256   -1.215326
      7          6           0        0.866992   -0.202146   -1.187078
      8          6           0        0.803951   -1.711922   -0.890533
      9          6           0        0.917014   -2.081773    0.592739
     10          6           0       -0.090277   -1.490139    1.544221
     11          6           0       -0.334873    0.026553    1.308280
     12          6           0        0.979661    0.861547    1.115271
     13          6           0        1.788929    0.536650   -0.181662
     14          6           0        3.169717   -0.153909    0.037562
     15          8           0        2.190410    1.786905   -0.777221
     16          1           0       -3.467832   -2.132520   -0.814261
     17          1           0       -1.996257   -1.739142   -1.652202
     18          1           0       -3.310920   -0.525380   -1.583816
     19          1           0       -3.162056    1.460097    0.584782
     20          1           0       -0.448401    1.488641   -1.469304
     21          1           0       -1.096243    0.026999   -2.070770
     22          1           0        1.256802   -0.054679   -2.204852
     23          1           0        1.631031   -2.177522   -1.441001
     24          1           0       -0.091127   -2.170003   -1.314725
     25          1           0        1.791898   -1.670154    1.053018
     26          1           0        1.097347   -3.152048    0.711483
     27          1           0        0.324958   -1.606379    2.555986
     28          1           0       -0.998720   -2.099136    1.540294
     29          1           0       -0.818501    0.380629    2.231822
     30          1           0        1.615450    0.782931    2.002872
     31          1           0        0.684782    1.920888    1.084296
     32          1           0        3.243288   -1.174006    0.413918
     33          1           0        3.770926    0.425171    0.742567
     34          1           0        3.698487   -0.234207   -0.916204
     35          1           0        1.410430    2.337376   -0.951003
 ---------------------------------------------------------------------
 Rotational constants (GHZ):           0.8501807           0.5974509           0.4716248
 Standard basis: 6-31G(2df,p) (6D, 7F)
 There are   565 symmetry adapted cartesian basis functions of A   symmetry.
 There are   520 symmetry adapted basis functions of A   symmetry.
   520 basis functions,   800 primitive gaussians,   565 cartesian basis functions
    58 alpha electrons       58 beta electrons
       nuclear repulsion energy      1168.1382538446 Hartrees.
 NAtoms=   35 NActive=   35 NUniq=   35 SFac= 1.00D+00 NAtFMM=   60 NAOKFM=F Big=F
 Integral buffers will be    131072 words long.
 Raffenetti 2 integral format.
 Two-electron integral symmetry is turned on.
 One-electron integrals computed using PRISM.
 PrsmSu:  requested number of processors reduced to:  12 ShMem   1 Linda.
 NBasis=   520 RedAO= T EigKep=  3.15D-04  NBF=   520
 NBsUse=   520 1.00D-06 EigRej= -1.00D+00 NBFU=   520
 ExpMin= 1.61D-01 ExpMax= 5.48D+03 ExpMxC= 8.25D+02 IAcc=3 IRadAn=         5 AccDes= 0.00D+00
 Harris functional with IExCor=  402 and IRadAn=       5 diagonalized for initial guess.
 HarFok:  IExCor=  402 AccDes= 0.00D+00 IRadAn=         5 IDoV= 1 UseB2=F ITyADJ=14
 ICtDFT=  3500011 ScaDFX=  1.000000  1.000000  1.000000  1.000000
 FoFCou: FMM=F IPFlag=           0 FMFlag=      100000 FMFlg1=           0
         NFxFlg=           0 DoJE=T BraDBF=F KetDBF=T FulRan=T
         wScrn=  0.000000 ICntrl=       500 IOpCl=  0 I1Cent=   200000004 NGrid=           0
         NMat0=    1 NMatS0=      1 NMatT0=    0 NMatD0=    1 NMtDS0=    0 NMtDT0=    0
 Petite list used in FoFCou.
 Requested convergence on RMS density matrix=1.00D-08 within 128 cycles.
 Requested convergence on MAX density matrix=1.00D-06.
 Requested convergence on             energy=1.00D-06.
 No special actions if energy rises.
 Integral accuracy reduced to 1.0D-05 until final iterations.
 Initial convergence to 1.0D-05 achieved.  Increase integral accuracy.
 SCF Done:  E(RB3LYP) =  -694.974191018     A.U. after   14 cycles
            NFock= 14  Conv=0.48D-08     -V/T= 2.0077

 **********************************************************************

            Population analysis using the SCF density.

 **********************************************************************

 Orbital symmetries:
       Occupied  (A) (A) (A) (A) (A) (A) (A) (A) (A) (A) (A) (A)
                 (A) (A) (A) (A) (A) (A) (A) (A) (A) (A) (A) (A)
                 (A) (A) (A) (A) (A) (A) (A) (A) (A) (A) (A) (A)
                 (A) (A) (A) (A) (A) (A) (A) (A) (A) (A) (A) (A)
                 (A) (A) (A) (A) (A) (A) (A) (A) (A) (A)
       Virtual   (A) (A) (A) (A) (A) (A) (A) (A) (A) (A) (A) (A)
                 (A) (A) (A) (A) (A) (A) (A) (A) (A) (A) (A) (A)
                 (A) (A) (A) (A) (A) (A) (A) (A) (A) (A) (A) (A)
                 (A) (A) (A) (A) (A) (A) (A) (A) (A) (A) (A) (A)
                 (A) (A) (A) (A) (A) (A) (A) (A) (A) (A) (A) (A)
                 (A) (A) (A) (A) (A) (A) (A) (A) (A) (A) (A) (A)
                 (A) (A) (A) (A) (A) (A) (A) (A) (A) (A) (A) (A)
                 (A) (A) (A) (A) (A) (A) (A) (A) (A) (A) (A) (A)
                 (A) (A) (A) (A) (A) (A) (A) (A) (A) (A) (A) (A)
                 (A) (A) (A) (A) (A) (A) (A) (A) (A) (A) (A) (A)
                 (A) (A) (A) (A) (A) (A) (A) (A) (A) (A) (A) (A)
                 (A) (A) (A) (A) (A) (A) (A) (A) (A) (A) (A) (A)
                 (A) (A) (A) (A) (A) (A) (A) (A) (A) (A) (A) (A)
                 (A) (A) (A) (A) (A) (A) (A) (A) (A) (A) (A) (A)
                 (A) (A) (A) (A) (A) (A) (A) (A) (A) (A) (A) (A)
                 (A) (A) (A) (A) (A) (A) (A) (A) (A) (A) (A) (A)
                 (A) (A) (A) (A) (A) (A) (A) (A) (A) (A) (A) (A)
                 (A) (A) (A) (A) (A) (A) (A) (A) (A) (A) (A) (A)
                 (A) (A) (A) (A) (A) (A) (A) (A) (A) (A) (A) (A)
                 (A) (A) (A) (A) (A) (A) (A) (A) (A) (A) (A) (A)
                 (A) (A) (A) (A) (A) (A) (A) (A) (A) (A) (A) (A)
                 (A) (A) (A) (A) (A) (A) (A) (A) (A) (A) (A) (A)
                 (A) (A) (A) (A) (A) (A) (A) (A) (A) (A) (A) (A)
                 (A) (A) (A) (A) (A) (A) (A) (A) (A) (A) (A) (A)
                 (A) (A) (A) (A) (A) (A) (A) (A) (A) (A) (A) (A)
                 (A) (A) (A) (A) (A) (A) (A) (A) (A) (A) (A) (A)
                 (A) (A) (A) (A) (A) (A) (A) (A) (A) (A) (A) (A)
                 (A) (A) (A) (A) (A) (A) (A) (A) (A) (A) (A) (A)
                 (A) (A) (A) (A) (A) (A) (A) (A) (A) (A) (A) (A)
                 (A) (A) (A) (A) (A) (A) (A) (A) (A) (A) (A) (A)
                 (A) (A) (A) (A) (A) (A) (A) (A) (A) (A) (A) (A)
                 (A) (A) (A) (A) (A) (A) (A) (A) (A) (A) (A) (A)
                 (A) (A) (A) (A) (A) (A) (A) (A) (A) (A) (A) (A)
                 (A) (A) (A) (A) (A) (A) (A) (A) (A) (A) (A) (A)
                 (A) (A) (A) (A) (A) (A) (A) (A) (A) (A) (A) (A)
                 (A) (A) (A) (A) (A) (A) (A) (A) (A) (A) (A) (A)
                 (A) (A) (A) (A) (A) (A) (A) (A) (A) (A) (A) (A)
                 (A) (A) (A) (A) (A) (A) (A) (A) (A) (A) (A) (A)
                 (A) (A) (A) (A) (A) (A)
 The electronic state is 1-A.
 Alpha  occ. eigenvalues --  -19.15047 -19.14723 -19.12261 -10.27430 -10.25322
 Alpha  occ. eigenvalues --  -10.23982 -10.23340 -10.19934 -10.19093 -10.18624
 Alpha  occ. eigenvalues --  -10.18058 -10.17975 -10.17274 -10.16810 -10.16634
 Alpha  occ. eigenvalues --   -1.04488  -1.02950  -1.00445  -0.84734  -0.78226
 Alpha  occ. eigenvalues --   -0.77484  -0.74930  -0.71389  -0.68210  -0.66090
 Alpha  occ. eigenvalues --   -0.63901  -0.61799  -0.57451  -0.55631  -0.52368
 Alpha  occ. eigenvalues --   -0.51085  -0.50526  -0.48909  -0.47116  -0.45522
 Alpha  occ. eigenvalues --   -0.45018  -0.43452  -0.42923  -0.42636  -0.41661
 Alpha  occ. eigenvalues --   -0.41065  -0.40296  -0.39496  -0.37911  -0.37623
 Alpha  occ. eigenvalues --   -0.36840  -0.36299  -0.35688  -0.33651  -0.32841
 Alpha  occ. eigenvalues --   -0.31724  -0.31031  -0.30594  -0.30128  -0.29477
 Alpha  occ. eigenvalues --   -0.28179  -0.25262  -0.24308
 Alpha virt. eigenvalues --   -0.04019   0.06625   0.08408   0.09133   0.09691
 Alpha virt. eigenvalues --    0.11402   0.11710   0.12734   0.12987   0.13554
 Alpha virt. eigenvalues --    0.14169   0.15115   0.15547   0.15855   0.16870
 Alpha virt. eigenvalues --    0.17324   0.18122   0.18726   0.19053   0.19797
 Alpha virt. eigenvalues --    0.20474   0.20924   0.21173   0.21558   0.24060
 Alpha virt. eigenvalues --    0.24512   0.24870   0.25613   0.26506   0.26897
 Alpha virt. eigenvalues --    0.27842   0.29172   0.30197   0.31851   0.32286
 Alpha virt. eigenvalues --    0.33436   0.38358   0.42603   0.44118   0.46394
 Alpha virt. eigenvalues --    0.47915   0.48208   0.48810   0.49275   0.50268
 Alpha virt. eigenvalues --    0.51204   0.51928   0.52553   0.52889   0.53654
 Alpha virt. eigenvalues --    0.54796   0.55698   0.56172   0.56700   0.57144
 Alpha virt. eigenvalues --    0.58506   0.59676   0.61315   0.61718   0.62731
 Alpha virt. eigenvalues --    0.63068   0.63608   0.64540   0.66212   0.67742
 Alpha virt. eigenvalues --    0.67879   0.68435   0.69445   0.70324   0.71116
 Alpha virt. eigenvalues --    0.72402   0.72654   0.73144   0.73567   0.74002
 Alpha virt. eigenvalues --    0.75409   0.75856   0.76443   0.77137   0.77945
 Alpha virt. eigenvalues --    0.78826   0.79317   0.79778   0.80810   0.81741
 Alpha virt. eigenvalues --    0.82724   0.83902   0.84058   0.85501   0.86314
 Alpha virt. eigenvalues --    0.87694   0.88093   0.88795   0.90368   0.91300
 Alpha virt. eigenvalues --    0.91991   0.93116   0.94206   0.95345   0.97412
 Alpha virt. eigenvalues --    0.98289   0.98538   0.99703   1.00786   1.01558
 Alpha virt. eigenvalues --    1.02095   1.04666   1.06352   1.06881   1.07910
 Alpha virt. eigenvalues --    1.08951   1.10782   1.12707   1.12831   1.14683
 Alpha virt. eigenvalues --    1.15675   1.17980   1.19855   1.21971   1.22716
 Alpha virt. eigenvalues --    1.26755   1.27590   1.28527   1.29390   1.30223
 Alpha virt. eigenvalues --    1.32029   1.33301   1.34724   1.35963   1.36553
 Alpha virt. eigenvalues --    1.37825   1.39707   1.39990   1.41189   1.42026
 Alpha virt. eigenvalues --    1.43158   1.44866   1.45810   1.46703   1.47380
 Alpha virt. eigenvalues --    1.49155   1.49718   1.50242   1.51642   1.54088
 Alpha virt. eigenvalues --    1.54543   1.55390   1.56916   1.57205   1.58904
 Alpha virt. eigenvalues --    1.59764   1.60644   1.61815   1.62110   1.63110
 Alpha virt. eigenvalues --    1.64348   1.66828   1.68051   1.68478   1.70210
 Alpha virt. eigenvalues --    1.72098   1.73087   1.73585   1.75046   1.76704
 Alpha virt. eigenvalues --    1.77514   1.77844   1.79173   1.79754   1.82145
 Alpha virt. eigenvalues --    1.82307   1.85171   1.86781   1.88072   1.88480
 Alpha virt. eigenvalues --    1.89827   1.92275   1.92508   1.93234   1.95318
 Alpha virt. eigenvalues --    1.95622   1.97214   1.98473   2.00907   2.02228
 Alpha virt. eigenvalues --    2.02831   2.05588   2.07839   2.09099   2.10218
 Alpha virt. eigenvalues --    2.12506   2.13663   2.18306   2.22004   2.24699
 Alpha virt. eigenvalues --    2.26938   2.28662   2.29082   2.30107   2.31921
 Alpha virt. eigenvalues --    2.33452   2.36687   2.37913   2.38821   2.40250
 Alpha virt. eigenvalues --    2.42192   2.43881   2.45063   2.45876   2.46535
 Alpha virt. eigenvalues --    2.48090   2.50117   2.51249   2.52667   2.53955
 Alpha virt. eigenvalues --    2.55351   2.58458   2.59600   2.61892   2.62827
 Alpha virt. eigenvalues --    2.64384   2.65942   2.67334   2.70567   2.72491
 Alpha virt. eigenvalues --    2.75412   2.76186   2.78412   2.79164   2.79462
 Alpha virt. eigenvalues --    2.80691   2.82230   2.83547   2.84368   2.85115
 Alpha virt. eigenvalues --    2.86399   2.86931   2.88163   2.89742   2.91842
 Alpha virt. eigenvalues --    2.92234   2.92324   2.93082   2.94835   2.95882
 Alpha virt. eigenvalues --    2.97734   2.98724   2.99340   2.99911   3.01025
 Alpha virt. eigenvalues --    3.01352   3.01857   3.03606   3.05825   3.06523
 Alpha virt. eigenvalues --    3.07664   3.08842   3.10590   3.13590   3.14204
 Alpha virt. eigenvalues --    3.15876   3.16921   3.17998   3.18612   3.19822
 Alpha virt. eigenvalues --    3.21659   3.24921   3.25814   3.27105   3.30561
 Alpha virt. eigenvalues --    3.31879   3.33857   3.34826   3.35481   3.36547
 Alpha virt. eigenvalues --    3.36730   3.39140   3.39659   3.40458   3.43586
 Alpha virt. eigenvalues --    3.44493   3.45734   3.46837   3.48432   3.49006
 Alpha virt. eigenvalues --    3.50054   3.51093   3.52234   3.53599   3.55612
 Alpha virt. eigenvalues --    3.56031   3.58465   3.60518   3.61142   3.63140
 Alpha virt. eigenvalues --    3.64803   3.65899   3.67225   3.68697   3.71750
 Alpha virt. eigenvalues --    3.73818   3.75603   3.76962   3.78304   3.80939
 Alpha virt. eigenvalues --    3.81467   3.83324   3.85677   3.88494   3.89741
 Alpha virt. eigenvalues --    3.92459   3.93235   3.94101   3.95989   3.97639
 Alpha virt. eigenvalues --    4.00804   4.01914   4.05091   4.08743   4.09065
 Alpha virt. eigenvalues --    4.11855   4.15462   4.16036   4.17133   4.18810
 Alpha virt. eigenvalues --    4.20431   4.22386   4.22657   4.25829   4.27454
 Alpha virt. eigenvalues --    4.29418   4.32782   4.33373   4.34710   4.35630
 Alpha virt. eigenvalues --    4.36776   4.38681   4.40257   4.42047   4.43037
 Alpha virt. eigenvalues --    4.43620   4.45267   4.49039   4.49704   4.50683
 Alpha virt. eigenvalues --    4.51652   4.52140   4.53696   4.54562   4.55364
 Alpha virt. eigenvalues --    4.56181   4.56690   4.58048   4.59509   4.60006
 Alpha virt. eigenvalues --    4.60598   4.62040   4.64101   4.64922   4.66413
 Alpha virt. eigenvalues --    4.67015   4.68454   4.69040   4.69864   4.71435
 Alpha virt. eigenvalues --    4.73036   4.73426   4.74026   4.74978   4.75864
 Alpha virt. eigenvalues --    4.76476   4.77882   4.79179   4.80953   4.82223
 Alpha virt. eigenvalues --    4.83376   4.83426   4.85676   4.86192   4.87353
 Alpha virt. eigenvalues --    4.87905   4.89623   4.90515   4.91687   4.92529
 Alpha virt. eigenvalues --    4.94314   4.94707   4.96045   4.98574   5.00664
 Alpha virt. eigenvalues --    5.01808   5.03115   5.05169   5.06460   5.07123
 Alpha virt. eigenvalues --    5.08180   5.09327   5.09907   5.10522   5.14728
 Alpha virt. eigenvalues --    5.17470   5.18519   5.21685   5.23983   5.26274
 Alpha virt. eigenvalues --    5.27421   5.30583   5.31407   5.34536   5.38055
 Alpha virt. eigenvalues --    5.38162   5.39428   5.44249   5.46076   5.46879
 Alpha virt. eigenvalues --    5.48111   5.49447   5.51172   5.53591   5.55036
 Alpha virt. eigenvalues --    5.56388   5.60723   5.61650   5.66535   5.68619
 Alpha virt. eigenvalues --    5.71358   5.76078   5.82958   5.90774   5.92509
 Alpha virt. eigenvalues --    5.96905   5.98829   6.00167   6.00857   6.09979
 Alpha virt. eigenvalues --    6.10914   6.19246   6.21770   6.23915   6.44035
 Alpha virt. eigenvalues --    6.56292   6.82309   6.85199   7.17519   7.31614
 Alpha virt. eigenvalues --    7.76564   8.68225  11.02988  11.34648  11.50532
 Alpha virt. eigenvalues --   11.71202  11.99154  12.12397  12.48202  12.76408
 Alpha virt. eigenvalues --   12.81784  12.82798  13.09548  13.35337  13.54994
 Alpha virt. eigenvalues --   13.75799  13.96861
          Condensed to atoms (all electrons):
               1          2          3          4          5          6
     1  C    4.850496   0.377663  -0.091338   0.001987   0.000009  -0.008600
     2  O    0.377663   7.787665   0.303898  -0.013713   0.001436  -0.035456
     3  C   -0.091338   0.303898   4.863103   0.260307  -0.067225   0.326695
     4  C    0.001987  -0.013713   0.260307   4.647657   0.689899  -0.029973
     5  O    0.000009   0.001436  -0.067225   0.689899   7.702064  -0.007328
     6  C   -0.008600  -0.035456   0.326695  -0.029973  -0.007328   5.156494
     7  C   -0.000544  -0.000621  -0.012392   0.001047  -0.000240   0.353064
     8  C   -0.002439   0.004790  -0.005326  -0.000054  -0.000019  -0.019819
     9  C   -0.000035  -0.003117  -0.001828   0.000033   0.000000  -0.001386
    10  C    0.001683  -0.005222  -0.022628   0.001324   0.000045  -0.002394
    11  C    0.005413  -0.043012   0.376692  -0.018687  -0.003413  -0.035514
    12  C   -0.000216   0.001244  -0.024369   0.001020  -0.004582  -0.026840
    13  C   -0.000006   0.000334  -0.011710   0.000461  -0.000176  -0.005996
    14  C   -0.000000   0.000003   0.000805  -0.000004  -0.000002   0.004052
    15  O    0.000000  -0.000001  -0.000139  -0.000008  -0.000090  -0.000494
    16  H    0.383627  -0.019483   0.002873   0.000120   0.000001   0.000434
    17  H    0.363249  -0.035526  -0.006473  -0.000126   0.000013   0.000731
    18  H    0.371567  -0.033711   0.001314   0.001565  -0.000125  -0.000546
    19  H    0.000470   0.011491  -0.095833   0.327413  -0.042414   0.006653
    20  H   -0.000106   0.002337  -0.032543  -0.002874   0.011149   0.339597
    21  H    0.003077  -0.009169  -0.032181   0.001933   0.000465   0.351913
    22  H   -0.000023  -0.000082   0.004368  -0.000080   0.000001  -0.040416
    23  H    0.000089   0.000061  -0.000287  -0.000004   0.000000   0.005131
    24  H   -0.003392   0.000031   0.001068   0.000029  -0.000001  -0.011621
    25  H   -0.000009  -0.000022  -0.000124  -0.000008  -0.000000  -0.000158
    26  H    0.000015  -0.000034   0.000001   0.000002   0.000000  -0.000137
    27  H   -0.000020   0.000825   0.003743  -0.000083  -0.000001  -0.000080
    28  H   -0.000639   0.015606  -0.008258   0.000375  -0.000003   0.000373
    29  H   -0.000166  -0.000866  -0.036624  -0.004770  -0.000036   0.007906
    30  H    0.000001  -0.000045   0.001817   0.000075   0.000154   0.000543
    31  H    0.000003   0.000050  -0.007916   0.001201   0.016060   0.002282
    32  H    0.000000  -0.000000   0.000004   0.000000   0.000000  -0.000043
    33  H    0.000000  -0.000000  -0.000018  -0.000000   0.000000  -0.000112
    34  H   -0.000000  -0.000000  -0.000015  -0.000000   0.000000   0.000030
    35  H   -0.000000   0.000001  -0.000106   0.000028   0.001293   0.003112
               7          8          9         10         11         12
     1  C   -0.000544  -0.002439  -0.000035   0.001683   0.005413  -0.000216
     2  O   -0.000621   0.004790  -0.003117  -0.005222  -0.043012   0.001244
     3  C   -0.012392  -0.005326  -0.001828  -0.022628   0.376692  -0.024369
     4  C    0.001047  -0.000054   0.000033   0.001324  -0.018687   0.001020
     5  O   -0.000240  -0.000019   0.000000   0.000045  -0.003413  -0.004582
     6  C    0.353064  -0.019819  -0.001386  -0.002394  -0.035514  -0.026840
     7  C    4.892141   0.322710  -0.022938  -0.006244   0.006592  -0.053654
     8  C    0.322710   4.981480   0.413847  -0.025868  -0.012510  -0.000867
     9  C   -0.022938   0.413847   4.818215   0.402203  -0.020337  -0.003987
    10  C   -0.006244  -0.025868   0.402203   4.936815   0.371823  -0.024589
    11  C    0.006592  -0.012510  -0.020337   0.371823   4.868710   0.307847
    12  C   -0.053654  -0.000867  -0.003987  -0.024589   0.307847   5.211781
    13  C    0.417382  -0.027076  -0.004489  -0.004410  -0.013113   0.361681
    14  C   -0.046370  -0.006035  -0.017480   0.002121   0.001811  -0.050313
    15  O   -0.043451   0.003967  -0.000106   0.000042   0.002132  -0.040447
    16  H    0.000004   0.000035  -0.000024   0.000066  -0.000142   0.000001
    17  H   -0.000321  -0.003473   0.000701  -0.000962   0.001284   0.000022
    18  H    0.000135   0.000247  -0.000026   0.000092  -0.000682   0.000016
    19  H   -0.000198  -0.000009   0.000007  -0.000396   0.003113   0.000141
    20  H   -0.037249   0.006255  -0.000143  -0.000294   0.002803   0.001141
    21  H   -0.017661  -0.006261   0.000048  -0.000206   0.003254   0.000653
    22  H    0.342659  -0.035138   0.004743  -0.000005  -0.000749   0.008355
    23  H   -0.025287   0.356750  -0.028935   0.005035   0.000039  -0.000260
    24  H   -0.024730   0.355957  -0.031837  -0.003760  -0.000696   0.000101
    25  H   -0.009962  -0.037846   0.380656  -0.042947  -0.007139   0.001422
    26  H    0.004701  -0.031547   0.366655  -0.031803   0.004538   0.000027
    27  H    0.000297   0.005382  -0.034730   0.354960  -0.027324  -0.000401
    28  H   -0.000692  -0.001645  -0.037211   0.363790  -0.024299   0.003711
    29  H   -0.000898   0.000349   0.004462  -0.037819   0.346718  -0.032489
    30  H    0.005057   0.000048  -0.001929  -0.004279  -0.021955   0.340531
    31  H   -0.000454  -0.000260   0.000183   0.003816  -0.017215   0.327256
    32  H   -0.001499  -0.000321  -0.012044  -0.000519   0.000274  -0.000257
    33  H    0.003863  -0.000005   0.000457  -0.000114   0.000230  -0.005002
    34  H   -0.004393   0.000313   0.001513  -0.000036  -0.000147   0.004436
    35  H   -0.003566  -0.000092   0.000009   0.000010  -0.000196  -0.001898
              13         14         15         16         17         18
     1  C   -0.000006  -0.000000   0.000000   0.383627   0.363249   0.371567
     2  O    0.000334   0.000003  -0.000001  -0.019483  -0.035526  -0.033711
     3  C   -0.011710   0.000805  -0.000139   0.002873  -0.006473   0.001314
     4  C    0.000461  -0.000004  -0.000008   0.000120  -0.000126   0.001565
     5  O   -0.000176  -0.000002  -0.000090   0.000001   0.000013  -0.000125
     6  C   -0.005996   0.004052  -0.000494   0.000434   0.000731  -0.000546
     7  C    0.417382  -0.046370  -0.043451   0.000004  -0.000321   0.000135
     8  C   -0.027076  -0.006035   0.003967   0.000035  -0.003473   0.000247
     9  C   -0.004489  -0.017480  -0.000106  -0.000024   0.000701  -0.000026
    10  C   -0.004410   0.002121   0.000042   0.000066  -0.000962   0.000092
    11  C   -0.013113   0.001811   0.002132  -0.000142   0.001284  -0.000682
    12  C    0.361681  -0.050313  -0.040447   0.000001   0.000022   0.000016
    13  C    4.365848   0.355406   0.334334   0.000001  -0.000057  -0.000003
    14  C    0.355406   5.159572  -0.027403  -0.000000  -0.000000  -0.000000
    15  O    0.334334  -0.027403   7.949536  -0.000000  -0.000000  -0.000000
    16  H    0.000001  -0.000000  -0.000000   0.575709  -0.038019  -0.034440
    17  H   -0.000057  -0.000000  -0.000000  -0.038019   0.637214  -0.052278
    18  H   -0.000003  -0.000000  -0.000000  -0.034440  -0.052278   0.634684
    19  H   -0.000040  -0.000000  -0.000000  -0.000042   0.000275  -0.000561
    20  H   -0.004426   0.000133   0.003110  -0.000013  -0.000044  -0.000061
    21  H    0.001004  -0.000187   0.000157  -0.000268   0.003844   0.002760
    22  H   -0.031694  -0.004090   0.003117   0.000000   0.000183  -0.000004
    23  H   -0.002666   0.003580   0.000003  -0.000002  -0.000246  -0.000001
    24  H    0.002978  -0.000324  -0.000058   0.000279   0.008124   0.000098
    25  H    0.002918  -0.014990   0.000112   0.000001   0.000013   0.000000
    26  H   -0.000538   0.000463  -0.000003  -0.000002   0.000015  -0.000000
    27  H   -0.000543   0.000094   0.000000  -0.000002  -0.000016   0.000001
    28  H    0.000314  -0.000037   0.000001   0.000040   0.000058   0.000120
    29  H    0.003087  -0.000105  -0.000057   0.000004  -0.000000   0.000003
    30  H   -0.022462  -0.014084   0.002558  -0.000000   0.000001  -0.000000
    31  H   -0.013457   0.003944  -0.002867   0.000000   0.000000   0.000000
    32  H   -0.014968   0.375730   0.001713  -0.000000   0.000000  -0.000000
    33  H   -0.008541   0.355387   0.000719   0.000000   0.000000  -0.000000
    34  H   -0.016024   0.354958   0.000862  -0.000000   0.000000  -0.000000
    35  H   -0.068103   0.007991   0.314045  -0.000000   0.000000  -0.000000
              19         20         21         22         23         24
     1  C    0.000470  -0.000106   0.003077  -0.000023   0.000089  -0.003392
     2  O    0.011491   0.002337  -0.009169  -0.000082   0.000061   0.000031
     3  C   -0.095833  -0.032543  -0.032181   0.004368  -0.000287   0.001068
     4  C    0.327413  -0.002874   0.001933  -0.000080  -0.000004   0.000029
     5  O   -0.042414   0.011149   0.000465   0.000001   0.000000  -0.000001
     6  C    0.006653   0.339597   0.351913  -0.040416   0.005131  -0.011621
     7  C   -0.000198  -0.037249  -0.017661   0.342659  -0.025287  -0.024730
     8  C   -0.000009   0.006255  -0.006261  -0.035138   0.356750   0.355957
     9  C    0.000007  -0.000143   0.000048   0.004743  -0.028935  -0.031837
    10  C   -0.000396  -0.000294  -0.000206  -0.000005   0.005035  -0.003760
    11  C    0.003113   0.002803   0.003254  -0.000749   0.000039  -0.000696
    12  C    0.000141   0.001141   0.000653   0.008355  -0.000260   0.000101
    13  C   -0.000040  -0.004426   0.001004  -0.031694  -0.002666   0.002978
    14  C   -0.000000   0.000133  -0.000187  -0.004090   0.003580  -0.000324
    15  O   -0.000000   0.003110   0.000157   0.003117   0.000003  -0.000058
    16  H   -0.000042  -0.000013  -0.000268   0.000000  -0.000002   0.000279
    17  H    0.000275  -0.000044   0.003844   0.000183  -0.000246   0.008124
    18  H   -0.000561  -0.000061   0.002760  -0.000004  -0.000001   0.000098
    19  H    0.681271   0.001568   0.000069   0.000005  -0.000000  -0.000000
    20  H    0.001568   0.629729  -0.031931  -0.003015  -0.000217   0.000048
    21  H    0.000069  -0.031931   0.619714  -0.003875   0.000008   0.001079
    22  H    0.000005  -0.003015  -0.003875   0.689407  -0.011415   0.001482
    23  H   -0.000000  -0.000217   0.000008  -0.011415   0.650537  -0.039386
    24  H   -0.000000   0.000048   0.001079   0.001482  -0.039386   0.642198
    25  H    0.000000   0.000006  -0.000002   0.000025  -0.004817   0.006294
    26  H   -0.000000   0.000004  -0.000001  -0.000171  -0.003822  -0.001930
    27  H    0.000007   0.000006   0.000006   0.000008  -0.000198  -0.000119
    28  H   -0.000003  -0.000019  -0.000003   0.000003  -0.000119   0.001490
    29  H    0.002378  -0.000198  -0.000124   0.000005   0.000006  -0.000019
    30  H    0.000017   0.000077   0.000011  -0.000142   0.000003   0.000014
    31  H    0.000367  -0.000609   0.000043  -0.000290   0.000002   0.000012
    32  H    0.000000  -0.000003  -0.000001  -0.000016  -0.000036   0.000019
    33  H    0.000000  -0.000008   0.000002  -0.000130  -0.000025   0.000000
    34  H    0.000000   0.000008  -0.000000   0.003260   0.000317   0.000011
    35  H    0.000012   0.006851  -0.000170   0.000275   0.000000   0.000001
              25         26         27         28         29         30
     1  C   -0.000009   0.000015  -0.000020  -0.000639  -0.000166   0.000001
     2  O   -0.000022  -0.000034   0.000825   0.015606  -0.000866  -0.000045
     3  C   -0.000124   0.000001   0.003743  -0.008258  -0.036624   0.001817
     4  C   -0.000008   0.000002  -0.000083   0.000375  -0.004770   0.000075
     5  O   -0.000000   0.000000  -0.000001  -0.000003  -0.000036   0.000154
     6  C   -0.000158  -0.000137  -0.000080   0.000373   0.007906   0.000543
     7  C   -0.009962   0.004701   0.000297  -0.000692  -0.000898   0.005057
     8  C   -0.037846  -0.031547   0.005382  -0.001645   0.000349   0.000048
     9  C    0.380656   0.366655  -0.034730  -0.037211   0.004462  -0.001929
    10  C   -0.042947  -0.031803   0.354960   0.363790  -0.037819  -0.004279
    11  C   -0.007139   0.004538  -0.027324  -0.024299   0.346718  -0.021955
    12  C    0.001422   0.000027  -0.000401   0.003711  -0.032489   0.340531
    13  C    0.002918  -0.000538  -0.000543   0.000314   0.003087  -0.022462
    14  C   -0.014990   0.000463   0.000094  -0.000037  -0.000105  -0.014084
    15  O    0.000112  -0.000003   0.000000   0.000001  -0.000057   0.002558
    16  H    0.000001  -0.000002  -0.000002   0.000040   0.000004  -0.000000
    17  H    0.000013   0.000015  -0.000016   0.000058  -0.000000   0.000001
    18  H    0.000000  -0.000000   0.000001   0.000120   0.000003  -0.000000
    19  H    0.000000  -0.000000   0.000007  -0.000003   0.002378   0.000017
    20  H    0.000006   0.000004   0.000006  -0.000019  -0.000198   0.000077
    21  H   -0.000002  -0.000001   0.000006  -0.000003  -0.000124   0.000011
    22  H    0.000025  -0.000171   0.000008   0.000003   0.000005  -0.000142
    23  H   -0.004817  -0.003822  -0.000198  -0.000119   0.000006   0.000003
    24  H    0.006294  -0.001930  -0.000119   0.001490  -0.000019   0.000014
    25  H    0.649786  -0.043620  -0.013487   0.007492  -0.000052   0.002058
    26  H   -0.043620   0.662344   0.000140  -0.006461  -0.000193  -0.000017
    27  H   -0.013487   0.000140   0.672400  -0.039662  -0.007704   0.002242
    28  H    0.007492  -0.006461  -0.039662   0.616457   0.000047  -0.000083
    29  H   -0.000052  -0.000193  -0.007704   0.000047   0.682531  -0.002116
    30  H    0.002058  -0.000017   0.002242  -0.000083  -0.002116   0.637823
    31  H   -0.000073   0.000002  -0.000112  -0.000128  -0.003690  -0.029963
    32  H    0.005153   0.001759  -0.000009   0.000000  -0.000008  -0.000022
    33  H    0.001602  -0.000015  -0.000012   0.000001  -0.000004   0.004998
    34  H   -0.000177  -0.000086  -0.000002   0.000001   0.000003  -0.000005
    35  H   -0.000003  -0.000000  -0.000000  -0.000000  -0.000010  -0.000146
              31         32         33         34         35
     1  C    0.000003   0.000000   0.000000  -0.000000  -0.000000
     2  O    0.000050  -0.000000  -0.000000  -0.000000   0.000001
     3  C   -0.007916   0.000004  -0.000018  -0.000015  -0.000106
     4  C    0.001201   0.000000  -0.000000  -0.000000   0.000028
     5  O    0.016060   0.000000   0.000000   0.000000   0.001293
     6  C    0.002282  -0.000043  -0.000112   0.000030   0.003112
     7  C   -0.000454  -0.001499   0.003863  -0.004393  -0.003566
     8  C   -0.000260  -0.000321  -0.000005   0.000313  -0.000092
     9  C    0.000183  -0.012044   0.000457   0.001513   0.000009
    10  C    0.003816  -0.000519  -0.000114  -0.000036   0.000010
    11  C   -0.017215   0.000274   0.000230  -0.000147  -0.000196
    12  C    0.327256  -0.000257  -0.005002   0.004436  -0.001898
    13  C   -0.013457  -0.014968  -0.008541  -0.016024  -0.068103
    14  C    0.003944   0.375730   0.355387   0.354958   0.007991
    15  O   -0.002867   0.001713   0.000719   0.000862   0.314045
    16  H    0.000000  -0.000000   0.000000  -0.000000  -0.000000
    17  H    0.000000   0.000000   0.000000   0.000000   0.000000
    18  H    0.000000  -0.000000  -0.000000  -0.000000  -0.000000
    19  H    0.000367   0.000000   0.000000   0.000000   0.000012
    20  H   -0.000609  -0.000003  -0.000008   0.000008   0.006851
    21  H    0.000043  -0.000001   0.000002  -0.000000  -0.000170
    22  H   -0.000290  -0.000016  -0.000130   0.003260   0.000275
    23  H    0.000002  -0.000036  -0.000025   0.000317   0.000000
    24  H    0.000012   0.000019   0.000000   0.000011   0.000001
    25  H   -0.000073   0.005153   0.001602  -0.000177  -0.000003
    26  H    0.000002   0.001759  -0.000015  -0.000086  -0.000000
    27  H   -0.000112  -0.000009  -0.000012  -0.000002  -0.000000
    28  H   -0.000128   0.000000   0.000001   0.000001  -0.000000
    29  H   -0.003690  -0.000008  -0.000004   0.000003  -0.000010
    30  H   -0.029963  -0.000022   0.004998  -0.000005  -0.000146
    31  H    0.585330   0.000022   0.000238  -0.000188   0.005321
    32  H    0.000022   0.582234  -0.036866  -0.034809  -0.000242
    33  H    0.000238  -0.036866   0.586504  -0.025536  -0.000093
    34  H   -0.000188  -0.034809  -0.025536   0.594423   0.000003
    35  H    0.005321  -0.000242  -0.000093   0.000003   0.454101
 Mulliken charges:
               1
     1  C   -0.251814
     2  O   -0.307356
     3  C    0.310642
     4  C    0.133908
     5  O   -0.296932
     6  C   -0.332098
     7  C   -0.036290
     8  C   -0.235522
     9  C   -0.171149
    10  C   -0.229330
    11  C   -0.056147
    12  C   -0.301214
    13  C    0.404752
    14  C   -0.444627
    15  O   -0.501287
    16  H    0.129240
    17  H    0.121815
    18  H    0.109836
    19  H    0.104239
    20  H    0.108934
    21  H    0.111999
    22  H    0.073442
    23  H    0.096164
    24  H    0.096561
    25  H    0.117898
    26  H    0.079714
    27  H    0.084393
    28  H    0.109384
    29  H    0.080448
    30  H    0.099219
    31  H    0.131091
    32  H    0.134755
    33  H    0.122479
    34  H    0.121280
    35  H    0.281573
 Sum of Mulliken charges =  -0.00000
 Mulliken charges with hydrogens summed into heavy atoms:
               1
     1  C    0.109077
     2  O   -0.307356
     3  C    0.310642
     4  C    0.238147
     5  O   -0.296932
     6  C   -0.111164
     7  C    0.037151
     8  C   -0.042797
     9  C    0.026463
    10  C   -0.035552
    11  C    0.024301
    12  C   -0.070905
    13  C    0.404752
    14  C   -0.066113
    15  O   -0.219714
 Electronic spatial extent (au):  <R**2>=           2787.7263
 Charge=             -0.0000 electrons
 Dipole moment (field-independent basis, Debye):
    X=             -1.3049    Y=             -2.6423    Z=             -0.7879  Tot=              3.0504
 Quadrupole moment (field-independent basis, Debye-Ang):
   XX=            -92.5436   YY=            -98.6280   ZZ=            -88.4109
   XY=             -1.3038   XZ=              5.2764   YZ=              0.8634
 Traceless Quadrupole moment (field-independent basis, Debye-Ang):
   XX=              0.6506   YY=             -5.4338   ZZ=              4.7833
   XY=             -1.3038   XZ=              5.2764   YZ=              0.8634
 Octapole moment (field-independent basis, Debye-Ang**2):
  XXX=            -32.0268  YYY=            -13.6434  ZZZ=             -1.3308  XYY=              1.2779
  XXY=            -14.4060  XXZ=             -0.8424  XZZ=             -4.6280  YZZ=              5.6011
  YYZ=             -7.6685  XYZ=              0.4225
 Hexadecapole moment (field-independent basis, Debye-Ang**3):
 XXXX=          -1809.7062 YYYY=          -1192.6535 ZZZZ=           -628.4110 XXXY=            -26.2561
 XXXZ=             28.1564 YYYX=             59.1146 YYYZ=            -22.0302 ZZZX=             -6.7055
 ZZZY=             -0.6737 XXYY=           -517.6661 XXZZ=           -405.0388 YYZZ=           -291.1351
 XXYZ=             22.6774 YYXZ=             11.1221 ZZXY=             -0.4899
 N-N= 1.168138253845D+03 E-N=-3.955280446666D+03  KE= 6.896937151409D+02
 PrsmSu:  requested number of processors reduced to:  13 ShMem   1 Linda.
 Calling FoFJK, ICntrl=      2127 FMM=F ISym2X=0 I1Cent= 0 IOpClX= 0 NMat=1 NMatS=1 NMatT=0.
 ***** Axes restored to original set *****
 -------------------------------------------------------------------
 Center     Atomic                   Forces (Hartrees/Bohr)
 Number     Number              X              Y              Z
 -------------------------------------------------------------------
      1        6           0.005404047   -0.000192624   -0.001106489
      2        8          -0.003853021    0.002148045    0.001686399
      3        6          -0.004693068   -0.007323487   -0.008773768
      4        6           0.019830295   -0.044876933    0.030544018
      5        8          -0.018396861    0.041684758   -0.022493173
      6        6           0.000645135   -0.001902155    0.012455428
      7        6          -0.005458941    0.003245928   -0.007254866
      8        6           0.001644802    0.007975429    0.009700491
      9        6           0.006075398    0.003349342    0.009636775
     10        6           0.001061158    0.008913905   -0.015863226
     11        6           0.007776668    0.007924982    0.002218267
     12        6           0.000061391    0.004356550   -0.009399235
     13        6          -0.002166357   -0.009410015    0.004076476
     14        6          -0.000598490   -0.000239587    0.009011220
     15        8          -0.000585209   -0.003879109    0.001349399
     16        1           0.005117222   -0.002095904   -0.004804513
     17        1          -0.004213194   -0.001361273    0.002173922
     18        1          -0.008558712   -0.002128535   -0.001599627
     19        1           0.000030094    0.004872293   -0.005890276
     20        1           0.005544974    0.001318285   -0.003402363
     21        1           0.002310655    0.002949853   -0.001922533
     22        1           0.005775384    0.002584582    0.002940754
     23        1           0.002746783    0.003281192   -0.000261641
     24        1          -0.001672425   -0.001567725   -0.002373773
     25        1          -0.004449323    0.000677827    0.018518394
     26        1          -0.004718855    0.003287863   -0.011582894
     27        1          -0.000035687   -0.002449223   -0.001120190
     28        1           0.001924683   -0.011499727   -0.004900939
     29        1          -0.003159589   -0.003105991    0.001669376
     30        1          -0.000704619    0.004063890   -0.000511355
     31        1          -0.003413325    0.003925828    0.001659782
     32        1          -0.001618339   -0.004318948   -0.010458604
     33        1          -0.001806165   -0.007818139    0.002129748
     34        1           0.000915647   -0.010069504    0.001987951
     35        1           0.003237845    0.007678327    0.001961067
 -------------------------------------------------------------------
 Cartesian Forces:  Max     0.044876933 RMS     0.009237732

 GradGradGradGradGradGradGradGradGradGradGradGradGradGradGradGradGradGrad
 Berny optimization.
 FormGI is forming the generalized inverse of G from B-inverse, IUseBI=4.
 Internal  Forces:  Max     0.050807745 RMS     0.006001950
 Search for a local minimum.
 Step number   1 out of a maximum of  210
 All quantities printed in internal units (Hartrees-Bohrs-Radians)
 Mixed Optimization -- RFO/linear search
 Second derivative matrix not updated -- first step.
 ITU=  0
     Eigenvalues ---    0.00230   0.00290   0.00323   0.00324   0.00445
     Eigenvalues ---    0.00602   0.00869   0.01138   0.01196   0.01518
     Eigenvalues ---    0.01703   0.01906   0.02054   0.02850   0.03294
     Eigenvalues ---    0.03412   0.03773   0.04135   0.04229   0.04323
     Eigenvalues ---    0.04380   0.04532   0.04676   0.04772   0.04910
     Eigenvalues ---    0.04985   0.05053   0.05394   0.05493   0.05940
     Eigenvalues ---    0.06543   0.06947   0.07156   0.08118   0.08217
     Eigenvalues ---    0.08321   0.08553   0.08607   0.08734   0.08775
     Eigenvalues ---    0.09120   0.09429   0.09569   0.09749   0.10121
     Eigenvalues ---    0.10473   0.11811   0.12944   0.14834   0.15013
     Eigenvalues ---    0.16000   0.16000   0.16000   0.16000   0.16000
     Eigenvalues ---    0.16000   0.16000   0.16000   0.16901   0.17670
     Eigenvalues ---    0.18062   0.22000   0.23571   0.23785   0.24755
     Eigenvalues ---    0.25000   0.26086   0.26369   0.26865   0.26873
     Eigenvalues ---    0.27536   0.28038   0.28232   0.29107   0.30654
     Eigenvalues ---    0.33572   0.33676   0.33702   0.33704   0.33904
     Eigenvalues ---    0.33946   0.33993   0.34282   0.34389   0.34413
     Eigenvalues ---    0.34512   0.34534   0.34601   0.34606   0.34663
     Eigenvalues ---    0.34817   0.34836   0.34841   0.37124   0.39329
     Eigenvalues ---    0.39933   0.43511   0.53305   0.85756
 RFO step:  Lambda=-4.05746115D-02 EMin= 2.30000000D-03
 Linear search not attempted -- first point.
 Maximum step size (   0.300) exceeded in Quadratic search.
    -- Step size scaled by   0.930
 Iteration  1 RMS(Cart)=  0.13132877 RMS(Int)=  0.00444166
 Iteration  2 RMS(Cart)=  0.00873600 RMS(Int)=  0.00054521
 Iteration  3 RMS(Cart)=  0.00002530 RMS(Int)=  0.00054495
 Iteration  4 RMS(Cart)=  0.00000001 RMS(Int)=  0.00054495
 Variable       Old X    -DE/DX   Delta X   Delta X   Delta X     New X
                                 (Linear)    (Quad)   (Total)
    R1        2.67044   0.00212   0.00000   0.00415   0.00415   2.67459
    R2        2.06319   0.00090   0.00000   0.00217   0.00217   2.06537
    R3        2.05934   0.00308   0.00000   0.00735   0.00735   2.06669
    R4        2.05972   0.00573   0.00000   0.01371   0.01371   2.07343
    R5        2.71644   0.00252   0.00000   0.00533   0.00533   2.72177
    R6        2.89781  -0.00211   0.00000  -0.00592  -0.00592   2.89189
    R7        2.92047  -0.00100   0.00000   0.00161   0.00202   2.92249
    R8        2.94833   0.00423   0.00000   0.01649   0.01714   2.96546
    R9        2.34953  -0.05081   0.00000  -0.05259  -0.05259   2.29693
   R10        2.07492   0.00579   0.00000   0.01417   0.01417   2.08910
   R11        2.92167   0.00055   0.00000   0.00435   0.00395   2.92563
   R12        2.07421  -0.00159   0.00000  -0.00389  -0.00389   2.07032
   R13        2.06439  -0.00150   0.00000  -0.00362  -0.00362   2.06077
   R14        2.91002   0.01269   0.00000   0.04305   0.04304   2.95306
   R15        2.93160   0.00237   0.00000   0.00641   0.00614   2.93774
   R16        2.07832  -0.00294   0.00000  -0.00725  -0.00725   2.07107
   R17        2.89669   0.00341   0.00000   0.00709   0.00677   2.90347
   R18        2.07342   0.00012   0.00000   0.00030   0.00030   2.07371
   R19        2.06226   0.00250   0.00000   0.00600   0.00600   2.06826
   R20        2.84715   0.02188   0.00000   0.05156   0.05090   2.89805
   R21        2.02360   0.00874   0.00000   0.01973   0.01973   2.04333
   R22        2.06327   0.00316   0.00000   0.00759   0.00759   2.07086
   R23        2.93720  -0.00116   0.00000  -0.01070  -0.01080   2.92641
[...]
 65,-0.01579277,-0.01067899,-0.06089424,-0.05190505,-0.07113029,0.01506
 700,0.01316045,0.00750793,0.00161597,0.00089055,0.00003583,0.00293046,
 0.00352804,-0.00313885,-0.00020480,-0.00004310,-0.00010989,-0.00011584
 ,-0.00002086,0.00000671,-0.00000725,-0.00004852,0.00000481,0.00000389,
 -0.00004018,-0.00001736,-0.00008600,-0.00002463,0.00006437,-0.00003472
 ,-0.00002636,0.00006993,0.00049266,-0.00017861,0.00014683,0.00004768,-
 0.00000172,-0.00002565,0.00002601,-0.00010300,-0.00001971,0.00010592,-
 0.00014368,0.00043593,0.00006613,-0.00005027,0.00011080,0.00024315,0.0
 0044918,-0.00022758,0.00026229,-0.00030061,-0.00009434,0.00061126,-0.0
 0033888,0.00032420,0.06671660,0.05404590,0.08452438,-0.00009365,0.0000
 1026,-0.00001257,0.00018793,-0.00031832,-0.00010732,-0.00017652,0.0006
 3709,0.00021485,-0.00073574,0.00148186,-0.00171704,0.00058620,-0.00110
 647,0.00086461,0.00021491,0.00013414,0.00035104,-0.00177540,-0.0014834
 1,0.00323628,0.00034707,-0.00050349,0.00000756,-0.00015205,-0.00072938
 ,-0.00028020,-0.00026487,-0.00042979,-0.00204997,-0.00520561,0.0111920
 6,0.00309710,-0.09150936,0.09750705,0.01898888,-0.01263322,0.01973187,
 0.00691203,-0.00120133,-0.00068920,0.00018285,0.00345427,0.00064416,-0
 .00226108,0.00001305,-0.00001279,0.00000135,0.00002707,-0.00000828,-0.
 00000278,-0.00002248,-0.00003167,-0.00003275,-0.00007875,-0.00012461,0
 .00001410,-0.00021088,-0.00000869,-0.00004872,0.00001595,-0.00005587,-
 0.00008494,-0.00131729,0.00045627,-0.00024459,-0.00001556,-0.00001988,
 0.00001948,0.00003296,0.00007283,-0.00004853,0.00024812,0.00006377,0.0
 0029375,0.00016095,0.00002671,0.00010017,0.00000520,0.00030171,-0.0001
 8191,0.00019352,0.00060189,-0.00001782,0.00107588,-0.00074215,0.000183
 39,0.01044189,-0.02141033,-0.00473686,0.09994951,-0.00005349,-0.000058
 57,-0.00004321,0.00010560,0.00022753,0.00012940,-0.00012492,-0.0000887
 1,0.00006112,0.00007611,-0.00076585,0.00022873,-0.00112645,-0.00011801
 ,-0.00108086,-0.00002744,0.00000145,-0.00007187,-0.00091326,-0.0000097
 6,0.00010343,-0.00016780,-0.00011813,0.00012927,-0.00043371,0.00023133
 ,0.00018428,0.00142994,0.00052421,0.00182880,0.00307003,-0.00968032,-0
 .00143558,0.09966529,-0.25233133,-0.04680821,-0.00260402,0.00137432,0.
 00208056,0.00029290,-0.00027251,-0.00009038,-0.00206765,0.00167627,0.0
 0176065,0.00000809,0.00000257,0.00001066,0.00000597,0.00000876,0.00000
 219,0.00002643,0.00004226,0.00002213,-0.00000189,0.00007402,0.00004041
 ,0.00000390,0.00003240,-0.00002678,-0.00001986,0.00002056,0.00002558,-
 0.00016795,0.00020861,-0.00011378,0.00003581,0.00002867,-0.00004152,0.
 00006514,0.00003276,-0.00002605,0.00018312,0.00007442,0.00026225,0.000
 14017,-0.00002266,0.00008074,-0.00009229,0.00000818,-0.00001182,0.0000
 0467,-0.00078752,-0.00002534,-0.00033954,0.00057440,0.00036487,0.00798
 367,-0.01738121,-0.00415869,-0.10472488,0.27576775,0.00004752,-0.00008
 062,-0.00000886,0.00013063,-0.00015686,0.00002561,0.00041155,0.0003424
 8,0.00038869,-0.00116587,0.00025053,-0.00053082,-0.00005863,-0.0006442
 6,-0.00016425,-0.00003529,-0.00014587,0.00000183,0.00101230,0.00134139
 ,-0.00271956,-0.00009995,0.00036074,0.00009738,-0.00022511,-0.00054827
 ,-0.00077690,-0.00330057,0.00045369,-0.00462972,-0.01070351,0.02745663
 ,0.00394789,0.02013864,-0.04675247,-0.05544182,0.01113104,-0.02056936,
 -0.00609371,0.00158007,0.00044530,-0.00036701,-0.00259929,-0.00085034,
 0.00210027,0.00000549,0.00000679,0.00001205,-0.00001426,0.00000440,0.0
 0000120,-0.00003915,-0.00002374,-0.00002087,0.00004238,-0.00000311,-0.
 00010278,0.00001627,0.00001140,0.00007067,0.00005604,0.00000182,0.0000
 3858,0.00101199,-0.00047231,0.00026424,-0.00005901,-0.00001794,0.00006
 054,0.00006283,-0.00003132,0.00003892,0.00028591,-0.00004807,0.0003005
 1,0.00010908,-0.00001889,0.00019938,0.00008916,0.00005558,-0.00002769,
 -0.00015351,0.00185170,-0.00005254,0.00041036,0.00002426,0.00151467,0.
 00489422,-0.01014580,-0.00222223,-0.02345729,0.04685632,0.06425300,0.0
 0001200,-0.00000713,-0.00002072,-0.00004895,0.00004743,-0.00000277,0.0
 0004204,0.00000268,-0.00001165,0.00002006,-0.00023202,0.00009774,-0.00
 007238,0.00010925,-0.00033432,0.00011795,0.00011822,-0.00003482,-0.000
 05671,-0.00017360,0.00038260,-0.00063919,-0.00003309,-0.00100493,0.000
 18360,0.00016812,-0.00008511,0.00004247,-0.00015973,-0.00002511,0.0000
 0631,-0.00011638,-0.00001044,-0.00012652,0.00059909,0.00020189,-0.0034
 1420,-0.01011527,0.00364193,-0.05814803,-0.05408097,-0.00217065,-0.000
 22319,-0.00190296,-0.00329914,-0.00000466,-0.00000023,-0.00000219,-0.0
 0000772,-0.00000052,0.00000194,0.00000210,0.00000844,0.00000607,0.0000
 2836,0.00003622,-0.00002083,0.00005845,0.00005047,0.00008271,-0.000027
 10,0.00001032,-0.00000754,0.00001923,-0.00000976,-0.00013336,-0.000805
 04,0.00057673,0.00008017,0.00003922,0.00012798,0.00027286,0.00054899,-
 0.00000861,0.00000914,0.00001793,-0.00002545,0.00007910,-0.00004341,0.
 00001923,0.00007750,-0.00002639,0.00002572,0.00004055,-0.00002107,0.00
 004536,-0.00001777,0.00005385,0.00017163,0.00031937,0.00008790,-0.0000
 2271,0.00009282,0.05936724,0.00000786,-0.00001157,0.00000450,0.0000165
 0,0.00009965,-0.00004390,-0.00001460,-0.00005170,0.00019981,0.00003999
 ,-0.00039306,0.00018605,-0.00006262,0.00017760,-0.00053364,-0.00013066
 ,0.00014139,-0.00005156,-0.00001352,-0.00027063,-0.00039937,0.00021898
 ,-0.00064686,0.00023343,0.00037711,-0.00074809,0.00076663,0.00002710,-
 0.00004405,0.00001887,0.00019258,0.00002461,-0.00005876,-0.00071731,0.
 00007937,0.00015135,0.00012828,-0.00793659,0.00383826,-0.05573747,-0.3
 0130550,-0.00694691,-0.00112008,-0.00104434,-0.00368977,0.00000219,0.0
 0000251,-0.00000812,0.00000634,-0.00000420,0.00000363,0.00000387,0.000
 01148,0.00000829,0.00003511,0.00004449,-0.00005199,0.00008895,0.000043
 07,0.00007273,-0.00006444,0.00002469,-0.00008246,0.00008143,0.00002534
 ,-0.00004820,0.00021816,0.00018783,0.00058700,0.00000208,0.00005014,0.
 00024427,0.00051117,-0.00024028,0.00102091,0.00027131,-0.00006021,0.00
 021907,-0.00001357,0.00005982,0.00001243,-0.00003507,0.00001461,0.0000
 7941,-0.00002963,0.00006431,-0.00005892,0.00066983,0.00031283,-0.00020
 643,0.00008512,0.00018602,0.00021550,0.06007594,0.33091500,-0.00001811
 ,-0.00002346,-0.00002326,0.00004208,0.00009343,0.00003559,-0.00000602,
 -0.00003193,0.00008753,0.00005982,-0.00041170,0.00015793,-0.00005043,0
 .00023316,-0.00049861,0.00015810,-0.00001694,0.00001093,0.00034354,0.0
 0015597,0.00077229,-0.00081839,0.00029484,-0.00010448,-0.00117536,0.00
 033798,-0.00099850,0.00033590,-0.00020580,-0.00005774,0.00005277,0.000
 15184,0.00000663,-0.00057318,-0.00026018,0.00098182,-0.00229314,-0.025
 72985,0.00408462,-0.00100964,-0.00271379,-0.04884782,-0.00283870,-0.00
 485270,-0.00660010,0.00000097,0.00000059,0.00000157,0.00000344,0.00000
 236,0.00000383,0.00000821,0.00001673,0.00000867,0.00002807,0.00004767,
 -0.00004116,0.00009606,0.00003295,0.00006558,-0.00001389,0.00006522,0.
 00001314,-0.00006388,0.00007963,0.00000714,-0.00013174,0.00011831,-0.0
 0002928,0.00017686,0.00014587,-0.00002841,0.00059252,0.00118282,-0.000
 78210,0.00017574,-0.00004920,0.00021644,-0.00001763,0.00002421,-0.0000
 0506,-0.00004770,0.00008682,0.00012203,-0.00001315,0.00004202,-0.00000
 485,0.00058436,0.00010313,-0.00015068,-0.00011786,0.00012009,0.0002187
 8,0.00226183,0.00406195,0.05019653,-0.00000262,0.00003927,0.00005411,0
 .00007332,-0.00000901,-0.00015967,-0.00011168,-0.00006803,0.00018587,-
 0.00001678,0.00026999,-0.00005693,0.00007399,-0.00014899,0.00017531,-0
 .00048285,0.00076659,0.00003176,0.00055042,-0.00164374,-0.00249531,0.0
 0008101,-0.00041662,0.00013967,-0.00013301,-0.00005349,0.00000602,0.00
 007267,-0.00002039,0.00006576,-0.00005758,0.00008669,-0.00013329,0.000
 65630,-0.00073114,0.00089489,-0.01193231,0.00698775,-0.00262436,-0.230
 54808,0.11439850,-0.04161200,0.00151071,-0.00004727,0.00125950,0.00001
 009,0.00000037,-0.00001331,0.00002532,-0.00001234,0.00000042,-0.000001
 59,-0.00001099,-0.00000551,-0.00001083,-0.00004724,-0.00002735,-0.0000
 3880,-0.00004791,-0.00003110,-0.00012781,-0.00013995,-0.00028570,0.000
 45285,-0.00000578,0.00010027,-0.00000826,-0.00005122,0.00004088,0.0000
 0572,0.00006290,0.00000980,0.00012273,0.00001433,0.00000604,0.00006932
 ,0.00003384,-0.00000124,0.00001935,0.00000241,-0.00002594,-0.00001091,
 -0.00002540,0.00002187,0.00003486,0.00002124,0.00000321,0.00033367,0.0
 0013456,-0.00022076,0.00023420,-0.00002539,-0.00038940,0.00699209,-0.0
 0436650,0.00208941,0.24939614,-0.00001570,0.00001132,-0.00002270,-0.00
 002622,0.00000071,-0.00001478,-0.00004861,0.00004691,-0.00003700,0.000
 01598,0.00008444,-0.00003766,0.00000813,-0.00003164,0.00012284,-0.0003
 8375,0.00050556,-0.00028332,-0.00090688,-0.00087447,-0.00159061,0.0000
 3293,-0.00030445,-0.00031165,-0.00009860,-0.00000006,-0.00004775,0.000
 10584,-0.00012210,-0.00001210,-0.00021273,-0.00020472,0.00009580,0.000
 04102,0.00054807,0.00032402,-0.00814225,0.00338771,-0.00212250,0.11607
 499,-0.11693190,0.02700347,-0.00017087,0.00113416,-0.00000539,-0.00000
 036,-0.00000487,-0.00000436,0.00000687,-0.00000155,0.00000272,0.000003
 43,0.00000187,-0.00000040,-0.00001334,-0.00001405,0.00001296,0.0000181
 5,0.00003067,0.00008087,-0.00012657,-0.00002782,-0.00019671,0.00016884
 ,-0.00002593,-0.00003763,-0.00020089,0.00018121,0.00033414,0.00002753,
 0.00005780,0.00014603,0.00034139,0.00005228,-0.00000265,0.00007409,-0.
 00001346,0.00009756,-0.00003207,0.00001160,0.00004779,-0.00003140,0.00
 003654,0.00004946,0.00001050,0.00001592,0.00002406,-0.00007477,-0.0003
 5894,0.00034857,0.00002399,-0.00000504,0.00006319,0.02651110,-0.014720
 21,0.00568507,-0.12627738,0.12405957,-0.00007019,0.00002452,0.00003366
 ,0.00018738,0.00001351,-0.00006366,-0.00032894,-0.00008856,0.00042971,
 -0.00001448,0.00020231,-0.00005040,0.00008501,-0.00011176,0.00015268,-
 0.00169973,0.00111652,-0.00002887,-0.00034157,-0.00323707,-0.00495938,
 0.00024634,-0.00067496,-0.00013010,-0.00003406,0.00004900,0.00008400,0
 .00002357,0.00002286,0.00010089,0.00004224,0.00009829,0.00013911,-0.00
 080715,0.00007518,0.00167287,-0.02748681,0.01653384,-0.00859068,-0.039
 95250,0.02537964,-0.05513295,0.00223273,0.00147447,0.00212696,0.000027
 91,-0.00000256,-0.00001754,0.00005841,-0.00001459,-0.00000301,0.000004
 43,-0.00000552,-0.00000488,-0.00001337,-0.00005349,-0.00003408,-0.0000
 2424,-0.00003934,-0.00001391,-0.00028942,-0.00025029,-0.00060788,-0.00
 023514,-0.00012907,0.00005939,-0.00001360,0.00020096,0.00013950,-0.000
 01933,0.00009759,0.00007054,0.00000500,0.00001356,-0.00002479,0.000046
 83,0.00003010,-0.00004445,0.00001369,0.00001250,-0.00001647,0.00000729
 ,-0.00006754,-0.00000018,0.00004588,-0.00000202,0.00002995,0.00051225,
 0.00042269,0.00007787,0.00004988,-0.00020157,-0.00026276,0.00087558,-0
 .00020045,-0.00093151,0.04753710,-0.02803285,0.06121243,-0.00003107,-0
 .00002280,-0.00000304,0.00005784,0.00003448,0.00006194,0.00006573,0.00
 001324,0.00003708,0.00001064,-0.00006095,0.00000034,0.00000062,0.00001
 710,-0.00000733,0.00016049,-0.00007709,0.00012051,0.00105164,0.0003319
 9,-0.00034550,-0.00000454,0.00004505,0.00007845,-0.00007632,-0.0000477
 0,-0.00006696,0.00003631,-0.00001181,-0.00003796,0.00034110,0.00013067
 ,-0.00033681,-0.00014199,-0.00139702,-0.00160898,0.00708756,0.00216975
 ,-0.00921994,-0.16652902,-0.03690696,0.12709063,0.00041336,0.00099560,
 0.00020878,0.00000435,0.00000034,0.00000886,-0.00000116,0.00000175,-0.
 00000440,0.00000297,0.00000612,0.00000201,-0.00000285,0.00000027,0.000
 00826,0.00000713,0.00000200,0.00000110,0.00002731,0.00001907,0.0000487
 6,0.00004127,-0.00012446,0.00002542,0.00000784,-0.00003799,-0.00002190
 ,0.00001291,0.00000179,0.00002003,0.00002270,0.00005764,-0.00001529,0.
 00002221,-0.00002684,0.00003209,-0.00000274,0.00000567,-0.00001040,0.0
 0000387,-0.00000815,0.00001173,-0.00003932,0.00006562,-0.00007944,0.00
 030085,0.00033901,-0.00022010,0.00019052,0.00009205,-0.00034779,-0.004
 30298,-0.00023969,0.00307289,-0.01744190,-0.00665591,0.01908308,0.1786
 2312,-0.00000112,0.00001447,0.00000529,-0.00000765,0.00000143,-0.00002
 733,0.00001435,0.00000786,0.00001894,0.00001320,0.00014809,-0.00004188
 ,0.00001695,-0.00006983,0.00016035,0.00014489,-0.00007771,-0.00002644,
 0.00010078,0.00003309,0.00055646,-0.00030822,0.00009513,0.00030060,-0.
 00051398,-0.00024609,-0.00014976,0.00016526,-0.00002133,0.00004206,0.0
 0041942,-0.00018009,-0.00024151,-0.00113564,0.00023082,-0.00148860,0.0
 0600767,0.00045670,-0.00658214,-0.03724740,-0.05807775,0.03997565,0.00
 010682,0.00071341,0.00007903,-0.00000209,-0.00000215,-0.00000195,-0.00
 000018,-0.00000111,-0.00000055,0.00000112,-0.00000265,-0.00000180,-0.0
 0001340,-0.00001925,0.00000913,-0.00002914,-0.00001374,-0.00002481,0.0
 0000072,-0.00000163,0.00001926,0.00003568,0.00022816,0.00012095,0.0000
 3330,-0.00023592,-0.00009764,0.00008763,0.00001301,-0.00011551,0.00038
 925,0.00021099,0.00006337,0.00014389,-0.00003797,0.00013162,0.00000615
 ,0.00000460,-0.00003262,-0.00002979,0.00004871,0.00008095,-0.00005474,
 0.00010037,-0.00012797,0.00012215,0.00007197,-0.00008379,0.00017117,0.
 00012036,0.00024370,-0.02119530,-0.00503935,0.02267553,0.01145716,0.00
 333604,-0.01281583,0.04100210,0.05815726,0.00008885,0.00005034,0.00001
 423,-0.00030142,-0.00005049,-0.00003855,0.00045953,0.00013369,0.000067
 54,-0.00001715,0.00026945,0.00003450,-0.00003177,-0.00011889,0.0002454
 5,-0.00015261,-0.00017420,0.00026485,0.00169829,0.00003049,0.00088453,
 -0.00001811,0.00004580,-0.00015232,0.00010323,-0.00004240,0.00006503,-
 0.00008571,-0.00024685,-0.00005941,0.00136985,-0.00061012,-0.00067642,
 -0.00309457,-0.00177626,-0.00361505,0.02118729,0.00702323,-0.02333023,
 0.12476792,0.03808113,-0.17912328,-0.00023034,0.00137805,0.00287788,-0
 .00002233,-0.00000177,-0.00001081,-0.00003949,-0.00000236,-0.00000591,
 -0.00000716,-0.00001634,-0.00000301,-0.00000414,0.00000339,0.00004437,
 -0.00003866,-0.00001685,-0.00000635,-0.00003098,0.00000827,0.00002024,
 -0.00117843,-0.00000967,0.00018474,-0.00005975,0.00024513,0.00004251,-
 0.00003412,0.00005664,0.00006711,-0.00004293,-0.00008628,-0.00003031,-
 0.00008150,0.00001704,0.00003059,-0.00001811,0.00000668,0.00004024,-0.
 00002241,0.00010357,-0.00000458,-0.00027251,0.00026429,-0.00049334,-0.
 00048690,-0.00000334,0.00010055,0.00041185,-0.00005670,-0.00077120,-0.
 00165165,-0.00028053,0.00100102,-0.00456670,-0.00162552,0.00470679,-0.
 13744634,-0.04267295,0.19747483,0.00017388,0.00007486,-0.00006922,-0.0
 0051976,-0.00011664,0.00018552,0.00033775,-0.00001251,-0.00077702,0.00
 047527,0.00023168,0.00015310,-0.00439622,-0.00029353,0.00083814,0.0013
 4548,0.00183031,-0.00041831,0.00073208,0.00167275,0.00131150,-0.000238
 86,0.00005640,-0.00047129,0.00017186,-0.00002592,-0.00003185,-0.000266
 08,-0.00008436,-0.00023701,0.00066401,0.00008304,0.00063858,0.00164742
 ,-0.00010222,-0.00116190,-0.00557575,-0.00513075,-0.00656553,-0.000622
 17,-0.00289564,0.00018918,-0.02000320,-0.04093324,-0.07012390,-0.00004
 295,-0.00001355,0.00002394,-0.00009462,0.00002644,-0.00001676,0.000008
 97,-0.00004883,-0.00000699,0.00077236,0.00002191,0.00086031,-0.0024059
 1,0.00022787,-0.00128523,-0.00026555,-0.00065980,0.00026128,-0.0000974
 2,0.00018885,0.00018983,-0.00006103,-0.00018029,-0.00001778,-0.0000886
 0,0.00013722,-0.00000876,-0.00008524,-0.00004927,-0.00009370,-0.000084
 98,0.00000752,0.00002487,-0.00003435,-0.00005397,0.00002755,-0.0000364
 8,0.00024578,-0.00002426,-0.00025910,-0.00000812,-0.00015739,0.0000729
 1,0.00082679,-0.00019479,-0.00207438,-0.00027564,0.00112029,0.00032774
 ,-0.00051475,-0.00089375,0.00021025,-0.00004649,0.00024591,0.00008156,
 0.00009900,-0.00015101,0.03023110,0.00002895,0.00031628,0.00017774,0.0
 0008012,-0.00044049,-0.00062323,-0.00023949,-0.00089516,0.00168453,-0.
 00086462,0.00449838,0.00219338,0.00114241,-0.00707064,-0.00082361,0.00
 005653,-0.00054191,0.00065378,0.00047504,-0.00006134,-0.00096893,-0.00
 040584,-0.00003333,0.00003272,-0.00012806,-0.00006501,0.00007150,-0.00
 021938,-0.00004911,-0.00016108,0.00063348,-0.00055962,0.00059086,0.000
 15894,0.00181633,-0.00010397,-0.00893057,-0.02379941,-0.03696467,-0.00
 081199,-0.00643216,0.00143396,-0.03722835,-0.11556528,-0.13204854,-0.0
 0001009,-0.00004275,-0.00005611,0.00005564,-0.00005446,0.00000869,-0.0
 0003627,-0.00011475,-0.00006696,-0.00013651,-0.00083091,0.00048774,0.0
 0114045,0.00052790,0.00064027,-0.00003917,0.00046843,-0.00023732,0.000
 08035,-0.00018887,-0.00004477,-0.00002094,0.00017118,0.00005286,-0.000
 02276,0.00023008,0.00002006,0.00005096,-0.00000855,-0.00004860,0.00004
 144,0.00007500,-0.00005290,0.00003582,-0.00005980,-0.00003075,-0.00003
 670,0.00012559,0.00001222,0.00015927,0.00010192,-0.00023933,0.00047989
 ,0.00058375,-0.00051180,-0.00074272,0.00042277,0.00052380,-0.00062017,
 0.00005188,-0.00146263,-0.00012684,0.00013885,0.00015996,0.00028606,0.
 00003408,0.00007434,0.04571512,0.14725115,-0.00074606,0.00021518,-0.00
 007115,0.00088533,-0.00153226,0.00009565,-0.00042391,0.00050770,-0.000
 31578,-0.00047568,0.01192457,-0.00743092,0.00239626,-0.00648961,0.0043
 3628,-0.00099047,0.00015528,0.00065969,0.00120309,0.00182907,0.0005016
 8,-0.00090299,0.00001990,-0.00067141,-0.00012947,-0.00018724,0.0003668
 0,-0.00061524,0.00018524,-0.00017465,0.00167210,-0.00011380,0.00053260
 ,0.00033980,0.00229123,0.00114976,0.00148444,0.00087078,0.00794295,0.0
 0039588,0.00191017,0.00019034,-0.08035507,-0.17671466,-0.40100122,0.00
 005954,-0.00008439,0.00002956,0.00016644,-0.00005352,-0.00003807,-0.00
 006163,-0.00011847,-0.00014052,-0.00132498,-0.00184442,0.00138639,-0.0
 0083491,0.00078190,0.00027345,0.00011782,-0.00004325,-0.00039019,0.000
 19762,-0.00032337,-0.00038157,0.00004164,-0.00011200,-0.00007286,-0.00
 015582,0.00058409,-0.00004758,-0.00002752,-0.00010467,-0.00005444,0.00
 008083,0.00003669,-0.00017838,0.00002730,-0.00031307,-0.00011487,0.000
 01230,0.00020892,-0.00000904,0.00016494,0.00012902,-0.00034494,0.00049
 286,0.00012320,-0.00080159,0.00047306,-0.00009912,0.00065849,0.0003091
 9,0.00073692,0.00111149,0.00002668,-0.00005297,-0.00011889,-0.00013981
 ,0.00005019,0.00015379,0.07663644,0.16562678,0.39296911\\0.00000118,-0
 .00000497,-0.00000058,0.00000229,-0.00000059,0.00000775,0.00000422,0.0
 0001579,0.00001177,-0.00000654,-0.00002771,0.00000113,-0.00000234,0.00
 002020,-0.00000849,0.00000191,-0.00000556,-0.00000758,-0.00000148,-0.0
 0001433,-0.00000468,0.00000566,0.00000990,0.00000147,-0.00000351,0.000
 00484,0.00000799,0.00000232,-0.00000346,-0.00000534,-0.00000814,-0.000
 00729,-0.00000906,0.00000679,-0.00000081,-0.00000415,-0.00000641,-0.00
 000960,0.00001081,-0.00000092,-0.00000096,-0.00000197,0.00000483,0.000
 00553,-0.00000385,0.00000406,0.00000385,0.00000088,-0.00000074,0.00000
 398,0.00000035,-0.00000124,0.00000307,-0.00000053,0.00000191,0.0000033
 2,-0.00000052,-0.00000418,0.00000093,-0.00000294,-0.00000019,0.0000033
 7,-0.00000106,0.00000125,0.00000157,-0.00000030,0.00000192,0.00000179,
 -0.00000049,0.00000268,0.00000164,-0.00000092,0.00000142,-0.00000140,0
 .00000130,0.00000089,-0.00000069,0.00000306,0.00000503,-0.00000357,0.0
 0000311,0.00000489,0.00000120,-0.00000090,-0.00000122,-0.00000007,-0.0
 0000297,-0.00000379,-0.00000096,0.00000031,-0.00000435,-0.00000170,0.0
 0000354,0.00000037,-0.00000049,0.00000255,-0.00000128,-0.00000188,0.00
 000083,-0.00000250,-0.00000083,-0.00000036,-0.00000479,0.00000590,-0.0
 0000016\\\@


 TIME IS IN FACT THE HERO OF THE PLOT. THE TIME
 WITH WHICH WE HAVE TO DEAL IS OF THE ORDER OF TWO
 BILLION YEARS...GIVEN SO MUCH TIME, THE "IMPOSSIBLE"
 BECOMES POSSIBLE, THE POSSIBLE PROBABLE, THE PROBABLE
 VIRTUALLY CERTAIN.  ONE HAS ONLY TO WAIT, TIME
 ITSELF PERFORMS THE MIRACLES.
 "ORIGIN OF LIFE" LECTURES, GEORGE WALD, 1954
 Job cpu time:       0 days 17 hours  5 minutes  6.2 seconds.
 Elapsed time:       0 days  4 hours 16 minutes 42.0 seconds.
 File lengths (MBytes):  RWF=    694 Int=      0 D2E=      0 Chk=     23 Scr=      1
 Normal termination of Gaussian 16 at Tue May 23 15:07:59 2023.
### All Done ###
