### Starting Gaussian ###
 Entering Gaussian System, Link 0=g16
 Initial command:
 /cluster/software/gaussian/gaussian-16-A.03/avx2/g16/l1.exe "/local/scratch/cz9n3/Gau-27948.inp" -scrdir="/local/scratch/cz9n3/"
 Entering Link 1 = /cluster/software/gaussian/gaussian-16-A.03/avx2/g16/l1.exe PID=     27962.
  
 Copyright (c) 1988,1990,1992,1993,1995,1998,2003,2009,2016,
            Gaussian, Inc.  All Rights Reserved.
  
 This is part of the Gaussian(R) 16 program.  It is based on
 the Gaussian(R) 09 system (copyright 2009, Gaussian, Inc.),
 the Gaussian(R) 03 system (copyright 2003, Gaussian, Inc.),
 the Gaussian(R) 98 system (copyright 1998, Gaussian, Inc.),
 the Gaussian(R) 94 system (copyright 1995, Gaussian, Inc.),
 the Gaussian 92(TM) system (copyright 1992, Gaussian, Inc.),
 the Gaussian 90(TM) system (copyright 1990, Gaussian, Inc.),
 the Gaussian 88(TM) system (copyright 1988, Gaussian, Inc.),
 the Gaussian 86(TM) system (copyright 1986, Carnegie Mellon
 University), and the Gaussian 82(TM) system (copyright 1983,
 Carnegie Mellon University). Gaussian is a federally registered
 trademark of Gaussian, Inc.
  
 This software contains proprietary and confidential information,
 including trade secrets, belonging to Gaussian, Inc.
  
 This software is provided under written license and may be
 used, copied, transmitted, or stored only in accord with that
 written license.
  
 The following legend is applicable only to US Government
 contracts under FAR:
  
                    RESTRICTED RIGHTS LEGEND
  
 Use, reproduction and disclosure by the US Government is
 subject to restrictions as set forth in subparagraphs (a)
 and (c) of the Commercial Computer Software - Restricted
 Rights clause in FAR 52.227-19.
  
 Gaussian, Inc.
 340 Quinnipiac St., Bldg. 40, Wallingford CT 06492
  
  
 ---------------------------------------------------------------
 Warning -- This program may not be used in any manner that
 competes with the business of Gaussian, Inc. or will provide
 assistance to any competitor of Gaussian, Inc.  The licensee
 of this program is prohibited from giving any competitor of
 Gaussian, Inc. access to this program.  By using this program,
 the user acknowledges that Gaussian, Inc. is engaged in the
 business of creating and licensing software in the field of
 computational chemistry and represents and warrants to the
 licensee that it is not a competitor of Gaussian, Inc. and that
 it will not use this program in any manner prohibited above.
 ---------------------------------------------------------------
  

 Cite this work as:
 Gaussian 16, Revision A.03,
 M. J. Frisch, G. W. Trucks, H. B. Schlegel, G. E. Scuseria, 
 M. A. Robb, J. R. Cheeseman, G. Scalmani, V. Barone, 
 G. A. Petersson, H. Nakatsuji, X. Li, M. Caricato, A. V. Marenich, 
 J. Bloino, B. G. Janesko, R. Gomperts, B. Mennucci, H. P. Hratchian, 
 J. V. Ortiz, A. F. Izmaylov, J. L. Sonnenberg, D. Williams-Young, 
 F. Ding, F. Lipparini, F. Egidi, J. Goings, B. Peng, A. Petrone, 
 T. Henderson, D. Ranasinghe, V. G. Zakrzewski, J. Gao, N. Rega, 
 G. Zheng, W. Liang, M. Hada, M. Ehara, K. Toyota, R. Fukuda, 
 J. Hasegawa, M. Ishida, T. Nakajima, Y. Honda, O. Kitao, H. Nakai, 
 T. Vreven, K. Throssell, J. A. Montgomery, Jr., J. E. Peralta, 
 F. Ogliaro, M. J. Bearpark, J. J. Heyd, E. N. Brothers, K. N. Kudin, 
 V. N. Staroverov, T. A. Keith, R. Kobayashi, J. Normand, 
 K. Raghavachari, A. P. Rendell, J. C. Burant, S. S. Iyengar, 
 J. Tomasi, M. Cossi, J. M. Millam, M. Klene, C. Adamo, R. Cammi, 
 J. W. Ochterski, R. L. Martin, K. Morokuma, O. Farkas, 
 J. B. Foresman, and D. J. Fox, Gaussian, Inc., Wallingford CT, 2016.
 
 ******************************************
 Gaussian 16:  ES64L-G16RevA.03 25-Dec-2016
                28-May-2023 
 ******************************************
 %chk=COC1CqdOrCCqOrCCC1C.chk
 %NProcShared=20
 Will use up to   20 processors via shared memory.
 -----------------------------
 # opt freq b3lyp/6-31g(2df,p)
 -----------------------------
 1/18=20,19=15,26=3,38=1/1,3;
 2/9=110,12=2,17=6,18=5,40=1/2;
 3/5=1,6=6,7=104,11=2,25=1,30=1,71=1,74=-5/1,2,3;
 4//1;
 5/5=2,38=5/2;
 6/7=2,8=2,9=2,10=2,28=1/1;
 7//1,2,3,16;
 1/18=20,19=15,26=3/3(2);
 2/9=110/2;
 99//99;
 2/9=110/2;
 3/5=1,6=6,7=104,11=2,25=1,30=1,71=1,74=-5/1,2,3;
 4/5=5,16=3,69=1/1;
 5/5=2,38=5/2;
 7//1,2,3,16;
 1/18=20,19=15,26=3/3(-5);
 2/9=110/2;
 6/7=2,8=2,9=2,10=2,19=2,28=1/1;
 99/9=1/99;
 -------------------
 Title Card Required
 -------------------
 Symbolic Z-matrix:
 Charge =  0 Multiplicity = 1
 C                     0.95262  -0.02279   0.05503 
 O                     2.37352   0.00324   0.07534 
 C                     2.86973  -0.0847    1.40744 
 C                     3.37054  -1.50164   1.71938 
 O                     3.36364  -2.42067   0.89614 
 C                     3.84936  -1.73759   3.1316 
 C                     5.24078  -1.14126   3.28566 
 O                     6.00203  -1.9205    4.20469 
 C                     5.22701   0.31124   3.77322 
 C                     4.18026   1.21878   3.12821 
 C                     3.98077   0.96825   1.62002 
 C                     3.63232   2.28442   0.92148 
 H                     0.61373   0.04477  -0.97989 
 H                     0.56055   0.83853   0.60753 
 H                     0.58317  -0.95146   0.5001 
 H                     2.05119   0.11023   2.11307 
 H                     3.84446  -2.81528   3.32627 
 H                     3.12818  -1.29963   3.8313 
 H                     5.77911  -1.18938   2.33095 
 H                     5.54212  -1.92245   5.06088 
 H                     6.22259   0.74021   3.59912 
 H                     5.09258   0.34164   4.8623 
 H                     4.46466   2.26018   3.32051 
 H                     3.22663   1.08566   3.65752 
 H                     4.91985   0.61917   1.17035 
 H                     2.68666   2.68624   1.29764 
 H                     3.54498   2.14397  -0.16094 
 H                     4.41821   3.02839   1.08562 
 

 GradGradGradGradGradGradGradGradGradGradGradGradGradGradGradGradGradGrad
 Berny optimization.
 Initialization pass.
                           ----------------------------
                           !    Initial Parameters    !
                           ! (Angstroms and Degrees)  !
 --------------------------                            --------------------------
 ! Name  Definition              Value          Derivative Info.                !
 --------------------------------------------------------------------------------
 ! R1    R(1,2)                  1.4213         estimate D2E/DX2                !
 ! R2    R(1,13)                 1.0911         estimate D2E/DX2                !
 ! R3    R(1,14)                 1.0958         estimate D2E/DX2                !
 ! R4    R(1,15)                 1.0941         estimate D2E/DX2                !
 ! R5    R(2,3)                  1.4242         estimate D2E/DX2                !
 ! R6    R(3,4)                  1.5349         estimate D2E/DX2                !
 ! R7    R(3,11)                 1.5454         estimate D2E/DX2                !
 ! R8    R(3,16)                 1.0981         estimate D2E/DX2                !
 ! R9    R(4,5)                  1.2339         estimate D2E/DX2                !
 ! R10   R(4,6)                  1.5097         estimate D2E/DX2                !
 ! R11   R(6,7)                  1.5216         estimate D2E/DX2                !
 ! R12   R(6,17)                 1.0951         estimate D2E/DX2                !
 ! R13   R(6,18)                 1.0961         estimate D2E/DX2                !
 ! R14   R(7,8)                  1.4252         estimate D2E/DX2                !
 ! R15   R(7,9)                  1.5322         estimate D2E/DX2                !
 ! R16   R(7,19)                 1.0971         estimate D2E/DX2                !
 ! R17   R(8,20)                 0.9719         estimate D2E/DX2                !
 ! R18   R(9,10)                 1.5282         estimate D2E/DX2                !
 ! R19   R(9,21)                 1.098          estimate D2E/DX2                !
 ! R20   R(9,22)                 1.0978         estimate D2E/DX2                !
 ! R21   R(10,11)                1.5418         estimate D2E/DX2                !
 ! R22   R(10,23)                1.0965         estimate D2E/DX2                !
 ! R23   R(10,24)                1.0988         estimate D2E/DX2                !
 ! R24   R(11,12)                1.5303         estimate D2E/DX2                !
 ! R25   R(11,25)                1.0981         estimate D2E/DX2                !
 ! R26   R(12,26)                1.0942         estimate D2E/DX2                !
 ! R27   R(12,27)                1.095          estimate D2E/DX2                !
 ! R28   R(12,28)                1.0946         estimate D2E/DX2                !
 ! A1    A(2,1,13)             108.8405         estimate D2E/DX2                !
 ! A2    A(2,1,14)             109.6386         estimate D2E/DX2                !
 ! A3    A(2,1,15)             110.3236         estimate D2E/DX2                !
 ! A4    A(13,1,14)            108.5682         estimate D2E/DX2                !
 ! A5    A(13,1,15)            109.4833         estimate D2E/DX2                !
 ! A6    A(14,1,15)            109.9529         estimate D2E/DX2                !
 ! A7    A(1,2,3)              111.1337         estimate D2E/DX2                !
 ! A8    A(2,3,4)              111.1474         estimate D2E/DX2                !
 ! A9    A(2,3,11)             109.6981         estimate D2E/DX2                !
 ! A10   A(2,3,16)             109.2895         estimate D2E/DX2                !
 ! A11   A(4,3,11)             111.4971         estimate D2E/DX2                !
 ! A12   A(4,3,16)             106.0507         estimate D2E/DX2                !
 ! A13   A(11,3,16)            109.0593         estimate D2E/DX2                !
 ! A14   A(3,4,5)              123.3801         estimate D2E/DX2                !
 ! A15   A(3,4,6)              115.968          estimate D2E/DX2                !
 ! A16   A(5,4,6)              120.6292         estimate D2E/DX2                !
 ! A17   A(4,6,7)              108.8729         estimate D2E/DX2                !
 ! A18   A(4,6,17)             108.5814         estimate D2E/DX2                !
 ! A19   A(4,6,18)             109.0259         estimate D2E/DX2                !
 ! A20   A(7,6,17)             111.8235         estimate D2E/DX2                !
 ! A21   A(7,6,18)             112.3595         estimate D2E/DX2                !
 ! A22   A(17,6,18)            106.0677         estimate D2E/DX2                !
 ! A23   A(6,7,8)              109.8419         estimate D2E/DX2                !
 ! A24   A(6,7,9)              113.2979         estimate D2E/DX2                !
 ! A25   A(6,7,19)             110.0844         estimate D2E/DX2                !
 ! A26   A(8,7,9)              108.5366         estimate D2E/DX2                !
 ! A27   A(8,7,19)             105.9663         estimate D2E/DX2                !
 ! A28   A(9,7,19)             108.8386         estimate D2E/DX2                !
 ! A29   A(7,8,20)             108.4454         estimate D2E/DX2                !
 ! A30   A(7,9,10)             115.774          estimate D2E/DX2                !
 ! A31   A(7,9,21)             108.1658         estimate D2E/DX2                !
 ! A32   A(7,9,22)             110.0623         estimate D2E/DX2                !
 ! A33   A(10,9,21)            108.7927         estimate D2E/DX2                !
 ! A34   A(10,9,22)            108.5669         estimate D2E/DX2                !
 ! A35   A(21,9,22)            104.9237         estimate D2E/DX2                !
 ! A36   A(9,10,11)            113.891          estimate D2E/DX2                !
 ! A37   A(9,10,23)            108.2            estimate D2E/DX2                !
 ! A38   A(9,10,24)            108.615          estimate D2E/DX2                !
 ! A39   A(11,10,23)           111.0649         estimate D2E/DX2                !
 ! A40   A(11,10,24)           109.8306         estimate D2E/DX2                !
 ! A41   A(23,10,24)           104.8141         estimate D2E/DX2                !
 ! A42   A(3,11,10)            109.7725         estimate D2E/DX2                !
 ! A43   A(3,11,12)            111.0708         estimate D2E/DX2                !
 ! A44   A(3,11,25)            109.9914         estimate D2E/DX2                !
 ! A45   A(10,11,12)           109.6477         estimate D2E/DX2                !
 ! A46   A(10,11,25)           109.9718         estimate D2E/DX2                !
 ! A47   A(12,11,25)           106.3324         estimate D2E/DX2                !
 ! A48   A(11,12,26)           110.8379         estimate D2E/DX2                !
 ! A49   A(11,12,27)           111.0443         estimate D2E/DX2                !
 ! A50   A(11,12,28)           110.6501         estimate D2E/DX2                !
 ! A51   A(26,12,27)           108.5423         estimate D2E/DX2                !
 ! A52   A(26,12,28)           108.6253         estimate D2E/DX2                !
 ! A53   A(27,12,28)           107.0192         estimate D2E/DX2                !
 ! D1    D(13,1,2,3)          -179.9079         estimate D2E/DX2                !
 ! D2    D(14,1,2,3)            61.4718         estimate D2E/DX2                !
 ! D3    D(15,1,2,3)           -59.7629         estimate D2E/DX2                !
 ! D4    D(1,2,3,4)            102.0845         estimate D2E/DX2                !
 ! D5    D(1,2,3,11)          -134.148          estimate D2E/DX2                !
 ! D6    D(1,2,3,16)           -14.625          estimate D2E/DX2                !
 ! D7    D(2,3,4,5)              1.606          estimate D2E/DX2                !
 ! D8    D(2,3,4,6)           -176.665          estimate D2E/DX2                !
 ! D9    D(11,3,4,5)          -121.1303         estimate D2E/DX2                !
 ! D10   D(11,3,4,6)            60.5987         estimate D2E/DX2                !
 ! D11   D(16,3,4,5)           120.2817         estimate D2E/DX2                !
 ! D12   D(16,3,4,6)           -57.9893         estimate D2E/DX2                !
 ! D13   D(2,3,11,10)          160.6506         estimate D2E/DX2                !
 ! D14   D(2,3,11,12)           39.2242         estimate D2E/DX2                !
 ! D15   D(2,3,11,25)          -78.2177         estimate D2E/DX2                !
 ! D16   D(4,3,11,10)          -75.7869         estimate D2E/DX2                !
 ! D17   D(4,3,11,12)          162.7867         estimate D2E/DX2                !
 ! D18   D(4,3,11,25)           45.3448         estimate D2E/DX2                !
 ! D19   D(16,3,11,10)          40.9866         estimate D2E/DX2                !
 ! D20   D(16,3,11,12)         -80.4399         estimate D2E/DX2                !
 ! D21   D(16,3,11,25)         162.1182         estimate D2E/DX2                !
 ! D22   D(3,4,6,7)            -77.4753         estimate D2E/DX2                !
 ! D23   D(3,4,6,17)           160.56           estimate D2E/DX2                !
 ! D24   D(3,4,6,18)            45.4225         estimate D2E/DX2                !
 ! D25   D(5,4,6,7)            104.2025         estimate D2E/DX2                !
 ! D26   D(5,4,6,17)           -17.7622         estimate D2E/DX2                !
 ! D27   D(5,4,6,18)          -132.8996         estimate D2E/DX2                !
 ! D28   D(4,6,7,8)           -147.2077         estimate D2E/DX2                !
 ! D29   D(4,6,7,9)             91.2337         estimate D2E/DX2                !
 ! D30   D(4,6,7,19)           -30.8925         estimate D2E/DX2                !
 ! D31   D(17,6,7,8)           -27.2311         estimate D2E/DX2                !
 ! D32   D(17,6,7,9)          -148.7897         estimate D2E/DX2                !
 ! D33   D(17,6,7,19)           89.0841         estimate D2E/DX2                !
 ! D34   D(18,6,7,8)            91.9189         estimate D2E/DX2                !
 ! D35   D(18,6,7,9)           -29.6397         estimate D2E/DX2                !
 ! D36   D(18,6,7,19)         -151.766          estimate D2E/DX2                !
 ! D37   D(6,7,8,20)           -59.5879         estimate D2E/DX2                !
 ! D38   D(9,7,8,20)            64.778          estimate D2E/DX2                !
 ! D39   D(19,7,8,20)         -178.4673         estimate D2E/DX2                !
 ! D40   D(6,7,9,10)           -42.6512         estimate D2E/DX2                !
 ! D41   D(6,7,9,21)          -164.9907         estimate D2E/DX2                !
 ! D42   D(6,7,9,22)            80.9061         estimate D2E/DX2                !
 ! D43   D(8,7,9,10)          -164.939          estimate D2E/DX2                !
 ! D44   D(8,7,9,21)            72.7215         estimate D2E/DX2                !
 ! D45   D(8,7,9,22)           -41.3817         estimate D2E/DX2                !
 ! D46   D(19,7,9,10)           80.1668         estimate D2E/DX2                !
 ! D47   D(19,7,9,21)          -42.1727         estimate D2E/DX2                !
 ! D48   D(19,7,9,22)         -156.276          estimate D2E/DX2                !
 ! D49   D(7,9,10,11)          -38.9586         estimate D2E/DX2                !
 ! D50   D(7,9,10,23)         -162.9761         estimate D2E/DX2                !
 ! D51   D(7,9,10,24)           83.7735         estimate D2E/DX2                !
 ! D52   D(21,9,10,11)          83.0478         estimate D2E/DX2                !
 ! D53   D(21,9,10,23)         -40.9696         estimate D2E/DX2                !
 ! D54   D(21,9,10,24)        -154.22           estimate D2E/DX2                !
 ! D55   D(22,9,10,11)        -163.2945         estimate D2E/DX2                !
 ! D56   D(22,9,10,23)          72.688          estimate D2E/DX2                !
 ! D57   D(22,9,10,24)         -40.5624         estimate D2E/DX2                !
 ! D58   D(9,10,11,3)           90.5905         estimate D2E/DX2                !
 ! D59   D(9,10,11,12)        -147.133          estimate D2E/DX2                !
 ! D60   D(9,10,11,25)         -30.553          estimate D2E/DX2                !
 ! D61   D(23,10,11,3)        -146.9518         estimate D2E/DX2                !
 ! D62   D(23,10,11,12)        -24.6753         estimate D2E/DX2                !
 ! D63   D(23,10,11,25)         91.9047         estimate D2E/DX2                !
 ! D64   D(24,10,11,3)         -31.4737         estimate D2E/DX2                !
 ! D65   D(24,10,11,12)         90.8028         estimate D2E/DX2                !
 ! D66   D(24,10,11,25)       -152.6172         estimate D2E/DX2                !
 ! D67   D(3,11,12,26)          58.8029         estimate D2E/DX2                !
 ! D68   D(3,11,12,27)         -61.929          estimate D2E/DX2                !
 ! D69   D(3,11,12,28)         179.3761         estimate D2E/DX2                !
 ! D70   D(10,11,12,26)        -62.6965         estimate D2E/DX2                !
 ! D71   D(10,11,12,27)        176.5715         estimate D2E/DX2                !
 ! D72   D(10,11,12,28)         57.8767         estimate D2E/DX2                !
 ! D73   D(25,11,12,26)        178.4518         estimate D2E/DX2                !
 ! D74   D(25,11,12,27)         57.7199         estimate D2E/DX2                !
 ! D75   D(25,11,12,28)        -60.975          estimate D2E/DX2                !
 --------------------------------------------------------------------------------
 Trust Radius=3.00D-01 FncErr=1.00D-07 GrdErr=1.00D-06 EigMax=2.50D+02 EigMin=1.00D-04
 Number of steps in this run=    166 maximum allowed number of steps=    168.
 GradGradGradGradGradGradGradGradGradGradGradGradGradGradGradGradGradGrad

                          Input orientation:                          
 ---------------------------------------------------------------------
 Center     Atomic      Atomic             Coordinates (Angstroms)
 Number     Number       Type             X           Y           Z
 ---------------------------------------------------------------------
      1          6           0        0.952620   -0.022790    0.055030
      2          8           0        2.373520    0.003240    0.075340
      3          6           0        2.869730   -0.084700    1.407440
      4          6           0        3.370540   -1.501640    1.719380
      5          8           0        3.363640   -2.420670    0.896140
      6          6           0        3.849360   -1.737590    3.131600
      7          6           0        5.240780   -1.141260    3.285660
      8          8           0        6.002030   -1.920500    4.204690
      9          6           0        5.227010    0.311240    3.773220
     10          6           0        4.180260    1.218780    3.128210
     11          6           0        3.980770    0.968250    1.620020
     12          6           0        3.632320    2.284420    0.921480
     13          1           0        0.613730    0.044770   -0.979890
     14          1           0        0.560550    0.838530    0.607530
     15          1           0        0.583170   -0.951460    0.500100
     16          1           0        2.051190    0.110230    2.113070
     17          1           0        3.844460   -2.815280    3.326270
     18          1           0        3.128180   -1.299630    3.831300
     19          1           0        5.779110   -1.189380    2.330950
     20          1           0        5.542120   -1.922450    5.060880
     21          1           0        6.222590    0.740210    3.599120
     22          1           0        5.092580    0.341640    4.862300
     23          1           0        4.464660    2.260180    3.320510
     24          1           0        3.226630    1.085660    3.657520
     25          1           0        4.919850    0.619170    1.170350
     26          1           0        2.686660    2.686240    1.297640
     27          1           0        3.544980    2.143970   -0.160940
     28          1           0        4.418210    3.028390    1.085620
 ---------------------------------------------------------------------
                    Distance matrix (angstroms):
                    1          2          3          4          5
     1  C    0.000000
     2  O    1.421284   0.000000
     3  C    2.346946   1.424236   0.000000
     4  C    3.286852   2.441635   1.534873   0.000000
     5  O    3.502901   2.743973   2.441747   1.233851   0.000000
     6  C    4.560365   3.814357   2.581559   1.509737   2.387426
     7  C    5.484183   4.453899   3.204045   2.465949   3.297021
     8  O    6.805698   5.823950   4.583238   3.643755   4.261194
     9  C    5.675114   4.680981   3.363102   3.309271   4.383272
    10  C    4.626402   3.749915   2.525391   3.168775   4.346792
    11  C    3.549795   2.429101   1.545414   2.546097   3.519891
    12  C    3.640707   2.739400   2.535829   3.878070   4.712823
    13  H    1.091087   2.052339   3.287194   4.156614   4.142450
    14  H    1.095832   2.065864   2.612379   3.822126   4.308479
    15  H    1.094079   2.072975   2.608236   3.091727   3.169612
    16  H    2.336681   2.065838   1.098143   2.119859   3.099822
    17  H    5.182832   4.547116   3.476791   2.128931   2.508473
    18  H    4.541321   4.046507   2.723591   2.135358   3.150768
    19  H    5.462211   4.255369   3.246179   2.504543   3.067450
    20  H    7.052003   6.213205   4.885347   4.007301   4.726421
    21  H    6.396509   5.270246   4.089695   4.085768   5.046866
    22  H    6.354677   5.515686   4.130240   4.030018   5.133227
    23  H    5.311284   4.471887   3.420833   4.232258   5.385181
    24  H    4.402013   3.838156   2.561246   3.235926   4.465237
    25  H    4.170727   2.839404   2.180513   2.683213   3.426019
    26  H    3.448162   2.964888   2.779151   4.264258   5.167208
    27  H    3.385531   2.451708   2.807623   4.105667   4.688949
    28  H    4.730976   3.788529   3.491803   4.692594   5.553402
                    6          7          8          9         10
     6  C    0.000000
     7  C    1.521642   0.000000
     8  O    2.412253   1.425248   0.000000
     9  C    2.550941   1.532208   2.401559   0.000000
    10  C    2.974833   2.592158   3.785860   1.528186   0.000000
    11  C    3.102211   2.968504   4.371600   2.573139   1.541817
    12  C    4.594377   4.462261   5.837495   3.816922   2.511072
    13  H    5.527247   6.403997   7.731490   6.629134   5.565512
    14  H    4.880942   5.744258   7.082479   5.663522   4.427270
    15  H    4.267410   5.430350   6.635290   5.820049   4.955397
    16  H    2.772230   3.621419   4.909977   3.589197   2.606210
    17  H    1.095142   2.180299   2.495468   3.447657   4.052854
    18  H    1.096125   2.187666   2.963767   2.646387   2.818439
    19  H    2.159979   1.097081   2.023643   2.153327   2.998530
    20  H    2.573272   1.962771   0.971896   2.597448   3.931565
    21  H    3.462700   2.145259   2.737652   1.097955   2.149860
    22  H    2.977267   2.169504   2.525238   1.097766   2.146805
    23  H    4.049253   3.489036   4.541296   2.141142   1.096529
    24  H    2.938558   3.025600   4.127861   2.148170   1.098772
    25  H    3.247579   2.770676   4.102226   2.638958   2.177095
    26  H    4.928037   5.012535   6.376886   4.268782   2.781235
    27  H    5.099017   5.054456   6.451026   4.654647   3.475351
    28  H    5.217681   4.785685   6.060412   3.906438   2.739249
                   11         12         13         14         15
    11  C    0.000000
    12  C    1.530255   0.000000
    13  H    4.353080   4.212259   0.000000
    14  H    3.569295   3.409536   1.775608   0.000000
    15  H    4.059950   4.466072   1.784315   1.793354   0.000000
    16  H    2.168542   2.940572   3.411301   2.240330   2.425684
    17  H    4.152706   5.642248   6.095943   5.614796   4.700753
    18  H    3.280236   4.643988   5.592622   4.642967   4.206565
    19  H    2.897381   4.320023   6.258270   5.857983   5.514201
    20  H    4.757465   6.203203   8.040515   7.229895   6.806961
    21  H    2.999099   4.032845   7.273945   6.404528   6.653475
    22  H    3.484414   4.629991   7.367456   6.236126   6.405909
    23  H    2.189726   2.539433   6.183134   4.962200   5.773674
    24  H    2.175757   3.014552   5.423677   4.058509   4.594240
    25  H    1.098149   2.119605   4.847281   4.400952   4.660784
    26  H    2.174888   1.094179   4.057283   2.900108   4.277102
    27  H    2.178084   1.094983   3.697235   3.346871   4.334856
    28  H    2.172812   1.094558   5.257603   4.461569   5.557839
                   16         17         18         19         20
    16  H    0.000000
    17  H    3.639544   0.000000
    18  H    2.469803   1.750802   0.000000
    19  H    3.953966   2.716079   3.048054   0.000000
    20  H    5.000796   2.586130   2.779726   2.836560   0.000000
    21  H    4.472784   4.286194   3.713520   2.351222   3.112803
    22  H    4.106321   3.726035   2.759637   3.036952   2.316813
    23  H    3.450367   5.113216   3.836578   3.821841   4.656630
    24  H    2.172199   3.963429   2.393637   3.667526   4.047177
    25  H    3.062181   4.195224   3.737985   2.314341   4.688633
    26  H    2.775712   5.976836   4.743578   5.064722   6.599670
    27  H    3.396856   6.069966   5.288675   4.723566   6.913157
    28  H    3.895394   6.284758   5.285328   4.603529   6.447998
                   21         22         23         24         25
    21  H    0.000000
    22  H    1.741093   0.000000
    23  H    2.340566   2.540117   0.000000
    24  H    3.016376   2.342398   1.739480   0.000000
    25  H    2.758751   3.706394   2.742863   3.044770   0.000000
    26  H    4.646143   4.898204   2.726686   2.902147   3.045672
    27  H    4.824748   5.556654   3.602750   3.975173   2.446960
    28  H    3.848277   4.683664   2.363692   3.436384   2.462349
                   26         27         28
    26  H    0.000000
    27  H    1.777140   0.000000
    28  H    1.777719   1.760296   0.000000
 Stoichiometry    C9H16O3
 Framework group  C1[X(C9H16O3)]
 Deg. of freedom    78
 Full point group                 C1      NOp   1
 Largest Abelian subgroup         C1      NOp   1
 Largest concise Abelian subgroup C1      NOp   1
                         Standard orientation:                         
 ---------------------------------------------------------------------
 Center     Atomic      Atomic             Coordinates (Angstroms)
 Number     Number       Type             X           Y           Z
 ---------------------------------------------------------------------
      1          6           0       -3.262256   -0.819410    0.615637
      2          8           0       -2.332860   -0.415322   -0.380849
      3          6           0       -1.056809   -0.139855    0.188590
      4          6           0       -0.080277   -1.298878   -0.054079
      5          8           0       -0.375885   -2.313651   -0.690663
      6          6           0        1.285558   -1.154796    0.572851
      7          6           0        2.114115   -0.194375   -0.267671
      8          8           0        3.486821   -0.575500   -0.225787
      9          6           0        1.999328    1.263882    0.188367
     10          6           0        0.592432    1.738075    0.550497
     11          6           0       -0.509621    1.189771   -0.377964
     12          6           0       -1.625225    2.227391   -0.520974
     13          1           0       -4.223105   -1.021811    0.139957
     14          1           0       -3.396544   -0.011230    1.343413
     15          1           0       -2.908165   -1.722495    1.121665
     16          1           0       -1.157505   -0.050807    1.278475
     17          1           0        1.747982   -2.145666    0.633501
     18          1           0        1.169538   -0.810343    1.606960
     19          1           0        1.814487   -0.260785   -1.320951
     20          1           0        3.784207   -0.552702    0.699213
     21          1           0        2.393672    1.904656   -0.611262
     22          1           0        2.660298    1.443293    1.046284
     23          1           0        0.591935    2.834579    0.558028
     24          1           0        0.381809    1.449898    1.589676
     25          1           0       -0.105313    1.030051   -1.386406
     26          1           0       -2.101105    2.422863    0.444716
     27          1           0       -2.391942    1.885998   -1.224240
     28          1           0       -1.228338    3.169462   -0.912174
 ---------------------------------------------------------------------
 Rotational constants (GHZ):           1.3854493           0.7015426           0.5110958
 Standard basis: 6-31G(2df,p) (6D, 7F)
 There are   452 symmetry adapted cartesian basis functions of A   symmetry.
 There are   416 symmetry adapted basis functions of A   symmetry.
   416 basis functions,   640 primitive gaussians,   452 cartesian basis functions
    47 alpha electrons       47 beta electrons
       nuclear repulsion energy       781.2244956033 Hartrees.
 NAtoms=   28 NActive=   28 NUniq=   28 SFac= 1.00D+00 NAtFMM=   60 NAOKFM=F Big=F
 Integral buffers will be    131072 words long.
 Raffenetti 2 integral format.
 Two-electron integral symmetry is turned on.
 One-electron integrals computed using PRISM.
 PrsmSu:  requested number of processors reduced to:  13 ShMem   1 Linda.
 NBasis=   416 RedAO= T EigKep=  4.50D-04  NBF=   416
 NBsUse=   416 1.00D-06 EigRej= -1.00D+00 NBFU=   416
 ExpMin= 1.61D-01 ExpMax= 5.48D+03 ExpMxC= 8.25D+02 IAcc=3 IRadAn=         5 AccDes= 0.00D+00
 Harris functional with IExCor=  402 and IRadAn=       5 diagonalized for initial guess.
 HarFok:  IExCor=  402 AccDes= 0.00D+00 IRadAn=         5 IDoV= 1 UseB2=F ITyADJ=14
 ICtDFT=  3500011 ScaDFX=  1.000000  1.000000  1.000000  1.000000
 FoFCou: FMM=F IPFlag=           0 FMFlag=      100000 FMFlg1=           0
         NFxFlg=           0 DoJE=T BraDBF=F KetDBF=T FulRan=T
         wScrn=  0.000000 ICntrl=       500 IOpCl=  0 I1Cent=   200000004 NGrid=           0
         NMat0=    1 NMatS0=      1 NMatT0=    0 NMatD0=    1 NMtDS0=    0 NMtDT0=    0
 Petite list used in FoFCou.
 Requested convergence on RMS density matrix=1.00D-08 within 128 cycles.
 Requested convergence on MAX density matrix=1.00D-06.
 Requested convergence on             energy=1.00D-06.
 No special actions if energy rises.
 Integral accuracy reduced to 1.0D-05 until final iterations.
 Initial convergence to 1.0D-05 achieved.  Increase integral accuracy.
 SCF Done:  E(RB3LYP) =  -578.268263919     A.U. after   13 cycles
            NFock= 13  Conv=0.10D-07     -V/T= 2.0073

 **********************************************************************

            Population analysis using the SCF density.

 **********************************************************************

 Orbital symmetries:
       Occupied  (A) (A) (A) (A) (A) (A) (A) (A) (A) (A) (A) (A)
                 (A) (A) (A) (A) (A) (A) (A) (A) (A) (A) (A) (A)
                 (A) (A) (A) (A) (A) (A) (A) (A) (A) (A) (A) (A)
                 (A) (A) (A) (A) (A) (A) (A) (A) (A) (A) (A)
       Virtual   (A) (A) (A) (A) (A) (A) (A) (A) (A) (A) (A) (A)
                 (A) (A) (A) (A) (A) (A) (A) (A) (A) (A) (A) (A)
                 (A) (A) (A) (A) (A) (A) (A) (A) (A) (A) (A) (A)
                 (A) (A) (A) (A) (A) (A) (A) (A) (A) (A) (A) (A)
                 (A) (A) (A) (A) (A) (A) (A) (A) (A) (A) (A) (A)
                 (A) (A) (A) (A) (A) (A) (A) (A) (A) (A) (A) (A)
                 (A) (A) (A) (A) (A) (A) (A) (A) (A) (A) (A) (A)
                 (A) (A) (A) (A) (A) (A) (A) (A) (A) (A) (A) (A)
                 (A) (A) (A) (A) (A) (A) (A) (A) (A) (A) (A) (A)
                 (A) (A) (A) (A) (A) (A) (A) (A) (A) (A) (A) (A)
                 (A) (A) (A) (A) (A) (A) (A) (A) (A) (A) (A) (A)
                 (A) (A) (A) (A) (A) (A) (A) (A) (A) (A) (A) (A)
                 (A) (A) (A) (A) (A) (A) (A) (A) (A) (A) (A) (A)
                 (A) (A) (A) (A) (A) (A) (A) (A) (A) (A) (A) (A)
                 (A) (A) (A) (A) (A) (A) (A) (A) (A) (A) (A) (A)
                 (A) (A) (A) (A) (A) (A) (A) (A) (A) (A) (A) (A)
                 (A) (A) (A) (A) (A) (A) (A) (A) (A) (A) (A) (A)
                 (A) (A) (A) (A) (A) (A) (A) (A) (A) (A) (A) (A)
                 (A) (A) (A) (A) (A) (A) (A) (A) (A) (A) (A) (A)
                 (A) (A) (A) (A) (A) (A) (A) (A) (A) (A) (A) (A)
                 (A) (A) (A) (A) (A) (A) (A) (A) (A) (A) (A) (A)
                 (A) (A) (A) (A) (A) (A) (A) (A) (A) (A) (A) (A)
                 (A) (A) (A) (A) (A) (A) (A) (A) (A) (A) (A) (A)
                 (A) (A) (A) (A) (A) (A) (A) (A) (A) (A) (A) (A)
                 (A) (A) (A) (A) (A) (A) (A) (A) (A) (A) (A) (A)
                 (A) (A) (A) (A) (A) (A) (A) (A) (A) (A) (A) (A)
                 (A) (A) (A) (A) (A) (A) (A) (A) (A) (A) (A) (A)
                 (A) (A) (A) (A) (A) (A) (A) (A) (A) (A) (A) (A)
                 (A) (A) (A) (A) (A) (A) (A) (A) (A) (A) (A) (A)
                 (A) (A) (A) (A) (A) (A) (A) (A) (A) (A) (A) (A)
                 (A) (A) (A) (A) (A) (A) (A) (A) (A)
 The electronic state is 1-A.
 Alpha  occ. eigenvalues --  -19.14138 -19.13786 -19.12783 -10.26647 -10.24332
 Alpha  occ. eigenvalues --  -10.24231 -10.22606 -10.20051 -10.19125 -10.18963
 Alpha  occ. eigenvalues --  -10.18770 -10.17515  -1.03999  -1.02090  -1.01490
 Alpha  occ. eigenvalues --   -0.83764  -0.77957  -0.75693  -0.70799  -0.67898
 Alpha  occ. eigenvalues --   -0.64476  -0.61466  -0.57159  -0.55032  -0.50468
 Alpha  occ. eigenvalues --   -0.49679  -0.48462  -0.47970  -0.44775  -0.43891
 Alpha  occ. eigenvalues --   -0.43815  -0.43183  -0.41752  -0.40499  -0.39676
 Alpha  occ. eigenvalues --   -0.38865  -0.38173  -0.36944  -0.35383  -0.34282
 Alpha  occ. eigenvalues --   -0.33382  -0.32815  -0.31837  -0.31511  -0.27488
 Alpha  occ. eigenvalues --   -0.26436  -0.23242
 Alpha virt. eigenvalues --   -0.01966   0.06633   0.07331   0.08404   0.08888
 Alpha virt. eigenvalues --    0.11326   0.12395   0.12953   0.13266   0.14379
 Alpha virt. eigenvalues --    0.15040   0.15918   0.16429   0.17299   0.17873
 Alpha virt. eigenvalues --    0.19046   0.19412   0.20249   0.20823   0.22269
 Alpha virt. eigenvalues --    0.23717   0.24864   0.25526   0.26017   0.27937
 Alpha virt. eigenvalues --    0.28854   0.30291   0.34467   0.35315   0.43166
 Alpha virt. eigenvalues --    0.44616   0.45383   0.46708   0.47899   0.49145
 Alpha virt. eigenvalues --    0.49956   0.50442   0.51292   0.52550   0.53601
 Alpha virt. eigenvalues --    0.54765   0.55330   0.56078   0.57876   0.59248
 Alpha virt. eigenvalues --    0.59391   0.61203   0.62164   0.63559   0.65170
 Alpha virt. eigenvalues --    0.66868   0.67951   0.69231   0.69545   0.71349
 Alpha virt. eigenvalues --    0.71835   0.72367   0.72609   0.73168   0.73898
 Alpha virt. eigenvalues --    0.74268   0.74891   0.76065   0.76557   0.77035
 Alpha virt. eigenvalues --    0.78861   0.79022   0.80966   0.81947   0.82334
 Alpha virt. eigenvalues --    0.82829   0.84308   0.85400   0.86256   0.87093
 Alpha virt. eigenvalues --    0.88456   0.88998   0.90312   0.91247   0.92457
 Alpha virt. eigenvalues --    0.95995   0.96178   0.97695   0.98808   0.99668
 Alpha virt. eigenvalues --    1.00816   1.03073   1.04564   1.08569   1.11179
 Alpha virt. eigenvalues --    1.11731   1.11984   1.14428   1.15101   1.19144
 Alpha virt. eigenvalues --    1.20563   1.21658   1.23907   1.25241   1.26561
 Alpha virt. eigenvalues --    1.28222   1.30213   1.32416   1.34184   1.35071
 Alpha virt. eigenvalues --    1.36652   1.38142   1.39479   1.40625   1.41359
 Alpha virt. eigenvalues --    1.42722   1.44706   1.46067   1.47035   1.49488
 Alpha virt. eigenvalues --    1.51620   1.52589   1.53402   1.54331   1.55092
 Alpha virt. eigenvalues --    1.56577   1.59009   1.60033   1.61584   1.62255
 Alpha virt. eigenvalues --    1.64985   1.66070   1.67009   1.70263   1.71945
 Alpha virt. eigenvalues --    1.74326   1.74598   1.76270   1.76822   1.78958
 Alpha virt. eigenvalues --    1.80179   1.81957   1.84163   1.84808   1.88576
 Alpha virt. eigenvalues --    1.89430   1.91495   1.93218   1.94451   1.95863
 Alpha virt. eigenvalues --    1.96963   1.99078   1.99829   2.02934   2.04496
 Alpha virt. eigenvalues --    2.07302   2.16434   2.17472   2.18751   2.19750
 Alpha virt. eigenvalues --    2.20638   2.22741   2.26418   2.29994   2.32249
 Alpha virt. eigenvalues --    2.34125   2.35626   2.38055   2.38491   2.41141
 Alpha virt. eigenvalues --    2.42269   2.44033   2.44812   2.47787   2.49934
 Alpha virt. eigenvalues --    2.52829   2.54480   2.55427   2.57636   2.59809
 Alpha virt. eigenvalues --    2.65529   2.66780   2.68700   2.71629   2.73385
 Alpha virt. eigenvalues --    2.74649   2.76693   2.77551   2.79460   2.81159
 Alpha virt. eigenvalues --    2.82631   2.83974   2.85164   2.86290   2.87340
 Alpha virt. eigenvalues --    2.89745   2.90079   2.90889   2.92568   2.92703
 Alpha virt. eigenvalues --    2.93633   2.94785   2.95113   2.97308   2.97950
 Alpha virt. eigenvalues --    2.99593   3.04425   3.05157   3.08317   3.10215
 Alpha virt. eigenvalues --    3.10956   3.11617   3.14731   3.18690   3.19514
 Alpha virt. eigenvalues --    3.22135   3.22834   3.24942   3.26689   3.27933
 Alpha virt. eigenvalues --    3.30834   3.33215   3.34510   3.36717   3.38834
 Alpha virt. eigenvalues --    3.39515   3.41888   3.42721   3.45158   3.45481
 Alpha virt. eigenvalues --    3.48253   3.50292   3.51004   3.52433   3.54167
 Alpha virt. eigenvalues --    3.56424   3.60650   3.61825   3.63169   3.66586
 Alpha virt. eigenvalues --    3.67690   3.69070   3.69746   3.73386   3.74560
 Alpha virt. eigenvalues --    3.75726   3.78604   3.80675   3.81641   3.84762
 Alpha virt. eigenvalues --    3.86042   3.88153   3.89969   3.92896   3.95450
 Alpha virt. eigenvalues --    3.96462   4.01209   4.01625   4.06074   4.09760
 Alpha virt. eigenvalues --    4.12892   4.13970   4.16861   4.19923   4.21633
 Alpha virt. eigenvalues --    4.23361   4.27786   4.29705   4.32985   4.33336
 Alpha virt. eigenvalues --    4.35659   4.36334   4.38252   4.39982   4.41065
 Alpha virt. eigenvalues --    4.42108   4.44074   4.44682   4.46958   4.48353
 Alpha virt. eigenvalues --    4.50754   4.51316   4.52017   4.52898   4.54263
 Alpha virt. eigenvalues --    4.57016   4.58308   4.59893   4.61824   4.62502
 Alpha virt. eigenvalues --    4.64467   4.65617   4.66426   4.68095   4.69826
 Alpha virt. eigenvalues --    4.71238   4.72224   4.72989   4.74100   4.74651
 Alpha virt. eigenvalues --    4.75843   4.77587   4.78663   4.79725   4.80901
 Alpha virt. eigenvalues --    4.82111   4.84231   4.85618   4.86350   4.87728
 Alpha virt. eigenvalues --    4.88904   4.89482   4.90416   4.91034   4.94218
 Alpha virt. eigenvalues --    4.96382   4.98098   5.01706   5.02614   5.06128
 Alpha virt. eigenvalues --    5.08204   5.10041   5.11883   5.12406   5.19304
 Alpha virt. eigenvalues --    5.25765   5.29379   5.30465   5.32378   5.37043
 Alpha virt. eigenvalues --    5.39698   5.40124   5.41037   5.44184   5.44717
 Alpha virt. eigenvalues --    5.48967   5.49632   5.53975   5.54104   5.54949
 Alpha virt. eigenvalues --    5.59542   5.64469   5.67136   5.70227   5.71894
 Alpha virt. eigenvalues --    5.82636   5.90627   5.95483   5.98847   6.03854
 Alpha virt. eigenvalues --    6.05910   6.09302   6.13157   6.16097   6.23881
 Alpha virt. eigenvalues --    6.34833   6.42203   6.70343   6.85940   7.04934
 Alpha virt. eigenvalues --    7.15905   7.45522  11.09781  11.27841  11.51804
 Alpha virt. eigenvalues --   11.71901  11.98135  12.37938  12.56584  12.68559
 Alpha virt. eigenvalues --   13.03865  13.09824  13.36140  13.65459
          Condensed to atoms (all electrons):
               1          2          3          4          5          6
     1  C    4.841464   0.366524  -0.089548   0.003680   0.001786   0.000020
     2  O    0.366524   7.701245   0.331849  -0.016366  -0.002767   0.002674
     3  C   -0.089548   0.331849   5.029831   0.283692  -0.070645  -0.110698
     4  C    0.003680  -0.016366   0.283692   4.390628   0.793807   0.261502
     5  O    0.001786  -0.002767  -0.070645   0.793807   7.672607  -0.075723
     6  C    0.000020   0.002674  -0.110698   0.261502  -0.075723   5.359392
     7  C    0.000002   0.000013  -0.002009  -0.014954  -0.002531   0.379095
     8  O    0.000000   0.000000   0.000027   0.002555  -0.000022  -0.046443
     9  C   -0.000001  -0.000031  -0.001786   0.006132   0.000170  -0.043217
    10  C   -0.000216   0.001558  -0.009532  -0.005950   0.000159   0.005987
    11  C    0.004977  -0.038160   0.380016  -0.015742  -0.002569  -0.003134
    12  C    0.000833  -0.002589  -0.033163   0.000332  -0.000081   0.000118
    13  H    0.386995  -0.018342   0.003326   0.000120  -0.000008   0.000006
    14  H    0.366150  -0.034931  -0.007842  -0.000480   0.000039   0.000105
    15  H    0.370401  -0.033059   0.000778   0.001046   0.001692  -0.000361
    16  H   -0.011008  -0.032760   0.334783  -0.040535   0.001401   0.002568
    17  H   -0.000004  -0.000048   0.004437  -0.001549   0.001467   0.328765
    18  H   -0.000028   0.000043   0.002403  -0.012874   0.002770   0.321716
    19  H   -0.000002  -0.000017   0.001160   0.000114   0.001889  -0.061447
    20  H   -0.000000  -0.000000   0.000012   0.000327  -0.000000  -0.002589
    21  H    0.000000   0.000002   0.000272  -0.000178   0.000001   0.005581
    22  H   -0.000000   0.000000  -0.000093   0.000127  -0.000001  -0.006017
    23  H    0.000000  -0.000068   0.001558   0.000259   0.000000  -0.000166
    24  H   -0.000049   0.000180  -0.011631  -0.001774   0.000005   0.003082
    25  H   -0.000126  -0.000187  -0.037902  -0.004604   0.000858  -0.000369
    26  H   -0.000504  -0.000701  -0.004366   0.000157   0.000000  -0.000007
    27  H   -0.000276   0.011498  -0.005740   0.000086   0.000003  -0.000011
    28  H   -0.000006   0.000608   0.003635  -0.000017   0.000000  -0.000005
               7          8          9         10         11         12
     1  C    0.000002   0.000000  -0.000001  -0.000216   0.004977   0.000833
     2  O    0.000013   0.000000  -0.000031   0.001558  -0.038160  -0.002589
     3  C   -0.002009   0.000027  -0.001786  -0.009532   0.380016  -0.033163
     4  C   -0.014954   0.002555   0.006132  -0.005950  -0.015742   0.000332
     5  O   -0.002531  -0.000022   0.000170   0.000159  -0.002569  -0.000081
     6  C    0.379095  -0.046443  -0.043217   0.005987  -0.003134   0.000118
     7  C    4.580048   0.378652   0.382617  -0.023890  -0.003024  -0.000486
     8  O    0.378652   7.847237  -0.043910   0.003563  -0.000151  -0.000002
     9  C    0.382617  -0.043910   5.028334   0.305126  -0.020969   0.003127
    10  C   -0.023890   0.003563   0.305126   5.002682   0.379649  -0.036511
    11  C   -0.003024  -0.000151  -0.020969   0.379649   4.727600   0.383643
    12  C   -0.000486  -0.000002   0.003127  -0.036511   0.383643   5.045619
    13  H    0.000000   0.000000   0.000000   0.000001  -0.000232   0.000019
    14  H    0.000000   0.000000   0.000000  -0.000019   0.002267  -0.001254
    15  H    0.000002  -0.000000  -0.000001   0.000038  -0.000710   0.000174
    16  H    0.000176   0.000002   0.000004  -0.008050  -0.044093  -0.004070
    17  H   -0.018544  -0.000014   0.005805  -0.000333   0.000358   0.000007
    18  H   -0.026216   0.001059  -0.010899   0.000765  -0.001422  -0.000013
    19  H    0.362102  -0.012214  -0.046098   0.001194  -0.000299  -0.000060
    20  H   -0.074527   0.313017  -0.003691  -0.000119  -0.000012  -0.000000
    21  H   -0.024594   0.002349   0.360260  -0.029341  -0.003269   0.000037
    22  H   -0.027035  -0.002606   0.347403  -0.022667   0.003557  -0.000150
    23  H    0.003538  -0.000056  -0.019762   0.356397  -0.025636  -0.012739
    24  H   -0.004338   0.000037  -0.030503   0.357107  -0.035266   0.002173
    25  H   -0.000253   0.000071  -0.004088  -0.051228   0.363811  -0.040912
    26  H    0.000007   0.000000   0.000106  -0.004817  -0.026396   0.370254
    27  H    0.000010  -0.000000  -0.000184   0.004227  -0.016022   0.368321
    28  H    0.000032   0.000000   0.000096  -0.005065  -0.022201   0.366607
              13         14         15         16         17         18
     1  C    0.386995   0.366150   0.370401  -0.011008  -0.000004  -0.000028
     2  O   -0.018342  -0.034931  -0.033059  -0.032760  -0.000048   0.000043
     3  C    0.003326  -0.007842   0.000778   0.334783   0.004437   0.002403
     4  C    0.000120  -0.000480   0.001046  -0.040535  -0.001549  -0.012874
     5  O   -0.000008   0.000039   0.001692   0.001401   0.001467   0.002770
     6  C    0.000006   0.000105  -0.000361   0.002568   0.328765   0.321716
     7  C    0.000000   0.000000   0.000002   0.000176  -0.018544  -0.026216
     8  O    0.000000   0.000000  -0.000000   0.000002  -0.000014   0.001059
     9  C    0.000000   0.000000  -0.000001   0.000004   0.005805  -0.010899
    10  C    0.000001  -0.000019   0.000038  -0.008050  -0.000333   0.000765
    11  C   -0.000232   0.002267  -0.000710  -0.044093   0.000358  -0.001422
    12  C    0.000019  -0.001254   0.000174  -0.004070   0.000007  -0.000013
    13  H    0.567163  -0.035755  -0.033899  -0.000057  -0.000000   0.000000
    14  H   -0.035755   0.644448  -0.050083   0.011251  -0.000001  -0.000009
    15  H   -0.033899  -0.050083   0.624974   0.001998   0.000015  -0.000030
    16  H   -0.000057   0.011251   0.001998   0.687282  -0.000324   0.001357
    17  H   -0.000000  -0.000001   0.000015  -0.000324   0.586954  -0.037418
    18  H    0.000000  -0.000009  -0.000030   0.001357  -0.037418   0.647158
    19  H   -0.000000  -0.000000   0.000000   0.000028   0.000023   0.006637
    20  H   -0.000000  -0.000000   0.000000  -0.000001   0.000262   0.002132
    21  H    0.000000  -0.000000   0.000000   0.000000  -0.000155   0.000131
    22  H    0.000000  -0.000000   0.000000  -0.000038  -0.000206   0.003275
    23  H   -0.000000   0.000007  -0.000000   0.000374  -0.000004  -0.000074
    24  H    0.000001  -0.000016   0.000001   0.009233  -0.000005   0.001710
    25  H    0.000013   0.000012   0.000006   0.006778  -0.000043   0.000081
    26  H    0.000016   0.001500  -0.000000   0.003490  -0.000000  -0.000005
    27  H   -0.000015  -0.000027   0.000071   0.000320   0.000000  -0.000000
    28  H   -0.000001  -0.000044   0.000001  -0.000077  -0.000000  -0.000001
              19         20         21         22         23         24
     1  C   -0.000002  -0.000000   0.000000  -0.000000   0.000000  -0.000049
     2  O   -0.000017  -0.000000   0.000002   0.000000  -0.000068   0.000180
     3  C    0.001160   0.000012   0.000272  -0.000093   0.001558  -0.011631
     4  C    0.000114   0.000327  -0.000178   0.000127   0.000259  -0.001774
     5  O    0.001889  -0.000000   0.000001  -0.000001   0.000000   0.000005
     6  C   -0.061447  -0.002589   0.005581  -0.006017  -0.000166   0.003082
     7  C    0.362102  -0.074527  -0.024594  -0.027035   0.003538  -0.004338
     8  O   -0.012214   0.313017   0.002349  -0.002606  -0.000056   0.000037
     9  C   -0.046098  -0.003691   0.360260   0.347403  -0.019762  -0.030503
    10  C    0.001194  -0.000119  -0.029341  -0.022667   0.356397   0.357107
    11  C   -0.000299  -0.000012  -0.003269   0.003557  -0.025636  -0.035266
    12  C   -0.000060  -0.000000   0.000037  -0.000150  -0.012739   0.002173
    13  H   -0.000000  -0.000000   0.000000   0.000000  -0.000000   0.000001
    14  H   -0.000000  -0.000000  -0.000000  -0.000000   0.000007  -0.000016
    15  H    0.000000   0.000000   0.000000   0.000000  -0.000000   0.000001
    16  H    0.000028  -0.000001   0.000000  -0.000038   0.000374   0.009233
    17  H    0.000023   0.000262  -0.000155  -0.000206  -0.000004  -0.000005
    18  H    0.006637   0.002132   0.000131   0.003275  -0.000074   0.001710
    19  H    0.629349   0.007194  -0.007770   0.005912  -0.000183  -0.000187
    20  H    0.007194   0.472609  -0.000281   0.007359  -0.000007  -0.000002
    21  H   -0.007770  -0.000281   0.626575  -0.038524  -0.008664   0.006185
    22  H    0.005912   0.007359  -0.038524   0.652280   0.000662  -0.008949
    23  H   -0.000183  -0.000007  -0.008664   0.000662   0.634641  -0.038643
    24  H   -0.000187  -0.000002   0.006185  -0.008949  -0.038643   0.649848
    25  H    0.001605   0.000002   0.002102   0.000034   0.002330   0.005967
    26  H   -0.000000  -0.000000   0.000007   0.000002   0.001273   0.002087
    27  H    0.000003   0.000000  -0.000003   0.000003   0.000162  -0.000204
    28  H   -0.000009  -0.000000   0.000039  -0.000009   0.005045   0.000004
              25         26         27         28
     1  C   -0.000126  -0.000504  -0.000276  -0.000006
     2  O   -0.000187  -0.000701   0.011498   0.000608
     3  C   -0.037902  -0.004366  -0.005740   0.003635
     4  C   -0.004604   0.000157   0.000086  -0.000017
     5  O    0.000858   0.000000   0.000003   0.000000
     6  C   -0.000369  -0.000007  -0.000011  -0.000005
     7  C   -0.000253   0.000007   0.000010   0.000032
     8  O    0.000071   0.000000  -0.000000   0.000000
     9  C   -0.004088   0.000106  -0.000184   0.000096
    10  C   -0.051228  -0.004817   0.004227  -0.005065
    11  C    0.363811  -0.026396  -0.016022  -0.022201
    12  C   -0.040912   0.370254   0.368321   0.366607
    13  H    0.000013   0.000016  -0.000015  -0.000001
    14  H    0.000012   0.001500  -0.000027  -0.000044
    15  H    0.000006  -0.000000   0.000071   0.000001
    16  H    0.006778   0.003490   0.000320  -0.000077
    17  H   -0.000043  -0.000000   0.000000  -0.000000
    18  H    0.000081  -0.000005  -0.000000  -0.000001
    19  H    0.001605  -0.000000   0.000003  -0.000009
    20  H    0.000002  -0.000000   0.000000  -0.000000
    21  H    0.002102   0.000007  -0.000003   0.000039
    22  H    0.000034   0.000002   0.000003  -0.000009
    23  H    0.002330   0.001273   0.000162   0.005045
    24  H    0.005967   0.002087  -0.000204   0.000004
    25  H    0.664714   0.006051  -0.002742  -0.002586
    26  H    0.006051   0.606052  -0.030041  -0.032543
    27  H   -0.002742  -0.030041   0.566515  -0.031369
    28  H   -0.002586  -0.032543  -0.031369   0.608909
 Mulliken charges:
               1
     1  C   -0.241065
     2  O   -0.236169
     3  C    0.007178
     4  C    0.370460
     5  O   -0.324308
     6  C   -0.320425
     7  C    0.136107
     8  O   -0.443151
     9  C   -0.214039
    10  C   -0.220716
    11  C    0.013427
    12  C   -0.409233
    13  H    0.130650
    14  H    0.104682
    15  H    0.116945
    16  H    0.079969
    17  H    0.130555
    18  H    0.097752
    19  H    0.111078
    20  H    0.278316
    21  H    0.109238
    22  H    0.085683
    23  H    0.099756
    24  H    0.093949
    25  H    0.090605
    26  H    0.108379
    27  H    0.135416
    28  H    0.108957
 Sum of Mulliken charges =  -0.00000
 Mulliken charges with hydrogens summed into heavy atoms:
               1
     1  C    0.111213
     2  O   -0.236169
     3  C    0.087147
     4  C    0.370460
     5  O   -0.324308
     6  C   -0.092118
     7  C    0.247186
     8  O   -0.164835
     9  C   -0.019117
    10  C   -0.027010
    11  C    0.104033
    12  C   -0.056480
 Electronic spatial extent (au):  <R**2>=           2286.5758
 Charge=             -0.0000 electrons
 Dipole moment (field-independent basis, Debye):
    X=              0.0195    Y=              2.7314    Z=              3.4583  Tot=              4.4069
 Quadrupole moment (field-independent basis, Debye-Ang):
   XX=            -73.4207   YY=            -78.8767   ZZ=            -71.2540
   XY=              0.7417   XZ=              1.9022   YZ=             -5.2765
 Traceless Quadrupole moment (field-independent basis, Debye-Ang):
   XX=              1.0964   YY=             -4.3596   ZZ=              3.2631
   XY=              0.7417   XZ=              1.9022   YZ=             -5.2765
 Octapole moment (field-independent basis, Debye-Ang**2):
  XXX=            -25.8732  YYY=              6.4345  ZZZ=             -4.2463  XYY=              4.5131
  XXY=             -6.3977  XXZ=             28.0858  XZZ=              6.4281  YZZ=             -2.3288
  YYZ=              6.7553  XYZ=             -0.9222
 Hexadecapole moment (field-independent basis, Debye-Ang**3):
 XXXX=          -1724.9910 YYYY=           -951.5270 ZZZZ=           -218.6559 XXXY=             36.3580
 XXXZ=             78.2542 YYYX=             -1.7809 YYYZ=            -18.4011 ZZZX=              3.9738
 ZZZY=              4.3791 XXYY=           -446.7924 XXZZ=           -317.4126 YYZZ=           -192.4932
 XXYZ=            -16.2356 YYXZ=             -1.4668 ZZXY=             -4.0361
 N-N= 7.812244956033D+02 E-N=-2.911338288277D+03  KE= 5.740603043179D+02
 PrsmSu:  requested number of processors reduced to:  13 ShMem   1 Linda.
 Calling FoFJK, ICntrl=      2127 FMM=F ISym2X=0 I1Cent= 0 IOpClX= 0 NMat=1 NMatS=1 NMatT=0.
 ***** Axes restored to original set *****
 -------------------------------------------------------------------
 Center     Atomic                   Forces (Hartrees/Bohr)
 Number     Number              X              Y              Z
 -------------------------------------------------------------------
      1        6           0.008275770   -0.000533179   -0.001183399
      2        8          -0.003190417   -0.002154199    0.008313575
      3        6           0.003028272   -0.003908786   -0.020291295
      4        6          -0.012189695   -0.036116306   -0.025002742
      5        8          -0.000097889    0.033585612    0.021818706
      6        6          -0.014318178   -0.004466835   -0.004126246
      7        6           0.008874539    0.000481142    0.023077663
      8        8           0.004628820   -0.003823681    0.002164546
      9        6           0.006703362    0.009128513   -0.000206289
     10        6           0.000762864   -0.001976957    0.005147808
     11        6          -0.000673168    0.012890881    0.002996598
     12        6          -0.000907270    0.000319964   -0.009017837
     13        1           0.002210007   -0.001049809   -0.001436086
     14        1          -0.004443625    0.000615559    0.001355205
     15        1          -0.004044335   -0.001501280   -0.000027569
     16        1           0.000043855    0.003264566    0.001894743
     17        1           0.005840281    0.001862624   -0.004394837
     18        1           0.002500238    0.003267881    0.002999800
     19        1           0.000226935   -0.004817685    0.003211432
     20        1           0.002906783    0.001727826   -0.008479888
     21        1           0.000320992   -0.002625556   -0.000068915
     22        1          -0.000870834   -0.004022211    0.000232142
     23        1           0.000142680   -0.000892617   -0.002885078
     24        1          -0.000961447    0.001328596   -0.002910287
     25        1          -0.001449461   -0.002324655    0.001240355
     26        1          -0.000651401    0.001990504   -0.000099576
     27        1          -0.002439764    0.000005893    0.002818597
     28        1          -0.000227916   -0.000255803    0.002858874
 -------------------------------------------------------------------
 Cartesian Forces:  Max     0.036116306 RMS     0.008399572

 GradGradGradGradGradGradGradGradGradGradGradGradGradGradGradGradGradGrad
 Berny optimization.
 FormGI is forming the generalized inverse of G from B-inverse, IUseBI=4.
 Internal  Forces:  Max     0.039573462 RMS     0.004698868
 Search for a local minimum.
 Step number   1 out of a maximum of  166
 All quantities printed in internal units (Hartrees-Bohrs-Radians)
 Mixed Optimization -- RFO/linear search
 Second derivative matrix not updated -- first step.
 ITU=  0
     Eigenvalues ---    0.00355   0.00366   0.00464   0.00704   0.00728
     Eigenvalues ---    0.01304   0.01358   0.01371   0.01410   0.02168
     Eigenvalues ---    0.02353   0.03629   0.03970   0.04310   0.04632
     Eigenvalues ---    0.04701   0.04791   0.04863   0.05031   0.05508
     Eigenvalues ---    0.05532   0.05594   0.06177   0.06447   0.07159
     Eigenvalues ---    0.07472   0.08222   0.08592   0.08911   0.09048
     Eigenvalues ---    0.09257   0.09804   0.10265   0.10460   0.12846
     Eigenvalues ---    0.14814   0.15380   0.16000   0.16000   0.16000
     Eigenvalues ---    0.16000   0.16000   0.16000   0.16000   0.17380
     Eigenvalues ---    0.18156   0.19343   0.21228   0.24984   0.25000
     Eigenvalues ---    0.26970   0.27191   0.28268   0.29027   0.29183
     Eigenvalues ---    0.29400   0.29705   0.30822   0.33818   0.33888
     Eigenvalues ---    0.33888   0.33909   0.33930   0.34007   0.34069
     Eigenvalues ---    0.34114   0.34147   0.34225   0.34243   0.34291
     Eigenvalues ---    0.34334   0.34345   0.34687   0.41680   0.41829
     Eigenvalues ---    0.42268   0.52991   0.89501
 RFO step:  Lambda=-1.43955679D-02 EMin= 3.55216686D-03
 Linear search not attempted -- first point.
 Iteration  1 RMS(Cart)=  0.08967230 RMS(Int)=  0.00292774
 Iteration  2 RMS(Cart)=  0.00447018 RMS(Int)=  0.00047108
 Iteration  3 RMS(Cart)=  0.00000918 RMS(Int)=  0.00047101
 Iteration  4 RMS(Cart)=  0.00000000 RMS(Int)=  0.00047101
 Variable       Old X    -DE/DX   Delta X   Delta X   Delta X     New X
                                 (Linear)    (Quad)   (Total)
    R1        2.68584  -0.00193   0.00000  -0.00442  -0.00442   2.68141
    R2        2.06186   0.00061   0.00000   0.00169   0.00169   2.06355
    R3        2.07082   0.00276   0.00000   0.00775   0.00775   2.07857
    R4        2.06751   0.00263   0.00000   0.00734   0.00734   2.07485
    R5        2.69142  -0.00644   0.00000  -0.01488  -0.01488   2.67654
    R6        2.90049   0.00060   0.00000   0.00472   0.00461   2.90510
    R7        2.92041   0.00695   0.00000   0.02426   0.02372   2.94413
    R8        2.07519   0.00176   0.00000   0.00499   0.00499   2.08019
    R9        2.33164  -0.03957   0.00000  -0.04352  -0.04352   2.28812
   R10        2.85299   0.00983   0.00000   0.03124   0.03131   2.88430
   R11        2.87549   0.01447   0.00000   0.04597   0.04652   2.92201
   R12        2.06952  -0.00264   0.00000  -0.00740  -0.00740   2.06212
   R13        2.07138   0.00158   0.00000   0.00443   0.00443   2.07581
   R14        2.69333   0.00110   0.00000   0.00255   0.00255   2.69588
   R15        2.89545   0.00481   0.00000   0.01364   0.01389   2.90935
   R16        2.07318  -0.00247   0.00000  -0.00697  -0.00697   2.06621
   R17        1.83662  -0.00885   0.00000  -0.01626  -0.01626   1.82036
   R18        2.88785   0.01152   0.00000   0.03465   0.03449   2.92234
   R19        2.07483  -0.00072   0.00000  -0.00205  -0.00205   2.07279
   R20        2.07448   0.00023   0.00000   0.00064   0.00064   2.07511
   R21        2.91361   0.00572   0.00000   0.01876   0.01869   2.93230
   R22        2.07214  -0.00132   0.00000  -0.00371  -0.00371   2.06843
   R23        2.07638  -0.00073   0.00000  -0.00207  -0.00207   2.07431
   R24        2.89176   0.00430   0.00000   0.01396   0.01396   2.90572
   R25        2.07520  -0.00101   0.00000  -0.00285  -0.00285   2.07235
   R26        2.06770   0.00126   0.00000   0.00352   0.00352   2.07122
   R27        2.06922  -0.00259   0.00000  -0.00726  -0.00726   2.06195
   R28        2.06841   0.00009   0.00000   0.00026   0.00026   2.06867
    A1        1.89963  -0.00602   0.00000  -0.03736  -0.03723   1.86240
    A2        1.91356   0.00609   0.00000   0.03776   0.03750   1.95105
    A3        1.92551   0.00454   0.00000   0.02610   0.02577   1.95129
    A4        1.89487   0.00003   0.00000   0.00016   0.00036   1.89523
    A5        1.91084  -0.00172   0.00000  -0.01544  -0.01538   1.89547
    A6        1.91904  -0.00304   0.00000  -0.01197  -0.01260   1.90644
    A7        1.93965   0.01524   0.00000   0.05762   0.05762   1.99727
    A8        1.93989  -0.00404   0.00000  -0.03107  -0.03093   1.90896
    A9        1.91459   0.00389   0.00000   0.01285   0.01379   1.92839
   A10        1.90746   0.00170   0.00000   0.01739   0.01716   1.92463
   A11        1.94599   0.00154   0.00000   0.02215   0.02101   1.96700
   A12        1.85093   0.00001   0.00000  -0.00312  -0.00253   1.84841
   A13        1.90344  -0.00326   0.00000  -0.01865  -0.01873   1.88472
   A14        2.15339  -0.00714   0.00000  -0.03894  -0.03976   2.11363
   A15        2.02402   0.00073   0.00000   0.02875   0.02743   2.05146
   A16        2.10538   0.00647   0.00000   0.01243   0.01143   2.11680
   A17        1.90019   0.00699   0.00000   0.04477   0.04454   1.94473
   A18        1.89510  -0.00127   0.00000  -0.01791  -0.01713   1.87798
   A19        1.90286  -0.00063   0.00000   0.01642   0.01685   1.91971
   A20        1.95169  -0.00483   0.00000  -0.04564  -0.04570   1.90598
   A21        1.96104  -0.00457   0.00000  -0.02934  -0.02985   1.93119
   A22        1.85123   0.00426   0.00000   0.03187   0.03113   1.88236
   A23        1.91710   0.00513   0.00000   0.04577   0.04471   1.96182
   A24        1.97742  -0.00386   0.00000  -0.00021  -0.00141   1.97601
   A25        1.92133  -0.00171   0.00000  -0.03317  -0.03293   1.88840
   A26        1.89432   0.00392   0.00000   0.03884   0.03751   1.93183
   A27        1.84946  -0.00467   0.00000  -0.05308  -0.05225   1.79721
   A28        1.89959   0.00116   0.00000  -0.00121  -0.00119   1.89840
   A29        1.89273  -0.00399   0.00000  -0.02287  -0.02287   1.86986
   A30        2.02064  -0.00028   0.00000   0.00792   0.00766   2.02830
   A31        1.88785  -0.00186   0.00000  -0.00926  -0.00935   1.87850
   A32        1.92095  -0.00201   0.00000  -0.03512  -0.03515   1.88580
   A33        1.89879   0.00213   0.00000   0.02141   0.02146   1.92025
   A34        1.89485   0.00143   0.00000   0.00567   0.00561   1.90046
   A35        1.83126   0.00072   0.00000   0.01041   0.00999   1.84125
   A36        1.98777   0.00539   0.00000   0.03704   0.03714   2.02492
   A37        1.88845  -0.00084   0.00000  -0.00242  -0.00174   1.88671
   A38        1.89569   0.00053   0.00000   0.01480   0.01463   1.91032
   A39        1.93845  -0.00253   0.00000  -0.03059  -0.03084   1.90761
   A40        1.91691  -0.00406   0.00000  -0.02209  -0.02271   1.89420
   A41        1.82935   0.00127   0.00000   0.00140   0.00089   1.83024
   A42        1.91589   0.00033   0.00000   0.02392   0.02284   1.93873
   A43        1.93855  -0.00206   0.00000  -0.00835  -0.00817   1.93038
   A44        1.91971  -0.00091   0.00000  -0.03127  -0.03117   1.88855
   A45        1.91371   0.00371   0.00000   0.02218   0.02224   1.93595
   A46        1.91937  -0.00250   0.00000  -0.02429  -0.02393   1.89543
   A47        1.85585   0.00144   0.00000   0.01696   0.01675   1.87260
   A48        1.93449   0.00200   0.00000   0.00733   0.00730   1.94179
   A49        1.93809   0.00074   0.00000   0.00802   0.00802   1.94611
   A50        1.93121  -0.00261   0.00000  -0.01465  -0.01465   1.91656
   A51        1.89442  -0.00156   0.00000  -0.00952  -0.00954   1.88488
   A52        1.89587  -0.00076   0.00000  -0.01158  -0.01161   1.88426
   A53        1.86784   0.00216   0.00000   0.02042   0.02046   1.88829
    D1       -3.13999   0.00090   0.00000   0.00384   0.00373  -3.13626
    D2        1.07289   0.00088   0.00000   0.00377   0.00442   1.07730
    D3       -1.04306  -0.00221   0.00000  -0.02262  -0.02315  -1.06621
    D4        1.78171  -0.00392   0.00000  -0.11003  -0.10955   1.67216
    D5       -2.34132  -0.00200   0.00000  -0.09416  -0.09469  -2.43601
    D6       -0.25525  -0.00259   0.00000  -0.09858  -0.09853  -0.35378
    D7        0.02803   0.00145   0.00000   0.03267   0.03163   0.05966
    D8       -3.08339  -0.00085   0.00000  -0.05270  -0.05264  -3.13603
    D9       -2.11412  -0.00177   0.00000   0.02258   0.02146  -2.09266
   D10        1.05765  -0.00407   0.00000  -0.06279  -0.06281   0.99483
   D11        2.09931   0.00131   0.00000   0.03491   0.03424   2.13355
   D12       -1.01211  -0.00098   0.00000  -0.05046  -0.05004  -1.06214
   D13        2.80388   0.00528   0.00000   0.09594   0.09585   2.89973
   D14        0.68459   0.00175   0.00000   0.05749   0.05745   0.74204
   D15       -1.36516   0.00180   0.00000   0.06114   0.06074  -1.30442
   D16       -1.32273   0.00395   0.00000   0.08066   0.08076  -1.24197
   D17        2.84116   0.00042   0.00000   0.04221   0.04236   2.88352
   D18        0.79142   0.00047   0.00000   0.04587   0.04565   0.83706
   D19        0.71535   0.00285   0.00000   0.07833   0.07816   0.79351
   D20       -1.40394  -0.00068   0.00000   0.03988   0.03976  -1.36418
   D21        2.82950  -0.00063   0.00000   0.04354   0.04305   2.87255
   D22       -1.35220   0.00068   0.00000   0.02661   0.02690  -1.32530
   D23        2.80230   0.00310   0.00000   0.06598   0.06673   2.86903
   D24        0.79277  -0.00093   0.00000   0.02912   0.03014   0.82291
   D25        1.81868  -0.00130   0.00000  -0.05526  -0.05659   1.76209
   D26       -0.31001   0.00112   0.00000  -0.01590  -0.01676  -0.32677
   D27       -2.31954  -0.00291   0.00000  -0.05275  -0.05334  -2.37288
   D28       -2.56926   0.00219   0.00000   0.02933   0.02962  -2.53964
   D29        1.59233  -0.00393   0.00000  -0.05383  -0.05384   1.53848
   D30       -0.53918  -0.00146   0.00000  -0.02763  -0.02782  -0.56700
   D31       -0.47527   0.00220   0.00000   0.00799   0.00782  -0.46745
   D32       -2.59687  -0.00392   0.00000  -0.07517  -0.07564  -2.67251
   D33        1.55481  -0.00145   0.00000  -0.04897  -0.04962   1.50519
   D34        1.60429   0.00116   0.00000  -0.00304  -0.00238   1.60191
   D35       -0.51731  -0.00497   0.00000  -0.08619  -0.08585  -0.60316
   D36       -2.64882  -0.00249   0.00000  -0.06000  -0.05982  -2.70864
   D37       -1.04000  -0.00137   0.00000  -0.04534  -0.04657  -1.08657
   D38        1.13059  -0.00023   0.00000   0.01018   0.01151   1.14210
   D39       -3.11484   0.00062   0.00000   0.00019   0.00009  -3.11476
   D40       -0.74440   0.00418   0.00000   0.05969   0.05983  -0.68458
   D41       -2.87963   0.00303   0.00000   0.03337   0.03360  -2.84603
   D42        1.41208   0.00425   0.00000   0.04446   0.04450   1.45658
   D43       -2.87873  -0.00262   0.00000  -0.02667  -0.02674  -2.90547
   D44        1.26923  -0.00377   0.00000  -0.05299  -0.05297   1.21626
   D45       -0.72225  -0.00256   0.00000  -0.04190  -0.04207  -0.76431
   D46        1.39917   0.00020   0.00000   0.01602   0.01605   1.41523
   D47       -0.73605  -0.00095   0.00000  -0.01030  -0.01018  -0.74623
   D48       -2.72753   0.00026   0.00000   0.00079   0.00073  -2.72680
   D49       -0.67996   0.00069   0.00000  -0.02498  -0.02518  -0.70514
   D50       -2.84447   0.00086   0.00000  -0.00927  -0.00958  -2.85405
   D51        1.46212  -0.00046   0.00000  -0.01712  -0.01714   1.44498
   D52        1.44946  -0.00028   0.00000  -0.01484  -0.01488   1.43458
   D53       -0.71505  -0.00011   0.00000   0.00087   0.00072  -0.71434
   D54       -2.69165  -0.00143   0.00000  -0.00697  -0.00684  -2.69849
   D55       -2.85003   0.00241   0.00000   0.01138   0.01143  -2.83860
   D56        1.26865   0.00258   0.00000   0.02709   0.02703   1.29567
   D57       -0.70795   0.00126   0.00000   0.01924   0.01947  -0.68848
   D58        1.58110  -0.00098   0.00000  -0.02934  -0.03023   1.55087
   D59       -2.56796  -0.00092   0.00000  -0.00977  -0.00986  -2.57781
   D60       -0.53325   0.00154   0.00000   0.00966   0.00922  -0.52403
   D61       -2.56479  -0.00006   0.00000  -0.02874  -0.02958  -2.59437
   D62       -0.43067   0.00000   0.00000  -0.00917  -0.00920  -0.43987
   D63        1.60404   0.00247   0.00000   0.01026   0.00987   1.61391
   D64       -0.54932  -0.00242   0.00000  -0.05808  -0.05833  -0.60765
   D65        1.58481  -0.00236   0.00000  -0.03851  -0.03795   1.54685
   D66       -2.66367   0.00011   0.00000  -0.01908  -0.01888  -2.68255
   D67        1.02630   0.00158   0.00000   0.04037   0.04011   1.06642
   D68       -1.08087   0.00170   0.00000   0.04208   0.04181  -1.03905
   D69        3.13070   0.00021   0.00000   0.02091   0.02067  -3.13181
   D70       -1.09426   0.00003   0.00000   0.00092   0.00139  -1.09287
   D71        3.08175   0.00015   0.00000   0.00263   0.00309   3.08485
   D72        1.01014  -0.00134   0.00000  -0.01854  -0.01805   0.99209
   D73        3.11457   0.00021   0.00000   0.00832   0.00809   3.12267
   D74        1.00740   0.00033   0.00000   0.01003   0.00979   1.01720
   D75       -1.06421  -0.00116   0.00000  -0.01115  -0.01135  -1.07556
         Item               Value     Threshold  Converged?
 Maximum Force            0.039573     0.000450     NO 
 RMS     Force            0.004699     0.000300     NO 
 Maximum Displacement     0.280010     0.001800     NO 
 RMS     Displacement     0.089341     0.001200     NO 
 Predicted change in Energy=-8.592518D-03
 GradGradGradGradGradGradGradGradGradGradGradGradGradGradGradGradGradGrad

                          Input orientation:                          
 ---------------------------------------------------------------------
 Center     Atomic      Atomic             Coordinates (Angstroms)
 Number     Number       Type             X           Y           Z
 ---------------------------------------------------------------------
      1          6           0        0.949710   -0.114228   -0.041983
      2          8           0        2.356761    0.013862    0.089164
      3          6           0        2.826953   -0.027981    1.424548
      4          6           0        3.273170   -1.459524    1.763521
      5          8           0        3.253274   -2.335325    0.927657
      6          6           0        3.809147   -1.717470    3.169156
      7          6           0        5.248759   -1.177367    3.332652
      8          8           0        6.040322   -1.991908    4.195861
      9          6           0        5.297454    0.295309    3.778859
     10          6           0        4.244709    1.235608    3.147173
     11          6           0        3.959131    1.020935    1.637155
     12          6           0        3.601136    2.349955    0.951674
     13          1           0        0.728814   -0.071275   -1.110526
     14          1           0        0.416523    0.706759    0.459559
     15          1           0        0.589125   -1.073572    0.351925
     16          1           0        2.010135    0.207018    2.124059
     17          1           0        3.810456   -2.796946    3.328846
     18          1           0        3.139616   -1.267585    3.914789
     19          1           0        5.759741   -1.270544    2.370510
     20          1           0        5.624824   -1.971989    5.064709
     21          1           0        6.307456    0.671140    3.574472
     22          1           0        5.189387    0.323561    4.871267
     23          1           0        4.569230    2.268086    3.310732
     24          1           0        3.298830    1.147259    3.697085
     25          1           0        4.870742    0.642768    1.159063
     26          1           0        2.682739    2.777893    1.369671
     27          1           0        3.454174    2.219542   -0.121628
     28          1           0        4.408934    3.073589    1.100571
 ---------------------------------------------------------------------
                    Distance matrix (angstroms):
                    1          2          3          4          5
     1  C    0.000000
     2  O    1.418943   0.000000
     3  C    2.383736   1.416363   0.000000
     4  C    3.235450   2.411254   1.537312   0.000000
     5  O    3.343634   2.650563   2.398435   1.210823   0.000000
     6  C    4.588920   3.820116   2.619682   1.526308   2.390618
     7  C    5.567787   4.505873   3.290455   2.538648   3.332691
     8  O    6.884717   5.869982   4.675780   3.722477   4.308912
     9  C    5.802537   4.726599   3.427925   3.352425   4.385004
    10  C    4.780146   3.795844   2.564005   3.181528   4.319810
    11  C    3.628321   2.445008   1.557964   2.576663   3.502300
    12  C    3.753614   2.783833   2.545103   3.908809   4.698238
    13  H    1.091981   2.024034   3.290997   4.081805   3.956389
    14  H    1.099933   2.093281   2.698374   3.814909   4.185756
    15  H    1.097965   2.091912   2.692890   3.057068   3.003528
    16  H    2.432990   2.073224   1.100787   2.121935   3.072504
    17  H    5.171396   4.528732   3.501542   2.127819   2.507838
    18  H    4.667115   4.109790   2.799227   2.163938   3.174263
    19  H    5.503961   4.293543   3.322657   2.566551   3.081876
    20  H    7.168422   6.275340   4.985782   4.085430   4.782412
    21  H    6.511605   5.309179   4.150282   4.126277   5.037111
    22  H    6.504348   5.566704   4.193393   4.063171   5.135198
    23  H    5.478782   4.511657   3.444581   4.238952   5.348101
    24  H    4.592422   3.897329   2.601591   3.245711   4.449741
    25  H    4.170137   2.803624   2.167362   2.708733   3.396879
    26  H    3.655204   3.063630   2.810113   4.296444   5.163903
    27  H    3.424203   2.472605   2.799183   4.137884   4.678480
    28  H    4.840851   3.820509   3.496764   4.720019   5.533697
                    6          7          8          9         10
     6  C    0.000000
     7  C    1.546262   0.000000
     8  O    2.471352   1.426597   0.000000
     9  C    2.576446   1.539560   2.440718   0.000000
    10  C    2.985108   2.620108   3.839379   1.546435   0.000000
    11  C    3.141399   3.061108   4.467164   2.627649   1.551707
    12  C    4.637288   4.563520   5.943580   3.884847   2.544832
    13  H    5.523955   6.433908   7.749754   6.701711   5.674280
    14  H    4.972796   5.929174   7.271167   5.916970   4.707224
    15  H    4.326654   5.532422   6.733107   5.982146   5.148691
    16  H    2.834136   3.723695   5.036868   3.681389   2.664222
    17  H    1.091225   2.166049   2.524303   3.460595   4.059935
    18  H    1.098471   2.189865   3.002956   2.667842   2.841908
    19  H    2.154621   1.093390   1.982673   2.156166   3.029740
    20  H    2.637155   1.942388   0.963293   2.627018   3.983759
    21  H    3.480127   2.143897   2.747600   1.096872   2.180856
    22  H    2.994670   2.150266   2.557666   1.098103   2.167198
    23  H    4.059856   3.511892   4.592942   2.154368   1.094567
    24  H    2.957331   3.055964   4.197490   2.174167   1.097678
    25  H    3.276916   2.860118   4.187072   2.676965   2.167016
    26  H    4.971442   5.107038   6.481644   4.336375   2.824519
    27  H    5.143475   5.166389   6.562406   4.723786   3.504016
    28  H    5.252907   4.874230   6.156419   3.959991   2.755671
                   11         12         13         14         15
    11  C    0.000000
    12  C    1.537640   0.000000
    13  H    4.379225   4.285471   0.000000
    14  H    3.746399   3.617186   1.779896   0.000000
    15  H    4.170817   4.599180   1.778448   1.791914   0.000000
    16  H    2.167515   2.915124   3.490239   2.357944   2.607612
    17  H    4.178534   5.673213   6.052588   5.659288   4.712648
    18  H    3.331148   4.698898   5.700606   4.822020   4.385960
    19  H    3.005143   4.447548   6.234267   6.009280   5.554166
    20  H    4.845643   6.300124   8.106612   7.450470   6.955268
    21  H    3.064342   4.125731   7.322679   6.663861   6.791770
    22  H    3.529779   4.689565   7.472245   6.510778   6.598397
    23  H    2.174504   2.551286   6.306261   5.273699   5.980172
    24  H    2.166856   3.012498   5.585958   4.356984   4.844036
    25  H    1.096639   2.137615   4.776657   4.509264   4.682898
    26  H    2.188064   1.096041   4.252876   3.202129   4.500312
    27  H    2.187454   1.091139   3.695044   3.442908   4.390600
    28  H    2.168786   1.094694   5.321880   4.685310   5.687738
                   16         17         18         19         20
    16  H    0.000000
    17  H    3.703575   0.000000
    18  H    2.580096   1.769831   0.000000
    19  H    4.037756   2.654811   3.041358   0.000000
    20  H    5.144071   2.643049   2.827501   2.787281   0.000000
    21  H    4.559175   4.280533   3.729568   2.349394   3.110132
    22  H    4.203377   3.744072   2.765530   3.019976   2.344477
    23  H    3.493589   5.121584   3.861302   3.850096   4.708392
    24  H    2.240356   3.994260   2.429858   3.696167   4.124360
    25  H    3.050273   4.202832   3.773628   2.432835   4.760217
    26  H    2.762407   6.015725   4.801276   5.182612   6.698549
    27  H    3.343443   6.099005   5.343375   4.868993   7.012756
    28  H    3.875434   6.307660   5.326986   4.723232   6.530745
                   21         22         23         24         25
    21  H    0.000000
    22  H    1.747160   0.000000
    23  H    2.375127   2.569250   0.000000
    24  H    3.048534   2.373054   1.737654   0.000000
    25  H    2.810544   3.739503   2.713347   3.027701   0.000000
    26  H    4.736891   4.956633   2.754355   2.907816   3.064388
    27  H    4.919342   5.615577   3.609266   3.969445   2.476500
    28  H    3.936539   4.731797   2.357825   3.418328   2.474991
                   26         27         28
    26  H    0.000000
    27  H    1.769418   0.000000
    28  H    1.771892   1.770518   0.000000
 Stoichiometry    C9H16O3
 Framework group  C1[X(C9H16O3)]
 Deg. of freedom    78
 Full point group                 C1      NOp   1
 Largest Abelian subgroup         C1      NOp   1
 Largest concise Abelian subgroup C1      NOp   1
                         Standard orientation:                         
 ---------------------------------------------------------------------
 Center     Atomic      Atomic             Coordinates (Angstroms)
 Number     Number       Type             X           Y           Z
[...]
 000615,0.00000450,0.00000171,0.00005597,-0.00002076,-0.00007177,-0.000
 54826,-0.00018664,0.00000556,-0.00015931,0.00001836,0.00002001,-0.0008
 3133,0.00035522,0.00094340,0.00024924,-0.00060920,0.00012662,-0.089685
 55,-0.02219593,0.08309359,0.00009207,0.00003450,-0.00001561,-0.0001972
 0,-0.00015300,-0.00005218,0.00040646,0.00014196,0.00001792,0.00001743,
 0.00029458,-0.00012100,0.00000871,-0.00012155,0.00008515,0.00085952,-0
 .00047934,-0.00009965,-0.00087642,-0.00012288,-0.00712307,-0.00032389,
 0.00152013,-0.00012276,-0.04520068,-0.00483760,-0.00737578,-0.00432413
 ,-0.00092366,-0.02517561,-0.00195087,0.00410204,0.00004822,-0.00033871
 ,-0.00049766,-0.00129083,-0.00001880,-0.00000166,-0.00000862,-0.000015
 58,0.00000137,0.00000504,-0.00001645,-0.00002070,-0.00000010,-0.000048
 98,0.00001556,0.00000588,-0.00027520,-0.00001451,0.00020754,-0.0001665
 4,0.00008561,0.00024318,0.00036282,-0.00021194,-0.00025623,0.00066768,
 0.00009452,0.00024139,0.00094907,0.00280606,0.02977787,0.04903949,-0.0
 0011881,-0.00006008,0.00002401,0.00029487,0.00026904,0.00009729,-0.000
 17188,-0.00034023,0.00017974,0.00075249,-0.00048934,0.00038583,-0.0003
 1474,0.00031869,0.00002515,0.00115331,-0.00040395,0.00036843,0.0008402
 3,-0.00958598,-0.03306974,-0.00034101,0.00412660,-0.00178548,-0.003516
 32,-0.04745997,-0.02734535,0.00257903,0.00191527,0.02259579,0.00248297
 ,-0.00272033,-0.00020754,0.00038162,0.00042147,0.00094940,0.00002504,0
 .00001175,0.00001281,0.00001337,0.00000578,-0.00000476,0.00003842,0.00
 003233,0.00000567,0.00003640,0.00003769,-0.00002538,-0.00046267,0.0000
 4446,0.00013851,-0.00039186,0.00025529,0.00037771,-0.00097202,-0.00537
 307,-0.00029716,-0.00075752,-0.00160257,0.00143474,0.00044155,0.000681
 10,0.00817693,-0.00107129,0.05888833,0.00020252,0.00006158,0.00000674,
 -0.00030265,-0.00017868,-0.00013686,0.00024305,0.00022176,0.00007134,0
 .00002467,0.00039857,-0.00022337,0.00003331,-0.00008891,0.00020206,0.0
 0033973,-0.00056028,0.00053734,0.00047054,-0.00049984,-0.01153061,0.00
 007984,0.00291323,0.00462300,-0.00719990,-0.02739443,-0.29289528,-0.00
 069592,-0.00123041,-0.01177082,-0.00103729,0.00226597,0.00130601,-0.00
 037257,-0.00050680,-0.00064495,-0.00002581,-0.00000349,-0.00002258,-0.
 00002794,0.00000221,0.00001457,-0.00002195,-0.00002953,0.00000474,-0.0
 0008267,-0.00000970,-0.00000164,-0.00019718,-0.00011615,-0.00000551,-0
 .00051846,-0.00007092,-0.00012024,-0.00125508,-0.00134323,0.00072966,0
 .00010690,-0.00185563,0.00060493,-0.00020219,-0.00127239,-0.01245219,0
 .01086425,0.02876217,0.31989225,0.00030779,0.00010262,-0.00015419,-0.0
 0069071,-0.00062649,-0.00064318,0.00029770,0.00025898,-0.00149693,-0.0
 0011794,0.00072160,-0.00005015,0.00005786,-0.00028298,-0.00000593,-0.0
 0016566,-0.00037238,0.00059075,-0.00320880,0.00041832,-0.00245935,-0.0
 0016232,0.00219771,-0.00060139,0.00645701,0.02555976,0.00259510,-0.085
 92113,-0.09468228,-0.01081120,-0.00492070,-0.00640676,-0.00233305,0.00
 058719,-0.00089998,-0.00007324,-0.00008876,-0.00003532,-0.00003964,-0.
 00003118,-0.00000571,0.00004433,-0.00004273,-0.00002916,0.00000198,0.0
 0043226,0.00016344,-0.00019767,0.00020547,-0.00009228,-0.00012503,0.00
 028424,-0.00005391,-0.00034344,0.00007176,0.00014709,0.00022508,-0.000
 10984,-0.00008507,0.00013974,0.00134697,0.00006741,0.00058823,0.000447
 41,-0.00076015,0.00008609,0.09661675,0.00020078,0.00011661,-0.00003616
 ,-0.00025631,0.00001484,0.00003321,0.00121513,0.00054825,-0.00030608,0
 .00011203,0.00017922,0.00061191,-0.00003477,-0.00012288,-0.00027783,0.
 00016903,0.00037292,-0.00017848,0.00318337,0.00126031,0.00248627,0.000
 33875,-0.00217625,0.00061512,-0.00719135,-0.02334830,-0.00223229,-0.09
 504361,-0.25891906,-0.03084075,-0.00245047,-0.00340469,-0.00076173,0.0
 0149526,0.00064166,0.00283769,-0.00004358,-0.00000964,-0.00002573,-0.0
 0002562,-0.00000256,0.00001624,0.00001524,0.00000033,0.00001730,0.0000
 1844,0.00003856,0.00004478,0.00002655,0.00000687,-0.00000972,0.0000255
 0,0.00007946,-0.00002549,-0.00000883,-0.00020216,-0.00020767,0.0000225
 3,0.00009012,-0.00024056,0.00014586,0.00123902,-0.00078443,-0.00010431
 ,0.00033011,0.00046053,0.09894725,0.28335051,0.00030850,0.00008229,-0.
 00041156,-0.00234798,-0.00114042,-0.00078901,0.00180254,0.00102704,-0.
 00463119,-0.00037034,0.00098856,-0.00057866,0.00018821,-0.00032586,0.0
 0019221,0.00013877,-0.00002322,-0.00018063,-0.00126632,0.00017176,-0.0
 0011902,-0.00015683,0.00076327,-0.00030338,0.00355343,0.00984176,0.001
 49702,-0.01075913,-0.02882739,-0.04906844,-0.01655845,-0.02750599,-0.0
 0783411,-0.00101269,-0.00223970,0.00095696,-0.00018768,-0.00007835,-0.
 00006225,-0.00007120,0.00000436,0.00004205,-0.00008479,-0.00005432,-0.
 00000414,-0.00025211,0.00022207,0.00013206,-0.00007433,0.00003287,0.00
 018110,-0.00020299,-0.00014719,0.00018137,-0.00004493,0.00024064,0.000
 09940,0.00001232,-0.00004459,0.00007219,0.00001348,-0.00043160,0.00062
 562,0.00054259,-0.00020528,0.00004779,0.01799533,0.02908125,0.05857463
 ,0.00001090,0.00003427,0.00009297,0.00020683,-0.00013964,-0.00020703,0
 .00069570,-0.00045055,-0.00143393,0.00018399,-0.00018864,0.00027689,-0
 .00008853,-0.00005043,-0.00011236,-0.00038871,-0.00025185,0.00065323,-
 0.00048340,-0.00127111,-0.00021166,0.00036655,0.00048035,-0.00005364,-
 0.02026021,-0.00079449,0.01069779,-0.21297049,-0.00649882,0.11685578,0
 .00580221,0.00073393,-0.00482312,0.00025340,-0.00037147,0.00029437,0.0
 0001603,0.00000901,0.00001077,-0.00001247,-0.00001065,0.00000649,0.000
 00445,-0.00000353,-0.00000397,0.00045835,0.00039241,-0.00014479,0.0004
 0266,-0.00012899,-0.00029455,0.00064091,-0.00040512,-0.00056639,0.0001
 4865,-0.00003376,0.00001956,-0.00015807,-0.00008913,0.00003000,-0.0019
 1220,0.00382988,-0.00198031,0.00090210,-0.00014137,-0.00043951,-0.0115
 5718,-0.00100987,0.00779989,0.23714570,-0.00012182,-0.00001814,0.00002
 092,0.00009431,0.00000235,0.00039653,0.00063465,0.00036041,-0.00089620
 ,-0.00007088,-0.00018388,-0.00030132,0.00004564,0.00013437,0.00028145,
 -0.00010408,-0.00077827,-0.00018887,0.00088622,0.00111690,-0.00047215,
 -0.00044926,0.00001006,-0.00002369,0.02005228,0.00076401,-0.01222602,-
 0.00751840,-0.04800328,0.00611060,0.00326577,-0.00056720,-0.00431441,-
 0.00068124,-0.00003714,0.00015846,0.00002097,0.00000479,0.00002230,-0.
 00000079,-0.00000273,-0.00001677,0.00000305,0.00000149,-0.00001333,-0.
 00024489,0.00012706,-0.00007130,-0.00003816,0.00010108,0.00018441,-0.0
 0053280,-0.00140678,0.00016045,-0.00022739,0.00007955,0.00000752,0.000
 12428,0.00002631,0.00006989,0.00309480,-0.00251956,0.00139097,-0.00092
 755,0.00115144,-0.00025289,-0.02491979,-0.00116895,0.01757542,0.007047
 38,0.05024389,-0.00009145,-0.00007656,0.00004036,-0.00020307,0.0003021
 0,0.00097172,0.00246683,0.00026720,0.00007396,-0.00047808,-0.00014852,
 -0.00054897,0.00015076,0.00005843,0.00020698,0.00068877,0.00029326,-0.
 00045692,0.00034158,-0.00012186,0.00016201,-0.00003330,-0.00017859,0.0
 0001959,-0.01122395,-0.00012693,0.00498415,0.11741014,0.00485505,-0.12
 813755,0.02601338,-0.00078190,-0.02175093,0.00043369,-0.00117207,-0.00
 003751,0.00002374,0.00001012,0.00001636,-0.00006092,0.00000325,-0.0000
 3805,-0.00001073,-0.00000150,0.00000314,-0.00151750,-0.00023162,0.0002
 9893,-0.00022805,0.00010084,0.00014859,-0.00015644,0.00027888,0.000609
 71,-0.00005723,0.00003273,-0.00000574,0.00003223,0.00004146,0.00000733
 ,-0.00209175,0.00211953,0.00022347,-0.00026719,-0.00041532,0.00130936,
 -0.00259586,0.00010898,0.00178042,-0.12507383,-0.00629794,0.14510199,-
 0.00002989,0.00000679,-0.00029498,0.00182953,0.00018089,-0.00024387,-0
 .02153798,0.00451234,0.01518713,-0.00054983,0.00288680,0.00048771,0.00
 047153,-0.00123780,-0.00093117,-0.00008392,-0.00027295,0.00033138,-0.0
 0043759,0.00013638,0.00045583,0.00012983,-0.00003614,-0.00021334,0.001
 18023,0.00019586,0.00020671,0.00746902,-0.00254296,-0.00578969,-0.1950
 4415,0.06090668,0.10441641,-0.00757699,0.00413767,0.00495139,-0.000024
 33,-0.00004394,-0.00010691,0.00030755,-0.00003166,-0.00009145,0.000038
 27,0.00000190,0.00002938,-0.00283744,-0.00332723,-0.00064512,0.0000209
 9,-0.00003881,0.00007629,0.00004065,-0.00003791,-0.00007239,0.00026213
 ,-0.00005583,-0.00034577,-0.00005070,0.00002519,-0.00005559,0.00013197
 ,-0.00029221,0.00040258,0.00014251,-0.00013913,0.00002295,-0.00002144,
 -0.00005279,0.00037690,0.00041965,-0.00023219,-0.00229968,0.21398773,0
 .00001215,0.00009389,0.00004904,0.00150343,0.00053856,0.00030701,-0.01
 890043,0.00441052,0.01273839,-0.00071936,0.00206105,0.00112628,0.00030
 068,0.00004074,-0.00041447,-0.00013120,-0.00015413,0.00005937,-0.00018
 921,-0.00026864,0.00004469,0.00003203,0.00012229,-0.00008364,-0.000135
 85,0.00067517,0.00044858,0.00190286,-0.00055589,-0.00035922,0.06135217
 ,-0.07304538,-0.04595207,0.02475650,-0.01309569,-0.01577477,0.00005767
 ,-0.00002704,-0.00009246,0.00010117,-0.00010130,-0.00007684,-0.0000158
 3,0.00000513,0.00001970,-0.00385258,-0.00232785,-0.00046161,0.00003792
 ,-0.00003605,0.00004576,0.00002269,0.00001065,-0.00010684,0.00014381,-
 0.00021513,0.00026375,-0.00000468,0.00000273,0.00000042,-0.00020631,0.
 00011488,-0.00014035,-0.00009525,-0.00006077,-0.00001214,0.00006743,-0
 .00014647,-0.00000507,-0.00045056,0.00029578,0.00020776,-0.06634602,0.
 08473381,-0.00018609,0.00007996,0.00013492,0.00045665,0.00014508,0.000
 92800,-0.00242873,0.00127849,0.00089790,0.00058841,-0.00014277,0.00007
 088,-0.00010825,0.00040873,0.00013136,0.00008020,0.00001567,-0.0001815
 1,0.00011207,0.00027734,-0.00063380,-0.00015296,0.00011669,0.00023840,
 0.00117994,-0.00017979,0.00204210,0.02376554,-0.00799137,-0.01995654,0
 .10541799,-0.04451835,-0.12227775,-0.00939083,0.00485336,0.00641959,0.
 00004097,0.00000979,-0.00001109,-0.00000422,-0.00006175,-0.00016025,0.
 00004514,0.00001201,0.00001072,-0.00071792,-0.00031015,0.00026483,-0.0
 0006463,0.00002662,0.00007076,-0.00015167,-0.00005865,0.00013658,-0.00
 019762,0.00059494,0.00015890,0.00004381,-0.00006071,0.00003372,-0.0009
 0801,0.00018467,-0.00014614,-0.00003097,-0.00030113,0.00055121,-0.0001
 6876,-0.00033960,-0.00010972,-0.00160013,-0.00134402,-0.00543220,-0.11
 464212,0.04597082,0.13584068,-0.00013539,-0.00003405,0.00001963,0.0000
 8919,0.00022054,0.00018119,0.00074615,-0.00057440,-0.00057263,0.000333
 14,-0.00017647,-0.00001509,-0.00009427,-0.00003002,-0.00002070,-0.0001
 0803,-0.00000869,0.00003395,0.00011139,0.00003345,0.00017339,-0.000020
 48,-0.00006285,-0.00005068,0.00000946,-0.00022875,-0.00029259,0.000668
 54,-0.00025381,0.00081095,-0.00853804,0.00387893,0.00485807,-0.1884780
 3,0.06869965,0.10610985,0.00001752,0.00000503,0.00001594,0.00003430,-0
 .00000174,-0.00001336,0.00000922,0.00000104,-0.00001252,0.00051207,0.0
 0043949,-0.00002097,0.00000445,-0.00000262,-0.00001361,0.00002036,0.00
 000307,-0.00001265,0.00002311,-0.00004716,-0.00004307,0.00000143,0.000
 01077,-0.00000366,0.00012282,-0.00007488,0.00005912,-0.00004074,0.0000
 6398,-0.00006738,-0.00045783,-0.00020756,-0.00008185,0.00006583,0.0003
 2612,-0.00055408,0.00079202,0.00185892,-0.00118423,0.20437594,0.000080
 62,-0.00016457,-0.00011882,-0.00053731,0.00008841,0.00007620,0.0015385
 8,0.00174824,-0.00115697,0.00002617,-0.00000778,0.00027422,-0.00009532
 ,0.00032799,0.00008806,0.00008823,0.00004820,-0.00010963,0.00007218,0.
 00001707,-0.00019792,-0.00002894,0.00002366,0.00008290,-0.00017491,-0.
 00000596,0.00005990,-0.00063091,0.00094345,-0.00156602,0.02404094,-0.0
 1333978,-0.01701572,0.06843908,-0.08015798,-0.05174553,-0.00002135,-0.
 00000214,-0.00000426,-0.00008924,-0.00000635,0.00003565,-0.00003174,0.
 00000880,0.00001847,-0.00094178,-0.00006350,0.00045014,-0.00001598,0.0
 0000740,0.00000317,-0.00002389,0.00000337,0.00002932,-0.00006483,0.000
 07828,0.00005485,0.00001404,-0.00000536,0.00001235,-0.00013423,0.00003
 597,-0.00005483,0.00000363,-0.00001920,0.00006902,-0.00008920,0.000273
 09,0.00027780,-0.00022717,-0.00002123,0.00070820,0.00170339,-0.0053602
 5,0.00262968,-0.07922877,0.08899450,0.00028076,-0.00014023,0.00002115,
 -0.00069304,-0.00000534,-0.00004034,0.00010552,-0.00069856,0.00043374,
 -0.00027741,-0.00008627,0.00007222,0.00005251,-0.00003436,-0.00008600,
 0.00001387,-0.00000335,0.00000220,0.00002014,0.00006564,0.00002128,0.0
 0000892,-0.00008491,-0.00000050,-0.00002330,-0.00005454,0.00013206,-0.
 00063407,-0.00008929,0.00122648,-0.00924470,0.00439263,0.00582430,0.10
 688674,-0.05229060,-0.12793633,0.00000747,0.00000128,-0.00001162,-0.00
 013438,-0.00003024,0.00008836,-0.00008422,-0.00001375,0.00001639,-0.00
 001047,-0.00035583,0.00005399,-0.00000173,-0.00000684,-0.00000809,0.00
 001262,0.00001618,-0.00001324,0.00000563,-0.00004853,-0.00000029,0.000
 00425,0.00002983,-0.00001392,0.00003651,-0.00000148,-0.00003778,0.0000
 4579,-0.00003209,0.00000413,0.00001339,-0.00019150,0.00010812,0.000241
 19,0.00011322,0.00026112,-0.00094564,0.00253193,0.00002908,-0.11790731
 ,0.05610848,0.13495977,-0.00026747,-0.00031032,0.00003543,-0.00111286,
 -0.00184433,-0.00020298,0.00013699,-0.00010522,0.00045405,0.00013043,-
 0.00007052,-0.00029909,-0.00008950,0.00006659,0.00007240,-0.00004236,0
 .00008926,0.00000623,0.00003288,-0.00009669,-0.00005322,-0.00004779,0.
 00010700,-0.00003119,0.00043704,0.00002922,-0.00050105,-0.00008266,0.0
 0132385,-0.00062238,-0.00358238,-0.00068975,-0.00845436,-0.07362016,-0
 .00422782,-0.08016898,0.00003503,-0.00003365,-0.00001730,-0.00002452,-
 0.00003622,0.00003768,0.00002175,0.00003318,-0.00001855,0.00000756,-0.
 00000196,-0.00003690,-0.00000724,0.00001424,-0.00001830,-0.00001174,-0
 .00001177,0.00000778,-0.00000787,0.00002576,0.00000945,-0.00000102,-0.
 00002860,0.00002914,0.00002713,-0.00006063,0.00004854,-0.00014170,0.00
 011958,-0.00008007,0.00005467,0.00042874,0.00030491,0.00003783,0.00035
 393,-0.00054449,0.00003769,-0.00044365,-0.00004896,0.00810478,0.001353
 96,0.02461154,0.07727812,-0.00104451,-0.00005867,-0.00072714,-0.000869
 37,-0.00237512,-0.00081030,0.00075263,0.00137600,0.00169793,0.00029282
 ,-0.00019473,0.00015738,-0.00012444,0.00011376,-0.00024940,-0.00018223
 ,0.00019244,-0.00013180,0.00024482,0.00045271,0.00004690,-0.00014604,-
 0.00025551,-0.00004006,-0.00019300,0.00049681,0.00170771,0.00165219,-0
 .00574014,0.00088242,0.00832107,0.00254998,0.02876578,-0.00553959,-0.0
 4641520,-0.01992778,-0.00001848,-0.00004304,0.00004430,0.00026255,0.00
 003271,-0.00006000,0.00033168,0.00020088,0.00004934,-0.00006139,-0.000
 08349,-0.00030849,-0.00004738,-0.00000523,-0.00006928,0.00003652,0.000
 01808,-0.00002305,-0.00000428,-0.00004385,-0.00001252,0.00004895,0.000
 09198,-0.00002730,0.00002814,-0.00001604,-0.00003604,0.00045705,-0.000
 38711,0.00028140,0.00031092,0.00001128,-0.00007768,-0.00007968,0.00003
 081,0.00029664,-0.00010130,0.00120372,-0.00060944,-0.00432312,-0.00129
 446,-0.01027498,0.00474897,0.05161452,0.00056385,-0.00007510,0.0004228
 3,-0.00090134,-0.00343236,0.00097378,-0.00122248,0.00000188,-0.0019113
 0,0.00008866,-0.00005205,-0.00026987,0.00005208,0.00004431,0.00025869,
 0.00003881,-0.00006049,0.00008153,-0.00018947,-0.00027258,-0.00009378,
 0.00004294,0.00025300,-0.00002510,0.00047136,-0.00026012,-0.00044171,-
 0.00172616,0.00205046,0.00052706,-0.00193590,-0.00023322,-0.00952490,-
 0.07940675,-0.01559823,-0.29478786,0.00001139,0.00004385,-0.00002844,-
 0.00003702,0.00002496,-0.00001723,-0.00021371,-0.00015916,-0.00006041,
 -0.00000651,0.00007612,0.00008828,0.00001572,0.00001355,0.00003143,-0.
 00001985,-0.00002038,0.00002221,0.00000469,0.00003417,0.00001240,-0.00
 002236,-0.00006622,0.00003459,-0.00005776,0.00003412,-0.00000089,-0.00
 016979,0.00016615,-0.00011811,0.00019138,0.00022383,0.00022023,0.00009
 807,-0.00011475,0.00014323,-0.00003746,0.00022424,0.00063597,-0.005638
 03,-0.00112508,-0.01555043,0.08925769,0.01855018,0.31859348,0.00020509
 ,0.00017269,0.00014996,-0.00002925,-0.00095155,0.00032690,0.00009361,0
 .00219524,-0.00172893,0.00066758,0.00012199,-0.00021777,-0.00016304,-0
 .00003490,0.00022599,-0.00008902,-0.00010122,0.00004354,-0.00007072,0.
 00004822,-0.00012436,0.00000003,0.00003897,0.00002485,0.00018911,0.000
 19405,0.00025980,0.00047979,0.00034067,0.00005453,0.00656934,0.0076130
 8,-0.00046841,-0.20497477,-0.12902714,-0.01071192,0.00000169,0.0000091
 6,-0.00000615,0.00001202,0.00001732,-0.00002338,-0.00005440,-0.0000732
 1,-0.00002393,0.00023709,0.00019688,-0.00013083,0.00001370,-0.00001468
 ,0.00002574,-0.00000418,-0.00001287,0.00000389,-0.00000762,0.00001532,
 0.00000906,-0.00000720,-0.00000427,-0.00000122,-0.00001530,-0.00001238
 ,-0.00001139,0.00004060,-0.00006409,0.00005275,0.00032914,0.00008460,0
 .00043474,0.00006950,0.00011987,-0.00007351,0.00093295,-0.00065849,0.0
 0025539,-0.01816892,-0.01502525,-0.00239058,-0.00730264,-0.00475351,0.
 00074796,0.22104579,0.00048009,0.00005791,0.00009215,-0.00015576,0.000
 32403,0.00030927,0.00268467,-0.00580277,0.00261032,-0.00246488,0.00124
 699,-0.00111538,0.00071342,-0.00128259,-0.00024438,0.00053361,0.000049
 53,0.00008643,-0.00049562,-0.00019799,-0.00007682,0.00024346,0.0001291
 9,0.00011710,0.00029734,0.00021599,0.00001292,-0.00076252,0.00027986,-
 0.00194464,-0.02297688,-0.02002700,-0.00044031,-0.12718092,-0.14834550
 ,-0.00886226,-0.00006499,-0.00000115,-0.00005805,-0.00008307,-0.000014
 64,0.00004501,-0.00002532,-0.00003959,0.00002394,0.00012338,0.00024322
 ,0.00016521,0.00001706,0.00000523,0.00003918,-0.00002828,-0.00000527,0
 .00002286,-0.00001489,0.00001119,-0.00000153,-0.00004798,-0.00004508,-
 0.00001596,0.00009243,-0.00001507,0.00003822,0.00002592,0.00001324,-0.
 00001103,0.00037893,0.00094780,0.00079758,0.00006959,0.00025687,-0.000
 13163,0.00009495,0.00108564,-0.00068611,0.00971389,0.00785012,0.001183
 49,-0.00073313,-0.00147307,-0.00027109,0.13956550,0.16453289,0.0004310
 9,-0.00001656,0.00017152,-0.00045242,-0.00177719,0.00064353,-0.0014695
 8,0.00242004,-0.00228711,0.00084362,-0.00011059,0.00050407,-0.00021394
 ,0.00047063,0.00018412,-0.00016083,-0.00011766,-0.00001579,0.00015224,
 0.00012326,0.00001172,-0.00005572,-0.00009972,0.00000211,-0.00021272,-
 0.00020732,0.00003479,0.00149920,0.00107936,0.00075273,0.00844829,0.00
 738144,-0.00161101,-0.01128708,-0.00961608,-0.04755457,0.00001827,0.00
 003784,-0.00000082,-0.00007458,0.00000811,0.00001710,-0.00016635,-0.00
 010391,-0.00002754,-0.00036316,-0.00021602,0.00012130,-0.00000183,-0.0
 0001281,0.00000975,0.00000710,0.00000070,-0.00000664,0.00000020,-0.000
 02616,-0.00001045,0.00001533,0.00002803,-0.00000572,-0.00001063,0.0000
 2430,-0.00001570,0.00002455,-0.00001108,0.00001704,-0.00037238,-0.0000
 7909,-0.00061906,-0.00013178,0.00004155,0.00004545,-0.00022949,-0.0005
 5826,0.00031341,0.01424230,0.01211640,0.00044415,-0.02377702,-0.019094
 71,0.00078435,0.01329729,0.00831551,0.04809726\\0.00003141,0.00000946,
 0.00000443,-0.00002299,0.00000089,-0.00000715,0.00000125,-0.00000030,0
 .00000607,0.00001033,0.00000663,0.00001836,0.00000024,-0.00000576,-0.0
 0001063,-0.00000997,-0.00000098,-0.00001057,0.00000970,-0.00000158,0.0
 0000128,-0.00000259,0.00000003,-0.00000272,-0.00000412,-0.00000804,-0.
 00000036,-0.00000012,0.00000055,-0.00000616,-0.00000171,-0.00000437,0.
 00000110,0.00000028,0.00000157,0.00000408,-0.00000268,-0.00000001,-0.0
 0000183,-0.00000609,0.00000366,-0.00000055,-0.00000453,0.00000076,-0.0
 0000138,-0.00000005,0.00000061,-0.00000259,-0.00000176,-0.00000038,0.0
 0000032,0.00000042,-0.00000140,0.00000006,-0.00000195,0.00000148,-0.00
 000263,0.00000068,-0.00000239,0.00000009,0.00000186,-0.00000181,0.0000
 0147,-0.00000006,-0.00000124,0.00000139,0.00000022,-0.00000060,0.00000
 301,-0.00000110,-0.00000041,0.00000122,-0.00000021,0.00000053,0.000000
 30,0.00000126,0.00000028,0.00000221,0.00000129,0.00000234,0.00000049,0
 .00000102,0.00000050,0.00000071\\\@


 NEVER LOSE YOUR IGNORANCE, IT CAN'T BE REPLACED.
   -- ANDY CAPP
 Job cpu time:       0 days  5 hours 13 minutes 28.8 seconds.
 Elapsed time:       0 days  1 hours 18 minutes 23.7 seconds.
 File lengths (MBytes):  RWF=    358 Int=      0 D2E=      0 Chk=     15 Scr=      1
 Normal termination of Gaussian 16 at Sun May 28 06:26:46 2023.
### All Done ###
