### Starting Gaussian ###
 Entering Gaussian System, Link 0=g16
 Initial command:
 /cluster/software/gaussian/gaussian-16-A.03/avx2/g16/l1.exe "/local/scratch/linjian/Gau-30872.inp" -scrdir="/local/scratch/linjian/"
 Entering Link 1 = /cluster/software/gaussian/gaussian-16-A.03/avx2/g16/l1.exe PID=     30873.
  
 Copyright (c) 1988,1990,1992,1993,1995,1998,2003,2009,2016,
            Gaussian, Inc.  All Rights Reserved.
  
 This is part of the Gaussian(R) 16 program.  It is based on
 the Gaussian(R) 09 system (copyright 2009, Gaussian, Inc.),
 the Gaussian(R) 03 system (copyright 2003, Gaussian, Inc.),
 the Gaussian(R) 98 system (copyright 1998, Gaussian, Inc.),
 the Gaussian(R) 94 system (copyright 1995, Gaussian, Inc.),
 the Gaussian 92(TM) system (copyright 1992, Gaussian, Inc.),
 the Gaussian 90(TM) system (copyright 1990, Gaussian, Inc.),
 the Gaussian 88(TM) system (copyright 1988, Gaussian, Inc.),
 the Gaussian 86(TM) system (copyright 1986, Carnegie Mellon
 University), and the Gaussian 82(TM) system (copyright 1983,
 Carnegie Mellon University). Gaussian is a federally registered
 trademark of Gaussian, Inc.
  
 This software contains proprietary and confidential information,
 including trade secrets, belonging to Gaussian, Inc.
  
 This software is provided under written license and may be
 used, copied, transmitted, or stored only in accord with that
 written license.
  
 The following legend is applicable only to US Government
 contracts under FAR:
  
                    RESTRICTED RIGHTS LEGEND
  
 Use, reproduction and disclosure by the US Government is
 subject to restrictions as set forth in subparagraphs (a)
 and (c) of the Commercial Computer Software - Restricted
 Rights clause in FAR 52.227-19.
  
 Gaussian, Inc.
 340 Quinnipiac St., Bldg. 40, Wallingford CT 06492
  
  
 ---------------------------------------------------------------
 Warning -- This program may not be used in any manner that
 competes with the business of Gaussian, Inc. or will provide
 assistance to any competitor of Gaussian, Inc.  The licensee
 of this program is prohibited from giving any competitor of
 Gaussian, Inc. access to this program.  By using this program,
 the user acknowledges that Gaussian, Inc. is engaged in the
 business of creating and licensing software in the field of
 computational chemistry and represents and warrants to the
 licensee that it is not a competitor of Gaussian, Inc. and that
 it will not use this program in any manner prohibited above.
 ---------------------------------------------------------------
  

 Cite this work as:
 Gaussian 16, Revision A.03,
 M. J. Frisch, G. W. Trucks, H. B. Schlegel, G. E. Scuseria, 
 M. A. Robb, J. R. Cheeseman, G. Scalmani, V. Barone, 
 G. A. Petersson, H. Nakatsuji, X. Li, M. Caricato, A. V. Marenich, 
 J. Bloino, B. G. Janesko, R. Gomperts, B. Mennucci, H. P. Hratchian, 
 J. V. Ortiz, A. F. Izmaylov, J. L. Sonnenberg, D. Williams-Young, 
 F. Ding, F. Lipparini, F. Egidi, J. Goings, B. Peng, A. Petrone, 
 T. Henderson, D. Ranasinghe, V. G. Zakrzewski, J. Gao, N. Rega, 
 G. Zheng, W. Liang, M. Hada, M. Ehara, K. Toyota, R. Fukuda, 
 J. Hasegawa, M. Ishida, T. Nakajima, Y. Honda, O. Kitao, H. Nakai, 
 T. Vreven, K. Throssell, J. A. Montgomery, Jr., J. E. Peralta, 
 F. Ogliaro, M. J. Bearpark, J. J. Heyd, E. N. Brothers, K. N. Kudin, 
 V. N. Staroverov, T. A. Keith, R. Kobayashi, J. Normand, 
 K. Raghavachari, A. P. Rendell, J. C. Burant, S. S. Iyengar, 
 J. Tomasi, M. Cossi, J. M. Millam, M. Klene, C. Adamo, R. Cammi, 
 J. W. Ochterski, R. L. Martin, K. Morokuma, O. Farkas, 
 J. B. Foresman, and D. J. Fox, Gaussian, Inc., Wallingford CT, 2016.
 
 ******************************************
 Gaussian 16:  ES64L-G16RevA.03 25-Dec-2016
                22-May-2023 
 ******************************************
 %chk=COCCCCC1CCCCCOCqCrC1.chk
 %NProcShared=20
 Will use up to   20 processors via shared memory.
 -----------------------------
 # opt freq b3lyp/6-31g(2df,p)
 -----------------------------
 1/18=20,19=15,26=3,38=1/1,3;
 2/9=110,12=2,17=6,18=5,40=1/2;
 3/5=1,6=6,7=104,11=2,25=1,30=1,71=1,74=-5/1,2,3;
 4//1;
 5/5=2,38=5/2;
 6/7=2,8=2,9=2,10=2,28=1/1;
 7//1,2,3,16;
 1/18=20,19=15,26=3/3(2);
 2/9=110/2;
 99//99;
 2/9=110/2;
 3/5=1,6=6,7=104,11=2,25=1,30=1,71=1,74=-5/1,2,3;
 4/5=5,16=3,69=1/1;
 5/5=2,38=5/2;
 7//1,2,3,16;
 1/18=20,19=15,26=3/3(-5);
 2/9=110/2;
 6/7=2,8=2,9=2,10=2,19=2,28=1/1;
 99/9=1/99;
 -------------------
 Title Card Required
 -------------------
 Symbolic Z-matrix:
 Charge =  0 Multiplicity = 1
 C                     0.87885   0.01323  -0.01949 
 O                     2.29746   0.04578  -0.06825 
 C                     2.7185    0.86132  -1.15247 
 C                     4.2236    0.91491  -1.18221 
 C                     4.67235   1.82224  -2.32615 
 C                     6.16058   2.02342  -2.18507 
 C                     6.88494   2.60806  -3.40184 
 C                     8.07834   3.46781  -2.92345 
 C                     9.33102   2.7394   -2.4133 
 C                     9.13928   1.69711  -1.31 
 C                     9.54882   0.26364  -1.6789 
 C                     9.071    -0.31378  -3.0191 
 O                     7.65411  -0.38329  -3.09181 
 C                     7.03284   0.11863  -4.27944 
 C                     7.36634  -0.75227  -5.48822 
 C                     7.29724   1.61574  -4.52686 
 H                     0.57187  -0.61366   0.81879 
 H                     0.48355  -0.40985  -0.94817 
 H                     0.48639   1.02448   0.12755 
 H                     2.32351   1.87511  -1.02225 
 H                     2.34816   0.44488  -2.09558 
 H                     4.63885  -0.09564  -1.30287 
 H                     4.60705   1.27545  -0.21728 
 H                     4.17511   2.79676  -2.26093 
 H                     4.40382   1.37744  -3.2889 
 H                     6.5832    1.06666  -1.89417 
 H                     6.29918   2.68174  -1.3179 
 H                     6.18601   3.32042  -3.86571 
 H                     7.72713   4.15528  -2.14011 
 H                     8.38391   4.11878  -3.75308 
 H                     9.99992   3.5161   -2.01964 
 H                     9.87626   2.3134   -3.26126 
 H                     8.13886   1.7003   -0.88067 
 H                     9.75053   1.9998   -0.44963 
 H                     9.20445  -0.39059  -0.86986 
 H                     10.64566   0.22357  -1.67288 
 H                     9.43446  -1.34573  -3.08747 
 H                     9.51351   0.22513  -3.85644 
 H                     5.95384   0.00084  -4.12516 
 H                     8.444    -0.82467  -5.65836 
 H                     6.89308  -0.36967  -6.39816 
 H                     7.00236  -1.77219  -5.31905 
 H                     6.76448   1.91181  -5.44123 
 H                     8.35221   1.7636   -4.78284 
 

 GradGradGradGradGradGradGradGradGradGradGradGradGradGradGradGradGradGrad
 Berny optimization.
 Initialization pass.
                           ----------------------------
                           !    Initial Parameters    !
                           ! (Angstroms and Degrees)  !
 --------------------------                            --------------------------
 ! Name  Definition              Value          Derivative Info.                !
 --------------------------------------------------------------------------------
 ! R1    R(1,2)                  1.4198         estimate D2E/DX2                !
 ! R2    R(1,17)                 1.0908         estimate D2E/DX2                !
 ! R3    R(1,18)                 1.0944         estimate D2E/DX2                !
 ! R4    R(1,19)                 1.0947         estimate D2E/DX2                !
 ! R5    R(2,3)                  1.4205         estimate D2E/DX2                !
 ! R6    R(3,4)                  1.5063         estimate D2E/DX2                !
 ! R7    R(3,20)                 1.0958         estimate D2E/DX2                !
 ! R8    R(3,21)                 1.0955         estimate D2E/DX2                !
 ! R9    R(4,5)                  1.5275         estimate D2E/DX2                !
 ! R10   R(4,22)                 1.0992         estimate D2E/DX2                !
 ! R11   R(4,23)                 1.0991         estimate D2E/DX2                !
 ! R12   R(5,6)                  1.5084         estimate D2E/DX2                !
 ! R13   R(5,24)                 1.096          estimate D2E/DX2                !
 ! R14   R(5,25)                 1.094          estimate D2E/DX2                !
 ! R15   R(6,7)                  1.532          estimate D2E/DX2                !
 ! R16   R(6,26)                 1.0856         estimate D2E/DX2                !
 ! R17   R(6,27)                 1.0975         estimate D2E/DX2                !
 ! R18   R(7,8)                  1.5467         estimate D2E/DX2                !
 ! R19   R(7,16)                 1.5558         estimate D2E/DX2                !
 ! R20   R(7,28)                 1.1005         estimate D2E/DX2                !
 ! R21   R(8,9)                  1.5362         estimate D2E/DX2                !
 ! R22   R(8,29)                 1.0998         estimate D2E/DX2                !
 ! R23   R(8,30)                 1.0979         estimate D2E/DX2                !
 ! R24   R(9,10)                 1.5298         estimate D2E/DX2                !
 ! R25   R(9,31)                 1.098          estimate D2E/DX2                !
 ! R26   R(9,32)                 1.0944         estimate D2E/DX2                !
 ! R27   R(10,11)                1.5358         estimate D2E/DX2                !
 ! R28   R(10,33)                1.0887         estimate D2E/DX2                !
 ! R29   R(10,34)                1.0979         estimate D2E/DX2                !
 ! R30   R(11,12)                1.5355         estimate D2E/DX2                !
 ! R31   R(11,35)                1.096          estimate D2E/DX2                !
 ! R32   R(11,36)                1.0976         estimate D2E/DX2                !
 ! R33   R(12,13)                1.4205         estimate D2E/DX2                !
 ! R34   R(12,37)                1.0962         estimate D2E/DX2                !
 ! R35   R(12,38)                1.0897         estimate D2E/DX2                !
 ! R36   R(13,14)                1.4312         estimate D2E/DX2                !
 ! R37   R(14,15)                1.5267         estimate D2E/DX2                !
 ! R38   R(14,16)                1.5403         estimate D2E/DX2                !
 ! R39   R(14,39)                1.0963         estimate D2E/DX2                !
 ! R40   R(15,40)                1.0934         estimate D2E/DX2                !
 ! R41   R(15,41)                1.0947         estimate D2E/DX2                !
 ! R42   R(15,42)                1.0961         estimate D2E/DX2                !
 ! R43   R(16,43)                1.0989         estimate D2E/DX2                !
 ! R44   R(16,44)                1.0956         estimate D2E/DX2                !
 ! A1    A(2,1,17)             108.7077         estimate D2E/DX2                !
 ! A2    A(2,1,18)             109.9144         estimate D2E/DX2                !
 ! A3    A(2,1,19)             109.9776         estimate D2E/DX2                !
 ! A4    A(17,1,18)            109.1651         estimate D2E/DX2                !
 ! A5    A(17,1,19)            109.0733         estimate D2E/DX2                !
 ! A6    A(18,1,19)            109.9754         estimate D2E/DX2                !
 ! A7    A(1,2,3)              109.604          estimate D2E/DX2                !
 ! A8    A(2,3,4)              109.3686         estimate D2E/DX2                !
 ! A9    A(2,3,20)             109.4879         estimate D2E/DX2                !
 ! A10   A(2,3,21)             109.7947         estimate D2E/DX2                !
 ! A11   A(4,3,20)             109.2443         estimate D2E/DX2                !
 ! A12   A(4,3,21)             109.5309         estimate D2E/DX2                !
 ! A13   A(20,3,21)            109.3996         estimate D2E/DX2                !
 ! A14   A(3,4,5)              109.2358         estimate D2E/DX2                !
 ! A15   A(3,4,22)             110.2995         estimate D2E/DX2                !
 ! A16   A(3,4,23)             110.0544         estimate D2E/DX2                !
 ! A17   A(5,4,22)             110.6654         estimate D2E/DX2                !
 ! A18   A(5,4,23)             111.1077         estimate D2E/DX2                !
 ! A19   A(22,4,23)            105.435          estimate D2E/DX2                !
 ! A20   A(4,5,6)              107.3998         estimate D2E/DX2                !
 ! A21   A(4,5,24)             110.5066         estimate D2E/DX2                !
 ! A22   A(4,5,25)             110.2082         estimate D2E/DX2                !
 ! A23   A(6,5,24)             108.873          estimate D2E/DX2                !
 ! A24   A(6,5,25)             112.2541         estimate D2E/DX2                !
 ! A25   A(24,5,25)            107.6094         estimate D2E/DX2                !
 ! A26   A(5,6,7)              116.3029         estimate D2E/DX2                !
 ! A27   A(5,6,26)             106.9539         estimate D2E/DX2                !
 ! A28   A(5,6,27)             106.1705         estimate D2E/DX2                !
 ! A29   A(7,6,26)             111.412          estimate D2E/DX2                !
 ! A30   A(7,6,27)             109.8112         estimate D2E/DX2                !
 ! A31   A(26,6,27)            105.5298         estimate D2E/DX2                !
 ! A32   A(6,7,8)              109.3472         estimate D2E/DX2                !
 ! A33   A(6,7,16)             117.1444         estimate D2E/DX2                !
 ! A34   A(6,7,28)             106.3502         estimate D2E/DX2                !
 ! A35   A(8,7,16)             111.9463         estimate D2E/DX2                !
 ! A36   A(8,7,28)             105.105          estimate D2E/DX2                !
 ! A37   A(16,7,28)            106.0442         estimate D2E/DX2                !
 ! A38   A(7,8,9)              117.9248         estimate D2E/DX2                !
 ! A39   A(7,8,29)             108.7455         estimate D2E/DX2                !
 ! A40   A(7,8,30)             108.0959         estimate D2E/DX2                !
 ! A41   A(9,8,29)             108.6783         estimate D2E/DX2                !
 ! A42   A(9,8,30)             107.7651         estimate D2E/DX2                !
 ! A43   A(29,8,30)            104.8603         estimate D2E/DX2                !
 ! A44   A(8,9,10)             117.4086         estimate D2E/DX2                !
 ! A45   A(8,9,31)             106.2841         estimate D2E/DX2                !
 ! A46   A(8,9,32)             109.4815         estimate D2E/DX2                !
 ! A47   A(10,9,31)            107.441          estimate D2E/DX2                !
 ! A48   A(10,9,32)            110.8557         estimate D2E/DX2                !
 ! A49   A(31,9,32)            104.4549         estimate D2E/DX2                !
 ! A50   A(9,10,11)            115.4209         estimate D2E/DX2                !
 ! A51   A(9,10,33)            113.4277         estimate D2E/DX2                !
 ! A52   A(9,10,34)            107.9105         estimate D2E/DX2                !
 ! A53   A(11,10,33)           110.0301         estimate D2E/DX2                !
 ! A54   A(11,10,34)           107.2829         estimate D2E/DX2                !
 ! A55   A(33,10,34)           101.6398         estimate D2E/DX2                !
 ! A56   A(10,11,12)           118.5322         estimate D2E/DX2                !
 ! A57   A(10,11,35)           107.2214         estimate D2E/DX2                !
 ! A58   A(10,11,36)           107.412          estimate D2E/DX2                !
 ! A59   A(12,11,35)           108.7864         estimate D2E/DX2                !
 ! A60   A(12,11,36)           107.5791         estimate D2E/DX2                !
 ! A61   A(35,11,36)           106.7478         estimate D2E/DX2                !
 ! A62   A(11,12,13)           111.9299         estimate D2E/DX2                !
 ! A63   A(11,12,37)           107.7735         estimate D2E/DX2                !
 ! A64   A(11,12,38)           110.9984         estimate D2E/DX2                !
 ! A65   A(13,12,37)           106.3478         estimate D2E/DX2                !
 ! A66   A(13,12,38)           112.951          estimate D2E/DX2                !
 ! A67   A(37,12,38)           106.4392         estimate D2E/DX2                !
 ! A68   A(12,13,14)           117.2782         estimate D2E/DX2                !
 ! A69   A(13,14,15)           111.231          estimate D2E/DX2                !
 ! A70   A(13,14,16)           113.5561         estimate D2E/DX2                !
 ! A71   A(13,14,39)           105.8295         estimate D2E/DX2                !
 ! A72   A(15,14,16)           112.9405         estimate D2E/DX2                !
 ! A73   A(15,14,39)           105.3743         estimate D2E/DX2                !
 ! A74   A(16,14,39)           107.2163         estimate D2E/DX2                !
 ! A75   A(14,15,40)           112.1029         estimate D2E/DX2                !
 ! A76   A(14,15,41)           111.3657         estimate D2E/DX2                !
 ! A77   A(14,15,42)           109.6379         estimate D2E/DX2                !
 ! A78   A(40,15,41)           108.6566         estimate D2E/DX2                !
 ! A79   A(40,15,42)           106.84           estimate D2E/DX2                !
 ! A80   A(41,15,42)           108.0566         estimate D2E/DX2                !
 ! A81   A(7,16,14)            117.2782         estimate D2E/DX2                !
 ! A82   A(7,16,43)            107.5402         estimate D2E/DX2                !
 ! A83   A(7,16,44)            109.7588         estimate D2E/DX2                !
 ! A84   A(14,16,43)           108.1987         estimate D2E/DX2                !
 ! A85   A(14,16,44)           109.5115         estimate D2E/DX2                !
 ! A86   A(43,16,44)           103.6543         estimate D2E/DX2                !
 ! D1    D(17,1,2,3)          -179.8356         estimate D2E/DX2                !
 ! D2    D(18,1,2,3)            60.7365         estimate D2E/DX2                !
 ! D3    D(19,1,2,3)           -60.4822         estimate D2E/DX2                !
 ! D4    D(1,2,3,4)            178.8528         estimate D2E/DX2                !
 ! D5    D(1,2,3,20)            59.1828         estimate D2E/DX2                !
 ! D6    D(1,2,3,21)           -60.9386         estimate D2E/DX2                !
 ! D7    D(2,3,4,5)           -178.5092         estimate D2E/DX2                !
 ! D8    D(2,3,4,22)            59.6472         estimate D2E/DX2                !
 ! D9    D(2,3,4,23)           -56.2728         estimate D2E/DX2                !
 ! D10   D(20,3,4,5)           -58.6894         estimate D2E/DX2                !
 ! D11   D(20,3,4,22)          179.467          estimate D2E/DX2                !
 ! D12   D(20,3,4,23)           63.547          estimate D2E/DX2                !
 ! D13   D(21,3,4,5)            61.1207         estimate D2E/DX2                !
 ! D14   D(21,3,4,22)          -60.7228         estimate D2E/DX2                !
 ! D15   D(21,3,4,23)         -176.6428         estimate D2E/DX2                !
 ! D16   D(3,4,5,6)            171.1349         estimate D2E/DX2                !
 ! D17   D(3,4,5,24)            52.5066         estimate D2E/DX2                !
 ! D18   D(3,4,5,25)           -66.2998         estimate D2E/DX2                !
 ! D19   D(22,4,5,6)           -67.2425         estimate D2E/DX2                !
 ! D20   D(22,4,5,24)          174.1292         estimate D2E/DX2                !
 ! D21   D(22,4,5,25)           55.3228         estimate D2E/DX2                !
 ! D22   D(23,4,5,6)            49.5335         estimate D2E/DX2                !
 ! D23   D(23,4,5,24)          -69.0948         estimate D2E/DX2                !
 ! D24   D(23,4,5,25)          172.0987         estimate D2E/DX2                !
 ! D25   D(4,5,6,7)            165.4169         estimate D2E/DX2                !
 ! D26   D(4,5,6,26)            40.2176         estimate D2E/DX2                !
 ! D27   D(4,5,6,27)           -72.1057         estimate D2E/DX2                !
 ! D28   D(24,5,6,7)           -74.9067         estimate D2E/DX2                !
 ! D29   D(24,5,6,26)          159.894          estimate D2E/DX2                !
 ! D30   D(24,5,6,27)           47.5707         estimate D2E/DX2                !
 ! D31   D(25,5,6,7)            44.1273         estimate D2E/DX2                !
 ! D32   D(25,5,6,26)          -81.072          estimate D2E/DX2                !
 ! D33   D(25,5,6,27)          166.6048         estimate D2E/DX2                !
 ! D34   D(5,6,7,8)            148.03           estimate D2E/DX2                !
 ! D35   D(5,6,7,16)           -83.2766         estimate D2E/DX2                !
 ! D36   D(5,6,7,28)            35.0235         estimate D2E/DX2                !
 ! D37   D(26,6,7,8)           -89.0665         estimate D2E/DX2                !
 ! D38   D(26,6,7,16)           39.6269         estimate D2E/DX2                !
 ! D39   D(26,6,7,28)          157.927          estimate D2E/DX2                !
 ! D40   D(27,6,7,8)            27.4813         estimate D2E/DX2                !
 ! D41   D(27,6,7,16)          156.1748         estimate D2E/DX2                !
 ! D42   D(27,6,7,28)          -85.5252         estimate D2E/DX2                !
 ! D43   D(6,7,8,9)             75.1049         estimate D2E/DX2                !
 ! D44   D(6,7,8,29)           -49.1332         estimate D2E/DX2                !
 ! D45   D(6,7,8,30)          -162.4501         estimate D2E/DX2                !
 ! D46   D(16,7,8,9)           -56.4087         estimate D2E/DX2                !
 ! D47   D(16,7,8,29)          179.3532         estimate D2E/DX2                !
 ! D48   D(16,7,8,30)           66.0363         estimate D2E/DX2                !
 ! D49   D(28,7,8,9)          -171.0787         estimate D2E/DX2                !
 ! D50   D(28,7,8,29)           64.6832         estimate D2E/DX2                !
 ! D51   D(28,7,8,30)          -48.6337         estimate D2E/DX2                !
 ! D52   D(6,7,16,14)           -4.2129         estimate D2E/DX2                !
 ! D53   D(6,7,16,43)          117.8945         estimate D2E/DX2                !
 ! D54   D(6,7,16,44)         -129.9824         estimate D2E/DX2                !
 ! D55   D(8,7,16,14)          123.23           estimate D2E/DX2                !
 ! D56   D(8,7,16,43)         -114.6626         estimate D2E/DX2                !
 ! D57   D(8,7,16,44)           -2.5395         estimate D2E/DX2                !
 ! D58   D(28,7,16,14)        -122.6775         estimate D2E/DX2                !
 ! D59   D(28,7,16,43)          -0.5701         estimate D2E/DX2                !
 ! D60   D(28,7,16,44)         111.553          estimate D2E/DX2                !
 ! D61   D(7,8,9,10)           -53.3754         estimate D2E/DX2                !
 ! D62   D(7,8,9,31)          -173.5879         estimate D2E/DX2                !
 ! D63   D(7,8,9,32)            74.1291         estimate D2E/DX2                !
 ! D64   D(29,8,9,10)           70.8962         estimate D2E/DX2                !
 ! D65   D(29,8,9,31)          -49.3164         estimate D2E/DX2                !
 ! D66   D(29,8,9,32)         -161.5993         estimate D2E/DX2                !
 ! D67   D(30,8,9,10)         -175.9882         estimate D2E/DX2                !
 ! D68   D(30,8,9,31)           63.7993         estimate D2E/DX2                !
 ! D69   D(30,8,9,32)          -48.4837         estimate D2E/DX2                !
 ! D70   D(8,9,10,11)          118.5042         estimate D2E/DX2                !
 ! D71   D(8,9,10,33)           -9.757          estimate D2E/DX2                !
 ! D72   D(8,9,10,34)         -121.5422         estimate D2E/DX2                !
 ! D73   D(31,9,10,11)        -121.893          estimate D2E/DX2                !
 ! D74   D(31,9,10,33)         109.8458         estimate D2E/DX2                !
 ! D75   D(31,9,10,34)          -1.9394         estimate D2E/DX2                !
 ! D76   D(32,9,10,11)          -8.3346         estimate D2E/DX2                !
 ! D77   D(32,9,10,33)        -136.5959         estimate D2E/DX2                !
 ! D78   D(32,9,10,34)         111.619          estimate D2E/DX2                !
 ! D79   D(9,10,11,12)         -47.1843         estimate D2E/DX2                !
 ! D80   D(9,10,11,35)        -170.7084         estimate D2E/DX2                !
 ! D81   D(9,10,11,36)          74.8744         estimate D2E/DX2                !
 ! D82   D(33,10,11,12)         82.7437         estimate D2E/DX2                !
 ! D83   D(33,10,11,35)        -40.7803         estimate D2E/DX2                !
 ! D84   D(33,10,11,36)       -155.1976         estimate D2E/DX2                !
 ! D85   D(34,10,11,12)       -167.481          estimate D2E/DX2                !
 ! D86   D(34,10,11,35)         68.995          estimate D2E/DX2                !
 ! D87   D(34,10,11,36)        -45.4223         estimate D2E/DX2                !
 ! D88   D(10,11,12,13)        -61.6966         estimate D2E/DX2                !
 ! D89   D(10,11,12,37)       -178.2919         estimate D2E/DX2                !
 ! D90   D(10,11,12,38)         65.5175         estimate D2E/DX2                !
 ! D91   D(35,11,12,13)         61.0482         estimate D2E/DX2                !
 ! D92   D(35,11,12,37)        -55.5471         estimate D2E/DX2                !
 ! D93   D(35,11,12,38)       -171.7377         estimate D2E/DX2                !
 ! D94   D(36,11,12,13)        176.329          estimate D2E/DX2                !
 ! D95   D(36,11,12,37)         59.7337         estimate D2E/DX2                !
 ! D96   D(36,11,12,38)        -56.457          estimate D2E/DX2                !
 ! D97   D(11,12,13,14)        132.4316         estimate D2E/DX2                !
 ! D98   D(37,12,13,14)       -110.1152         estimate D2E/DX2                !
 ! D99   D(38,12,13,14)          6.2753         estimate D2E/DX2                !
 ! D100  D(12,13,14,15)         67.6212         estimate D2E/DX2                !
 ! D101  D(12,13,14,16)        -61.1011         estimate D2E/DX2                !
 ! D102  D(12,13,14,39)       -178.4382         estimate D2E/DX2                !
 ! D103  D(13,14,15,40)        -57.9577         estimate D2E/DX2                !
 ! D104  D(13,14,15,41)       -179.9378         estimate D2E/DX2                !
 ! D105  D(13,14,15,42)         60.5257         estimate D2E/DX2                !
 ! D106  D(16,14,15,40)         71.0925         estimate D2E/DX2                !
 ! D107  D(16,14,15,41)        -50.8876         estimate D2E/DX2                !
 ! D108  D(16,14,15,42)       -170.4241         estimate D2E/DX2                !
 ! D109  D(39,14,15,40)       -172.1826         estimate D2E/DX2                !
 ! D110  D(39,14,15,41)         65.8373         estimate D2E/DX2                !
 ! D111  D(39,14,15,42)        -53.6993         estimate D2E/DX2                !
 ! D112  D(13,14,16,7)         -56.9357         estimate D2E/DX2                !
 ! D113  D(13,14,16,43)       -178.7026         estimate D2E/DX2                !
 ! D114  D(13,14,16,44)         68.9559         estimate D2E/DX2                !
 ! D115  D(15,14,16,7)         175.2209         estimate D2E/DX2                !
 ! D116  D(15,14,16,43)         53.4541         estimate D2E/DX2                !
 ! D117  D(15,14,16,44)        -58.8874         estimate D2E/DX2                !
 ! D118  D(39,14,16,7)          59.5916         estimate D2E/DX2                !
 ! D119  D(39,14,16,43)        -62.1753         estimate D2E/DX2                !
 ! D120  D(39,14,16,44)       -174.5168         estimate D2E/DX2                !
 --------------------------------------------------------------------------------
 Trust Radius=3.00D-01 FncErr=1.00D-07 GrdErr=1.00D-06 EigMax=2.50D+02 EigMin=1.00D-04
 Number of steps in this run=    260 maximum allowed number of steps=    264.
 GradGradGradGradGradGradGradGradGradGradGradGradGradGradGradGradGradGrad

                          Input orientation:                          
 ---------------------------------------------------------------------
 Center     Atomic      Atomic             Coordinates (Angstroms)
 Number     Number       Type             X           Y           Z
 ---------------------------------------------------------------------
      1          6           0        0.878850    0.013230   -0.019490
      2          8           0        2.297460    0.045780   -0.068250
      3          6           0        2.718500    0.861320   -1.152470
      4          6           0        4.223600    0.914910   -1.182210
      5          6           0        4.672350    1.822240   -2.326150
      6          6           0        6.160580    2.023420   -2.185070
      7          6           0        6.884940    2.608060   -3.401840
      8          6           0        8.078340    3.467810   -2.923450
      9          6           0        9.331020    2.739400   -2.413300
     10          6           0        9.139280    1.697110   -1.310000
     11          6           0        9.548820    0.263640   -1.678900
     12          6           0        9.071000   -0.313780   -3.019100
     13          8           0        7.654110   -0.383290   -3.091810
     14          6           0        7.032840    0.118630   -4.279440
     15          6           0        7.366340   -0.752270   -5.488220
     16          6           0        7.297240    1.615740   -4.526860
     17          1           0        0.571870   -0.613660    0.818790
     18          1           0        0.483550   -0.409850   -0.948170
     19          1           0        0.486390    1.024480    0.127550
     20          1           0        2.323510    1.875110   -1.022250
     21          1           0        2.348160    0.444880   -2.095580
     22          1           0        4.638850   -0.095640   -1.302870
     23          1           0        4.607050    1.275450   -0.217280
     24          1           0        4.175110    2.796760   -2.260930
     25          1           0        4.403820    1.377440   -3.288900
     26          1           0        6.583200    1.066660   -1.894170
     27          1           0        6.299180    2.681740   -1.317900
     28          1           0        6.186010    3.320420   -3.865710
     29          1           0        7.727130    4.155280   -2.140110
     30          1           0        8.383910    4.118780   -3.753080
     31          1           0        9.999920    3.516100   -2.019640
     32          1           0        9.876260    2.313400   -3.261260
     33          1           0        8.138860    1.700300   -0.880670
     34          1           0        9.750530    1.999800   -0.449630
     35          1           0        9.204450   -0.390590   -0.869860
     36          1           0       10.645660    0.223570   -1.672880
     37          1           0        9.434460   -1.345730   -3.087470
     38          1           0        9.513510    0.225130   -3.856440
     39          1           0        5.953840    0.000840   -4.125160
     40          1           0        8.444000   -0.824670   -5.658360
     41          1           0        6.893080   -0.369670   -6.398160
     42          1           0        7.002360   -1.772190   -5.319050
     43          1           0        6.764480    1.911810   -5.441230
     44          1           0        8.352210    1.763600   -4.782840
 ---------------------------------------------------------------------
                    Distance matrix (angstroms):
                    1          2          3          4          5
     1  C    0.000000
     2  O    1.419821   0.000000
     3  C    2.321037   1.420533   0.000000
     4  C    3.654080   2.388788   1.506347   0.000000
     5  C    4.794146   3.727469   2.473544   1.527489   0.000000
     6  C    6.052047   4.828632   3.776858   2.446715   1.508378
     7  C    7.365226   6.222787   5.046780   3.856974   2.582668
     8  C    8.497044   7.299386   6.217559   4.940469   3.829548
     9  C    9.197908   7.888334   6.988726   5.561482   4.748893
    10  C    8.528515   7.146981   6.476865   4.979164   4.582759
    11  C    8.830896   7.431277   6.876600   5.387840   5.160245
    12  C    8.730173   7.397138   6.724539   5.327394   4.938713
    13  O    7.449868   6.166013   5.447049   4.135250   3.787016
    14  C    7.485311   6.337448   5.379875   4.256610   3.505644
    15  C    8.519420   7.463679   6.557806   5.585519   4.887164
    16  C    8.005008   6.880536   5.737640   4.596206   3.431591
    17  H    1.090844   2.049234   3.266413   4.435725   5.712985
    18  H    1.094397   2.066913   2.579266   3.974637   4.942378
    19  H    1.094656   2.067889   2.578253   3.961593   4.917248
    20  H    2.561087   2.063309   1.095785   2.134927   2.687006
    21  H    2.579795   2.066862   1.095459   2.138328   2.711483
    22  H    3.974483   2.650734   2.150846   1.099183   2.174049
    23  H    3.941040   2.620783   2.147721   1.099142   2.179582
    24  H    4.861833   3.987644   2.663893   2.169642   1.095988
    25  H    4.997552   4.072181   2.769660   2.164384   1.094003
    26  H    6.096208   4.769040   3.940582   2.469337   2.099728
    27  H    6.179546   4.952138   4.020269   2.729127   2.098067
    28  H    7.341448   6.345454   5.043062   4.103499   2.627918
    29  H    8.279647   7.117718   6.075523   4.867473   3.848294
    30  H    9.333872   8.198303   7.033569   5.846566   4.591939
    31  H    9.973195   8.670579   7.798648   6.390098   5.598760
    32  H    9.836323   8.530863   7.601912   6.183105   5.310023
    33  H    7.503038   6.125310   5.491636   4.004625   3.757788
    34  H    9.101549   7.714395   7.158182   5.679843   5.416712
    35  H    8.378652   6.967030   6.611709   5.158562   5.249507
    36  H    9.908003   8.502875   7.969782   6.477775   6.217953
    37  H    9.190089   7.873294   7.329353   5.991124   5.770038
    38  H    9.451161   8.151928   7.340869   5.967449   5.322535
    39  H    6.527802   5.461653   4.477135   3.534149   2.862892
    40  H    9.472615   8.353859   7.478433   6.393265   5.686396
    41  H    8.775250   7.833268   6.816137   5.998533   5.130046
    42  H    8.292794   7.280934   6.530484   5.661754   5.225545
    43  H    8.224385   7.232237   5.988902   5.058570   3.753499
    44  H    9.033516   7.863731   6.762572   5.543486   4.424945
                    6          7          8          9         10
     6  C    0.000000
     7  C    1.532002   0.000000
     8  C    2.511826   1.546684   0.000000
     9  C    3.258283   2.641547   1.536243   0.000000
    10  C    3.121679   3.207440   2.619961   1.529838   0.000000
    11  C    3.851390   3.944754   3.738706   2.591557   1.535789
    12  C    3.824742   3.669128   3.910875   3.123542   2.639955
    13  O    2.974065   3.104177   3.878052   3.608822   3.115869
    14  C    2.962338   2.643732   3.761487   3.953801   3.968156
    15  C    4.479856   3.984538   4.989395   5.050432   5.157548
    16  C    2.634802   1.555751   2.571226   3.141020   3.707819
    17  H    6.871029   8.249124   9.327907   9.920289   9.125345
    18  H    6.299158   7.490399   8.753217   9.504846   8.915821
    19  H    6.208263   7.477016   8.539096   9.360788   8.797243
    20  H    4.012138   5.196759   6.266524   7.196333   6.824163
    21  H    4.127268   5.193076   6.531343   7.357044   6.950146
    22  H    2.753971   4.093970   5.211002   5.593475   4.844365
    23  H    2.616317   4.135947   4.917281   5.411243   4.681126
    24  H    2.132112   2.946262   4.015526   5.158480   5.172667
    25  H    2.173002   2.771847   4.243265   5.186416   5.142258
    26  H    1.085643   2.177161   3.010047   3.258538   2.696714
    27  H    1.097533   2.165952   2.522124   3.224171   3.005949
    28  H    2.123065   1.100516   2.119078   3.512573   4.229491
    29  H    2.645927   2.166826   1.099811   2.156806   2.953955
    30  H    3.434004   2.156978   1.097917   2.143529   3.521890
    31  H    4.122620   3.526771   2.124070   1.098025   2.133779
    32  H    3.879246   3.009083   2.163168   1.094440   2.174941
    33  H    2.391539   2.958486   2.701982   2.202255   1.088657
    34  H    3.987487   4.158982   3.327320   2.139859   1.097946
    35  H    4.101508   4.558832   4.513602   3.492143   2.134587
    36  H    4.859809   4.776831   4.322054   2.933582   2.138266
    37  H    4.783700   4.715012   5.003612   4.141677   3.536298
    38  H    4.155654   3.576926   3.666764   2.904739   2.964984
    39  H    2.810253   2.861422   4.239987   4.672849   4.577061
    40  H    5.038786   4.393880   5.102825   4.901001   5.074547
    41  H    4.900364   4.224320   5.310810   5.611504   5.933495
    42  H    4.993704   4.782894   5.861248   5.849828   5.716201
    43  H    3.313568   2.158330   3.238299   4.054675   4.769993
    44  H    3.408689   2.184755   2.537059   2.743169   3.561533
                   11         12         13         14         15
    11  C    0.000000
    12  C    1.535533   0.000000
    13  O    2.450461   1.420456   0.000000
    14  C    3.621325   2.435063   1.431211   0.000000
    15  C    4.506241   3.032275   2.441667   1.526708   0.000000
    16  C    3.874102   3.023675   2.486533   1.540280   2.556650
    17  H    9.359153   9.330302   8.093453   8.262707   9.271592
    18  H    9.119576   8.834154   7.484172   7.366807   8.252400
    19  H    9.271989   9.240556   7.982625   7.943433   9.056899
    20  H    7.431899   7.369347   6.148068   5.989349   7.230363
    21  H    7.214983   6.828252   5.461817   5.178987   6.174569
    22  H    4.937437   4.757834   3.517789   3.825842   5.038603
    23  H    5.251779   5.504789   4.505432   4.870712   6.285550
    24  H    5.969273   5.849788   4.786076   4.406062   5.761507
    25  H    5.504877   4.971477   3.701810   3.078558   4.260188
    26  H    3.079949   3.059449   2.164150   2.605849   4.103536
    27  H    4.066656   4.421562   3.791702   3.984785   5.506616
    28  H    5.043266   4.716707   4.058535   3.337627   4.540101
    29  H    4.321589   4.748801   4.637853   4.620965   5.951811
    30  H    4.530049   4.545152   4.608527   4.254838   5.270037
    31  H    3.301226   4.065685   4.675213   5.045103   6.098014
    32  H    2.610095   2.758471   3.498400   3.733463   4.545039
    33  H    2.165445   3.081929   3.076600   3.908529   5.276495
    34  H    2.136830   3.523718   4.129795   5.058862   6.216562
    35  H    1.095971   2.154749   2.709367   4.074363   4.983845
    36  H    1.097588   2.140235   3.366157   4.456191   5.124746
    37  H    2.141780   1.096220   2.023847   3.054983   3.223805
    38  H    2.178167   1.089668   2.100524   2.518729   2.868511
    39  H    4.356275   3.322505   2.026397   1.096320   2.102442
    40  H    4.270966   2.760404   2.721382   2.186917   1.093408
    41  H    5.452105   4.020511   3.392831   2.178748   1.094691
    42  H    4.886692   3.419942   2.704518   2.157989   1.096055
    43  H    4.962272   4.017462   3.402749   2.153432   2.731623
    44  H    3.649137   2.818323   2.820649   2.167966   2.792687
                   16         17         18         19         20
    16  C    0.000000
    17  H    8.875630   0.000000
    18  H    7.958417   1.780867   0.000000
    19  H    8.270478   1.780062   1.792898   0.000000
    20  H    6.089955   3.556915   2.934618   2.328223   0.000000
    21  H    5.636970   3.573411   2.350294   2.957098   1.788352
    22  H    4.515525   4.616288   4.182231   4.532515   3.053425
    23  H    5.091699   4.574369   4.514165   4.142672   2.494419
    24  H    4.034469   5.839433   5.062934   4.738404   2.410848
    25  H    3.156139   5.959986   4.903258   5.209891   3.116579
    26  H    2.782517   6.805859   6.346710   6.423412   4.422533
    27  H    3.525607   6.944580   6.596680   6.214850   4.067433
    28  H    2.139599   8.303017   7.412490   7.328242   5.009301
    29  H    3.511502   9.093713   8.644685   8.208076   5.970586
    30  H    2.836335  10.214008   9.528468   9.327637   7.015692
    31  H    4.147529  10.677066  10.349997  10.066074   7.912958
    32  H    2.956318  10.572897  10.049352  10.065536   7.889822
    33  H    3.743017   8.093325   7.941099   7.748131   5.819699
    34  H    4.773881   9.627402   9.588111   9.333203   7.450105
    35  H    4.586552   8.799019   8.721273   8.888297   7.245961
    36  H    4.614678  10.411082  10.207591  10.348612   8.509353
    37  H    3.925539   9.712893   9.250474   9.799092   8.074934
    38  H    2.700946  10.124933   9.507966   9.899497   7.902605
    39  H    2.138688   7.333884   6.339243   7.001885   5.130325
    40  H    2.924201  10.196491   9.258873  10.010977   8.138963
    41  H    2.758072   9.596958   8.413446   9.250634   7.404081
    42  H    3.491789   8.964735   7.965893   8.941179   7.325089
    43  H    1.098892   9.160473   8.063980   8.438784   6.265058
    44  H    1.095605   9.877414   9.019112   9.302115   7.106314
                   21         22         23         24         25
    21  H    0.000000
    22  H    2.483508   0.000000
    23  H    3.052940   1.749115   0.000000
    24  H    2.982688   3.082030   2.584078   0.000000
    25  H    2.553315   2.483852   3.080025   1.767343   0.000000
    26  H    4.285177   2.341169   2.600139   2.987751   2.606061
    27  H    4.606396   3.235856   2.460146   2.326845   3.029592
    28  H    5.111867   4.542171   4.470577   2.625501   2.698904
    29  H    6.534705   5.320598   4.661072   3.804868   4.481127
    30  H    7.257763   6.147385   5.903480   4.657064   4.855051
    31  H    8.245459   6.503806   6.111633   5.874018   6.123824
    32  H    7.843626   6.088450   6.173146   5.808391   5.551971
    33  H    6.048495   3.956479   3.618600   4.338048   4.455820
    34  H    7.740931   5.590005   5.199428   5.916186   6.085729
    35  H    7.014921   4.595563   4.933319   6.114617   5.658952
    36  H    8.311207   6.026655   6.300003   6.988213   6.550077
    37  H    7.376027   5.267390   6.197779   6.745677   5.723947
    38  H    7.381813   5.512343   6.198387   6.136566   5.268667
    39  H    4.161405   3.115097   4.325506   3.802158   2.235379
    40  H    7.173871   5.829318   6.981264   6.548336   5.175585
    41  H    6.311259   5.578407   6.792321   5.876250   4.349288
    42  H    6.080110   4.952444   6.407314   6.182293   4.560054
    43  H    5.731417   5.066970   5.687628   4.195507   3.238949
    44  H    6.708875   5.418118   5.925272   4.987546   4.239193
                   26         27         28         29         30
    26  H    0.000000
    27  H    1.738171   0.000000
    28  H    3.020623   2.629079   0.000000
    29  H    3.302822   2.210518   2.459621   0.000000
    30  H    4.001692   3.513016   2.341117   1.741943   0.000000
    31  H    4.205886   3.857988   4.241718   2.364030   2.445307
    32  H    3.777240   4.087520   3.872647   3.044382   2.393406
    33  H    1.961826   2.130450   3.917764   2.789738   3.762956
    34  H    3.604085   3.623638   5.110718   3.405578   4.155780
    35  H    3.169186   4.252122   5.644262   4.945801   5.414856
    36  H    4.154919   5.006046   5.855550   4.918787   4.961392
    37  H    3.920877   5.402025   5.738557   5.837258   5.604245
    38  H    3.625658   4.776090   4.544575   4.645753   4.055514
    39  H    2.551349   3.897075   3.337788   4.934000   4.795948
    40  H    4.605305   5.977856   5.049147   6.139372   5.298245
    41  H    4.737615   5.955910   4.531006   6.269115   5.418967
    42  H    4.468173   6.028363   5.358479   6.765046   6.250158
    43  H    3.650860   4.220325   2.191135   4.105758   3.216072
    44  H    3.458256   4.130826   2.820858   3.618685   2.570658
                   31         32         33         34         35
    31  H    0.000000
    32  H    1.733032   0.000000
    33  H    2.838649   3.010259   0.000000
    34  H    2.196882   2.831857   1.694986   0.000000
    35  H    4.149336   3.671741   2.346789   2.487722   0.000000
    36  H    3.373126   2.735382   3.015356   2.335078   1.760432
    37  H    5.009730   3.689800   3.978297   4.272080   2.425488
    38  H    3.800120   2.201522   3.594579   3.848634   3.065010
    39  H    5.758562   4.634613   4.264879   5.649798   4.616997
    40  H    5.873964   4.200588   5.412477   6.067579   4.867899
    41  H    6.627451   5.092973   6.023242   7.011734   5.992076
    42  H    6.916465   5.402393   5.748829   6.744746   5.152990
    43  H    4.974846   3.820565   4.767847   5.817242   5.670267
    44  H    3.663534   2.222659   3.908511   4.559364   4.547335
                   36         37         38         39         40
    36  H    0.000000
    37  H    2.435318   0.000000
    38  H    2.459614   1.750761   0.000000
    39  H    5.298723   3.873599   3.576838   0.000000
    40  H    4.672276   2.803924   2.343682   3.038596   0.000000
    41  H    6.063173   4.286254   3.698754   2.487163   1.777549
    42  H    5.527318   3.328202   3.526243   2.380841   1.758195
    43  H    5.666937   4.824992   3.593552   2.457841   3.218114
    44  H    4.159742   3.703171   2.138627   3.048285   2.733880
                   41         42         43         44
    41  H    0.000000
    42  H    1.772987   0.000000
    43  H    2.477378   3.693693   0.000000
    44  H    3.047812   3.822490   1.725204   0.000000
 Stoichiometry    C14H28O2
 Framework group  C1[X(C14H28O2)]
 Deg. of freedom   126
 Full point group                 C1      NOp   1
 Largest Abelian subgroup         C1      NOp   1
 Largest concise Abelian subgroup C1      NOp   1
                         Standard orientation:                         
 ---------------------------------------------------------------------
 Center     Atomic      Atomic             Coordinates (Angstroms)
 Number     Number       Type             X           Y           Z
 ---------------------------------------------------------------------
      1          6           0        6.049627    0.158950    0.463192
      2          8           0        4.715452   -0.088465    0.881109
      3          6           0        3.849953   -0.058390   -0.244911
      4          6           0        2.440620   -0.349263    0.200349
      5          6           0        1.518702   -0.352875   -1.017549
      6          6           0        0.173061   -0.860789   -0.563150
      7          6           0       -0.999190   -0.628771   -1.521808
      8          6           0       -2.012725   -1.788703   -1.382042
      9          6           0       -2.914898   -1.809913   -0.138790
     10          6           0       -2.232605   -1.726617    1.227937
     11          6           0       -2.606999   -0.503732    2.078248
     12          6           0       -2.598395    0.881170    1.415048
     13          8           0       -1.306618    1.234678    0.941719
     14          6           0       -1.214538    1.750733   -0.390037
     15          6           0       -1.880343    3.120241   -0.499542
     16          6           0       -1.695497    0.761424   -1.468188
     17          1           0        6.701270    0.129665    1.337517
     18          1           0        6.117252    1.147072   -0.002368
     19          1           0        6.368215   -0.611329   -0.246347
     20          1           0        4.164486   -0.819122   -0.968167
     21          1           0        3.888552    0.929756   -0.716195
     22          1           0        2.110512    0.399206    0.934533
     23          1           0        2.403305   -1.312804    0.727899
     24          1           0        1.907949   -1.023913   -1.791749
     25          1           0        1.458639    0.650650   -1.449027
     26          1           0       -0.018657   -0.421524    0.410971
     27          1           0        0.297669   -1.935954   -0.381291
     28          1           0       -0.591133   -0.725523   -2.539287
     29          1           0       -1.468192   -2.742586   -1.438395
     30          1           0       -2.662245   -1.782544   -2.267201
     31          1           0       -3.465801   -2.759072   -0.174305
     32          1           0       -3.688121   -1.041458   -0.235758
     33          1           0       -1.149900   -1.828817    1.178158
     34          1           0       -2.513382   -2.620368    1.800525
     35          1           0       -1.928772   -0.487089    2.938994
     36          1           0       -3.616221   -0.675460    2.474075
     37          1           0       -2.859364    1.620641    2.181061
     38          1           0       -3.366586    0.950280    0.645318
     39          1           0       -0.147861    1.931076   -0.567784
     40          1           0       -2.933060    3.090601   -0.205522
     41          1           0       -1.812143    3.516584   -1.517683
     42          1           0       -1.382270    3.826894    0.174180
     43          1           0       -1.565414    1.235110   -2.451175
     44          1           0       -2.780035    0.629537   -1.386136
 ---------------------------------------------------------------------
 Rotational constants (GHZ):           0.7246185           0.2364315           0.2224774
 Standard basis: 6-31G(2df,p) (6D, 7F)
 There are   636 symmetry adapted cartesian basis functions of A   symmetry.
 There are   588 symmetry adapted basis functions of A   symmetry.
   588 basis functions,   900 primitive gaussians,   636 cartesian basis functions
    64 alpha electrons       64 beta electrons
       nuclear repulsion energy      1227.7723236950 Hartrees.
 NAtoms=   44 NActive=   44 NUniq=   44 SFac= 1.00D+00 NAtFMM=   60 NAOKFM=F Big=F
 Integral buffers will be    131072 words long.
 Raffenetti 2 integral format.
 Two-electron integral symmetry is turned on.
 One-electron integrals computed using PRISM.
 PrsmSu:  requested number of processors reduced to:  12 ShMem   1 Linda.
 NBasis=   588 RedAO= T EigKep=  4.35D-04  NBF=   588
 NBsUse=   588 1.00D-06 EigRej= -1.00D+00 NBFU=   588
 ExpMin= 1.61D-01 ExpMax= 5.48D+03 ExpMxC= 8.25D+02 IAcc=3 IRadAn=         5 AccDes= 0.00D+00
 Harris functional with IExCor=  402 and IRadAn=       5 diagonalized for initial guess.
 HarFok:  IExCor=  402 AccDes= 0.00D+00 IRadAn=         5 IDoV= 1 UseB2=F ITyADJ=14
 ICtDFT=  3500011 ScaDFX=  1.000000  1.000000  1.000000  1.000000
 FoFCou: FMM=F IPFlag=           0 FMFlag=      100000 FMFlg1=           0
         NFxFlg=           0 DoJE=T BraDBF=F KetDBF=T FulRan=T
         wScrn=  0.000000 ICntrl=       500 IOpCl=  0 I1Cent=   200000004 NGrid=           0
         NMat0=    1 NMatS0=      1 NMatT0=    0 NMatD0=    1 NMtDS0=    0 NMtDT0=    0
 Petite list used in FoFCou.
 Requested convergence on RMS density matrix=1.00D-08 within 128 cycles.
 Requested convergence on MAX density matrix=1.00D-06.
 Requested convergence on             energy=1.00D-06.
 No special actions if energy rises.
 Integral accuracy reduced to 1.0D-05 until final iterations.
 Initial convergence to 1.0D-05 achieved.  Increase integral accuracy.
 SCF Done:  E(RB3LYP) =  -700.810605069     A.U. after   12 cycles
            NFock= 12  Conv=0.65D-08     -V/T= 2.0079

 **********************************************************************

            Population analysis using the SCF density.

 **********************************************************************

 Orbital symmetries:
       Occupied  (A) (A) (A) (A) (A) (A) (A) (A) (A) (A) (A) (A)
                 (A) (A) (A) (A) (A) (A) (A) (A) (A) (A) (A) (A)
                 (A) (A) (A) (A) (A) (A) (A) (A) (A) (A) (A) (A)
                 (A) (A) (A) (A) (A) (A) (A) (A) (A) (A) (A) (A)
                 (A) (A) (A) (A) (A) (A) (A) (A) (A) (A) (A) (A)
                 (A) (A) (A) (A)
       Virtual   (A) (A) (A) (A) (A) (A) (A) (A) (A) (A) (A) (A)
                 (A) (A) (A) (A) (A) (A) (A) (A) (A) (A) (A) (A)
                 (A) (A) (A) (A) (A) (A) (A) (A) (A) (A) (A) (A)
                 (A) (A) (A) (A) (A) (A) (A) (A) (A) (A) (A) (A)
                 (A) (A) (A) (A) (A) (A) (A) (A) (A) (A) (A) (A)
                 (A) (A) (A) (A) (A) (A) (A) (A) (A) (A) (A) (A)
                 (A) (A) (A) (A) (A) (A) (A) (A) (A) (A) (A) (A)
                 (A) (A) (A) (A) (A) (A) (A) (A) (A) (A) (A) (A)
                 (A) (A) (A) (A) (A) (A) (A) (A) (A) (A) (A) (A)
                 (A) (A) (A) (A) (A) (A) (A) (A) (A) (A) (A) (A)
                 (A) (A) (A) (A) (A) (A) (A) (A) (A) (A) (A) (A)
                 (A) (A) (A) (A) (A) (A) (A) (A) (A) (A) (A) (A)
                 (A) (A) (A) (A) (A) (A) (A) (A) (A) (A) (A) (A)
                 (A) (A) (A) (A) (A) (A) (A) (A) (A) (A) (A) (A)
                 (A) (A) (A) (A) (A) (A) (A) (A) (A) (A) (A) (A)
                 (A) (A) (A) (A) (A) (A) (A) (A) (A) (A) (A) (A)
                 (A) (A) (A) (A) (A) (A) (A) (A) (A) (A) (A) (A)
                 (A) (A) (A) (A) (A) (A) (A) (A) (A) (A) (A) (A)
                 (A) (A) (A) (A) (A) (A) (A) (A) (A) (A) (A) (A)
                 (A) (A) (A) (A) (A) (A) (A) (A) (A) (A) (A) (A)
                 (A) (A) (A) (A) (A) (A) (A) (A) (A) (A) (A) (A)
                 (A) (A) (A) (A) (A) (A) (A) (A) (A) (A) (A) (A)
                 (A) (A) (A) (A) (A) (A) (A) (A) (A) (A) (A) (A)
                 (A) (A) (A) (A) (A) (A) (A) (A) (A) (A) (A) (A)
                 (A) (A) (A) (A) (A) (A) (A) (A) (A) (A) (A) (A)
                 (A) (A) (A) (A) (A) (A) (A) (A) (A) (A) (A) (A)
                 (A) (A) (A) (A) (A) (A) (A) (A) (A) (A) (A) (A)
                 (A) (A) (A) (A) (A) (A) (A) (A) (A) (A) (A) (A)
                 (A) (A) (A) (A) (A) (A) (A) (A) (A) (A) (A) (A)
                 (A) (A) (A) (A) (A) (A) (A) (A) (A) (A) (A) (A)
                 (A) (A) (A) (A) (A) (A) (A) (A) (A) (A) (A) (A)
                 (A) (A) (A) (A) (A) (A) (A) (A) (A) (A) (A) (A)
                 (A) (A) (A) (A) (A) (A) (A) (A) (A) (A) (A) (A)
                 (A) (A) (A) (A) (A) (A) (A) (A) (A) (A) (A) (A)
                 (A) (A) (A) (A) (A) (A) (A) (A) (A) (A) (A) (A)
                 (A) (A) (A) (A) (A) (A) (A) (A) (A) (A) (A) (A)
                 (A) (A) (A) (A) (A) (A) (A) (A) (A) (A) (A) (A)
                 (A) (A) (A) (A) (A) (A) (A) (A) (A) (A) (A) (A)
                 (A) (A) (A) (A) (A) (A) (A) (A) (A) (A) (A) (A)
                 (A) (A) (A) (A) (A) (A) (A) (A) (A) (A) (A) (A)
                 (A) (A) (A) (A) (A) (A) (A) (A) (A) (A) (A) (A)
                 (A) (A) (A) (A) (A) (A) (A) (A) (A) (A) (A) (A)
                 (A) (A) (A) (A) (A) (A) (A) (A) (A) (A) (A) (A)
                 (A) (A) (A) (A) (A) (A) (A) (A)
 The electronic state is 1-A.
 Alpha  occ. eigenvalues --  -19.13056 -19.12714 -10.22923 -10.22029 -10.21454
 Alpha  occ. eigenvalues --  -10.21242 -10.17696 -10.17525 -10.17466 -10.17194
 Alpha  occ. eigenvalues --  -10.17136 -10.17011 -10.16802 -10.16691 -10.16677
 Alpha  occ. eigenvalues --  -10.15491  -1.02041  -1.01721  -0.81851  -0.79577
 Alpha  occ. eigenvalues --   -0.78582  -0.74625  -0.72690  -0.70817  -0.67746
 Alpha  occ. eigenvalues --   -0.66463  -0.62952  -0.60438  -0.58861  -0.57678
 Alpha  occ. eigenvalues --   -0.54357  -0.53874  -0.50102  -0.48569  -0.47332
 Alpha  occ. eigenvalues --   -0.46449  -0.46088  -0.44824  -0.44526  -0.43598
 Alpha  occ. eigenvalues --   -0.43099  -0.42211  -0.41248  -0.39737  -0.39465
 Alpha  occ. eigenvalues --   -0.38320  -0.38155  -0.37540  -0.37264  -0.35911
 Alpha  occ. eigenvalues --   -0.35218  -0.34531  -0.33631  -0.33068  -0.32600
 Alpha  occ. eigenvalues --   -0.32279  -0.31785  -0.30985  -0.30270  -0.29065
 Alpha  occ. eigenvalues --   -0.28684  -0.28048  -0.24564  -0.23861
 Alpha virt. eigenvalues --    0.07295   0.08606   0.09470   0.09804   0.10286
 Alpha virt. eigenvalues --    0.10702   0.12187   0.12890   0.13490   0.13699
 Alpha virt. eigenvalues --    0.14577   0.15401   0.15694   0.15859   0.16159
 Alpha virt. eigenvalues --    0.16537   0.16889   0.17424   0.17553   0.18281
 Alpha virt. eigenvalues --    0.18433   0.19336   0.19665   0.20127   0.20695
 Alpha virt. eigenvalues --    0.20909   0.21389   0.21800   0.22189   0.22865
 Alpha virt. eigenvalues --    0.23178   0.23661   0.24766   0.24983   0.26435
 Alpha virt. eigenvalues --    0.26821   0.27550   0.28447   0.30077   0.30437
 Alpha virt. eigenvalues --    0.32495   0.33372   0.34083   0.35738   0.42153
 Alpha virt. eigenvalues --    0.42776   0.44508   0.46102   0.47222   0.48023
 Alpha virt. eigenvalues --    0.48206   0.49435   0.49865   0.50921   0.51904
 Alpha virt. eigenvalues --    0.53062   0.53191   0.53358   0.53474   0.54607
 Alpha virt. eigenvalues --    0.55367   0.56303   0.56473   0.57161   0.57468
 Alpha virt. eigenvalues --    0.58121   0.59179   0.59601   0.61335   0.62099
 Alpha virt. eigenvalues --    0.63257   0.63993   0.65351   0.65876   0.66536
 Alpha virt. eigenvalues --    0.67559   0.68653   0.69544   0.70652   0.70901
 Alpha virt. eigenvalues --    0.71069   0.71766   0.71778   0.72687   0.73786
 Alpha virt. eigenvalues --    0.73972   0.74037   0.74184   0.75051   0.75621
 Alpha virt. eigenvalues --    0.75853   0.76248   0.76943   0.77301   0.77656
 Alpha virt. eigenvalues --    0.78825   0.79366   0.80103   0.80250   0.80532
 Alpha virt. eigenvalues --    0.81134   0.81316   0.82940   0.83622   0.84066
 Alpha virt. eigenvalues --    0.85328   0.86185   0.86462   0.86617   0.88683
 Alpha virt. eigenvalues --    0.88909   0.89498   0.90125   0.90666   0.90975
 Alpha virt. eigenvalues --    0.91263   0.91976   0.93192   0.95629   0.96525
 Alpha virt. eigenvalues --    0.97605   0.99174   1.01011   1.01794   1.03913
 Alpha virt. eigenvalues --    1.05457   1.06114   1.07754   1.09292   1.10485
 Alpha virt. eigenvalues --    1.11861   1.15075   1.15400   1.17061   1.17962
 Alpha virt. eigenvalues --    1.19681   1.19879   1.22369   1.23313   1.23940
 Alpha virt. eigenvalues --    1.24884   1.25329   1.26263   1.28243   1.30331
 Alpha virt. eigenvalues --    1.32151   1.33277   1.34020   1.35392   1.36534
 Alpha virt. eigenvalues --    1.37031   1.37705   1.38437   1.39244   1.40907
 Alpha virt. eigenvalues --    1.41262   1.42369   1.43069   1.43426   1.44182
 Alpha virt. eigenvalues --    1.45732   1.46161   1.46900   1.48244   1.49681
 Alpha virt. eigenvalues --    1.49976   1.51666   1.53308   1.53671   1.55148
 Alpha virt. eigenvalues --    1.55514   1.57685   1.58807   1.59813   1.61010
 Alpha virt. eigenvalues --    1.61772   1.62911   1.63808   1.64625   1.64970
 Alpha virt. eigenvalues --    1.65952   1.67455   1.68335   1.69173   1.71046
 Alpha virt. eigenvalues --    1.72264   1.73717   1.74231   1.74406   1.75595
 Alpha virt. eigenvalues --    1.77390   1.78417   1.79780   1.81072   1.81359
 Alpha virt. eigenvalues --    1.82876   1.84195   1.85660   1.86177   1.86850
 Alpha virt. eigenvalues --    1.88453   1.89931   1.90460   1.91635   1.93211
 Alpha virt. eigenvalues --    1.93898   1.94998   1.96354   1.97285   1.98019
 Alpha virt. eigenvalues --    2.00969   2.02033   2.03881   2.08558   2.09705
 Alpha virt. eigenvalues --    2.12261   2.16604   2.17254   2.18546   2.19547
 Alpha virt. eigenvalues --    2.19991   2.21071   2.23181   2.24946   2.26583
 Alpha virt. eigenvalues --    2.28293   2.28533   2.31011   2.31483   2.32099
 Alpha virt. eigenvalues --    2.32405   2.34733   2.35622   2.37070   2.38337
 Alpha virt. eigenvalues --    2.39732   2.39958   2.40649   2.44205   2.44489
 Alpha virt. eigenvalues --    2.45696   2.47000   2.48407   2.49243   2.50097
 Alpha virt. eigenvalues --    2.51624   2.52301   2.53994   2.54646   2.58180
 Alpha virt. eigenvalues --    2.59573   2.60922   2.62540   2.65219   2.66469
 Alpha virt. eigenvalues --    2.68694   2.69077   2.71530   2.72097   2.72481
 Alpha virt. eigenvalues --    2.72583   2.74201   2.75038   2.75780   2.76908
 Alpha virt. eigenvalues --    2.77023   2.78364   2.78896   2.80237   2.80797
 Alpha virt. eigenvalues --    2.81059   2.82072   2.83154   2.85175   2.85516
 Alpha virt. eigenvalues --    2.86402   2.86801   2.87778   2.88052   2.89605
 Alpha virt. eigenvalues --    2.89688   2.91007   2.91301   2.91942   2.93849
 Alpha virt. eigenvalues --    2.94093   2.94719   2.95044   2.95520   2.95752
 Alpha virt. eigenvalues --    2.96650   2.98119   2.98289   2.99947   3.00370
 Alpha virt. eigenvalues --    3.00966   3.02060   3.04084   3.04619   3.06453
 Alpha virt. eigenvalues --    3.09586   3.11411   3.12192   3.13686   3.15265
 Alpha virt. eigenvalues --    3.15349   3.19006   3.19600   3.20762   3.21796
 Alpha virt. eigenvalues --    3.23105   3.23553   3.27070   3.28433   3.30150
 Alpha virt. eigenvalues --    3.32245   3.33162   3.33532   3.34741   3.35562
 Alpha virt. eigenvalues --    3.36944   3.37931   3.38816   3.40109   3.40670
 Alpha virt. eigenvalues --    3.41608   3.43104   3.43871   3.46069   3.46408
 Alpha virt. eigenvalues --    3.47214   3.48786   3.49219   3.49741   3.50454
 Alpha virt. eigenvalues --    3.51585   3.53144   3.53885   3.54788   3.55572
 Alpha virt. eigenvalues --    3.56476   3.58058   3.58782   3.61249   3.62450
 Alpha virt. eigenvalues --    3.62580   3.64050   3.65562   3.66189   3.66879
 Alpha virt. eigenvalues --    3.68342   3.69098   3.70720   3.70858   3.72602
 Alpha virt. eigenvalues --    3.73903   3.74716   3.76293   3.77029   3.78428
 Alpha virt. eigenvalues --    3.79066   3.80266   3.81996   3.82452   3.84232
 Alpha virt. eigenvalues --    3.86490   3.88034   3.89717   3.90783   3.91888
 Alpha virt. eigenvalues --    3.96202   3.96292   3.97300   3.99701   4.03085
 Alpha virt. eigenvalues --    4.04090   4.04672   4.06279   4.09785   4.11821
 Alpha virt. eigenvalues --    4.13328   4.18749   4.23613   4.25161   4.28533
 Alpha virt. eigenvalues --    4.31118   4.32165   4.34273   4.36586   4.37399
 Alpha virt. eigenvalues --    4.38713   4.39378   4.40931   4.41794   4.42064
 Alpha virt. eigenvalues --    4.45323   4.46111   4.46278   4.47808   4.47978
 Alpha virt. eigenvalues --    4.48870   4.50045   4.50567   4.52122   4.52814
 Alpha virt. eigenvalues --    4.53268   4.54289   4.55017   4.55857   4.57835
 Alpha virt. eigenvalues --    4.58333   4.59156   4.60704   4.61466   4.62763
 Alpha virt. eigenvalues --    4.63036   4.63428   4.64068   4.65363   4.66042
 Alpha virt. eigenvalues --    4.66324   4.67542   4.68168   4.68357   4.69853
 Alpha virt. eigenvalues --    4.69934   4.71378   4.71744   4.72301   4.72527
 Alpha virt. eigenvalues --    4.73129   4.73989   4.74720   4.75751   4.76779
 Alpha virt. eigenvalues --    4.77973   4.78314   4.79442   4.80792   4.80942
 Alpha virt. eigenvalues --    4.81288   4.83082   4.83898   4.84559   4.85330
 Alpha virt. eigenvalues --    4.85465   4.87382   4.87450   4.88024   4.88477
 Alpha virt. eigenvalues --    4.89297   4.90318   4.93552   4.93884   4.95007
 Alpha virt. eigenvalues --    4.96279   4.96605   4.97231   4.98830   4.99068
 Alpha virt. eigenvalues --    5.01616   5.02756   5.02908   5.04089   5.06717
 Alpha virt. eigenvalues --    5.07903   5.09413   5.11924   5.15263   5.21727
 Alpha virt. eigenvalues --    5.26023   5.26971   5.33559   5.33938   5.36574
 Alpha virt. eigenvalues --    5.40225   5.41213   5.42405   5.42696   5.44432
 Alpha virt. eigenvalues --    5.46291   5.46951   5.48564   5.50191   5.52080
 Alpha virt. eigenvalues --    5.53324   5.54671   5.56657   5.57500   5.61819
 Alpha virt. eigenvalues --    5.72906   5.78822   5.85583   5.93877   5.97215
 Alpha virt. eigenvalues --    5.98623   6.02317   6.02802   6.08175   6.15593
 Alpha virt. eigenvalues --    6.18483   6.21994   6.26225   6.29847   6.61326
 Alpha virt. eigenvalues --    7.00492   7.05666   7.37806  11.16591  11.20693
 Alpha virt. eigenvalues --   11.33785  11.49851  11.71495  11.91775  11.95771
 Alpha virt. eigenvalues --   12.24534  12.30264  12.41519  12.46263  12.65369
 Alpha virt. eigenvalues --   12.73811  13.07276  13.37079  13.71226
          Condensed to atoms (all electrons):
               1          2          3          4          5          6
     1  C    4.824447   0.367043  -0.083394   0.005041  -0.000339   0.000001
     2  O    0.367043   7.691109   0.360887  -0.028358   0.001783  -0.000015
     3  C   -0.083394   0.360887   4.755263   0.432055  -0.042882   0.001539
     4  C    0.005041  -0.028358   0.432055   4.853648   0.379185  -0.031351
     5  C   -0.000339   0.001783  -0.042882   0.379185   4.934332   0.411214
     6  C    0.000001  -0.000015   0.001539  -0.031351   0.411214   4.823995
     7  C   -0.000000   0.000000  -0.000139   0.002048  -0.028426   0.437053
     8  C    0.000000  -0.000000   0.000001  -0.000143   0.002393  -0.026509
     9  C    0.000000  -0.000000   0.000000   0.000003   0.000193  -0.005554
    10  C   -0.000000  -0.000000  -0.000000  -0.000020   0.000680  -0.004038
    11  C    0.000000  -0.000000   0.000000  -0.000007   0.000017  -0.000410
    12  C   -0.000000   0.000000   0.000000   0.000013  -0.000103   0.001941
    13  O   -0.000000   0.000000  -0.000002  -0.000414   0.000911  -0.021255
    14  C   -0.000000   0.000000   0.000006  -0.000101  -0.001788   0.001450
    15  C   -0.000000  -0.000000  -0.000000  -0.000004   0.000131  -0.000113
    16  C    0.000000  -0.000000   0.000002   0.000006   0.000031  -0.032370
    17  H    0.383336  -0.018982   0.005283  -0.000336   0.000001  -0.000000
    18  H    0.369271  -0.033938  -0.006804   0.000196   0.000041   0.000000
    19  H    0.368987  -0.033985  -0.007012   0.000269   0.000036   0.000000
    20  H   -0.006124  -0.032725   0.346930  -0.033188  -0.000573   0.000076
    21  H   -0.005675  -0.032192   0.344499  -0.031359   0.000919   0.000204
    22  H    0.000111   0.002371  -0.028794   0.363041  -0.026054  -0.003923
    23  H    0.000172   0.002863  -0.029929   0.363581  -0.033552  -0.001862
    24  H    0.000005   0.000040  -0.004375  -0.035630   0.353899  -0.022549
    25  H    0.000008  -0.000001  -0.001886  -0.028748   0.353021  -0.025799
    26  H    0.000000   0.000001   0.000488  -0.006037  -0.040636   0.355585
    27  H    0.000000  -0.000000   0.000031  -0.002220  -0.036775   0.356876
    28  H    0.000000   0.000000   0.000012   0.000334  -0.013636  -0.045934
    29  H    0.000000  -0.000000   0.000000  -0.000008   0.000429  -0.009394
    30  H   -0.000000   0.000000  -0.000000   0.000001  -0.000162   0.004017
    31  H    0.000000  -0.000000   0.000000  -0.000000   0.000004   0.000079
    32  H    0.000000  -0.000000   0.000000   0.000000  -0.000003  -0.000277
    33  H    0.000000   0.000000   0.000002   0.000112  -0.000107   0.005428
    34  H   -0.000000  -0.000000  -0.000000   0.000001  -0.000028  -0.000136
    35  H   -0.000000   0.000000   0.000000  -0.000002  -0.000004  -0.000159
    36  H    0.000000  -0.000000   0.000000  -0.000000   0.000001   0.000004
    37  H   -0.000000   0.000000  -0.000000  -0.000000   0.000002  -0.000078
    38  H   -0.000000   0.000000   0.000000  -0.000000  -0.000001  -0.000278
    39  H    0.000000   0.000000  -0.000040   0.000583  -0.000885   0.002801
    40  H   -0.000000   0.000000  -0.000000  -0.000000  -0.000001   0.000004
    41  H    0.000000  -0.000000   0.000000   0.000000  -0.000006   0.000030
    42  H   -0.000000   0.000000   0.000000  -0.000000   0.000000   0.000007
    43  H   -0.000000   0.000000  -0.000000  -0.000009   0.000087   0.003171
    44  H   -0.000000   0.000000  -0.000000   0.000005  -0.000106   0.002125
               7          8          9         10         11         12
     1  C   -0.000000   0.000000   0.000000  -0.000000   0.000000  -0.000000
     2  O    0.000000  -0.000000  -0.000000  -0.000000  -0.000000   0.000000
     3  C   -0.000139   0.000001   0.000000  -0.000000   0.000000   0.000000
     4  C    0.002048  -0.000143   0.000003  -0.000020  -0.000007   0.000013
     5  C   -0.028426   0.002393   0.000193   0.000680   0.000017  -0.000103
     6  C    0.437053  -0.026509  -0.005554  -0.004038  -0.000410   0.001941
     7  C    4.673748   0.390911  -0.029627  -0.001850   0.000328  -0.001235
     8  C    0.390911   4.921474   0.416062  -0.031262   0.002036   0.000692
     9  C   -0.029627   0.416062   4.820668   0.421946  -0.028182  -0.004904
    10  C   -0.001850  -0.031262   0.421946   4.830969   0.404058  -0.031966
    11  C    0.000328   0.002036  -0.028182   0.404058   4.880486   0.417333
    12  C   -0.001235   0.000692  -0.004904  -0.031966   0.417333   4.768844
    13  O    0.001585  -0.000379  -0.000020   0.005818  -0.039054   0.339211
    14  C   -0.022930   0.001052   0.000082   0.000671   0.003300  -0.075708
    15  C    0.003905  -0.000082  -0.000006   0.000040   0.000061  -0.008403
    16  C    0.393291  -0.030374  -0.005885  -0.002066   0.001412  -0.002621
    17  H    0.000000  -0.000000  -0.000000  -0.000000  -0.000000   0.000000
    18  H    0.000000   0.000000  -0.000000   0.000000  -0.000000  -0.000000
    19  H    0.000000   0.000000  -0.000000   0.000000   0.000000   0.000000
    20  H    0.000012   0.000000  -0.000000  -0.000000  -0.000000   0.000000
    21  H    0.000014   0.000000  -0.000000  -0.000000  -0.000000  -0.000000
    22  H    0.000084   0.000001  -0.000000  -0.000012   0.000001  -0.000009
    23  H    0.000285   0.000005  -0.000002  -0.000044  -0.000000  -0.000000
    24  H   -0.000641   0.000090  -0.000000  -0.000011  -0.000000   0.000001
    25  H   -0.005028   0.000164  -0.000007  -0.000016  -0.000000   0.000010
    26  H   -0.022283   0.001003   0.000932  -0.006062  -0.000531  -0.003550
    27  H   -0.035998  -0.010225  -0.000729  -0.003438   0.000023   0.000030
    28  H    0.352346  -0.036408   0.005010  -0.000130  -0.000007   0.000018
    29  H   -0.029909   0.361220  -0.034762  -0.004477  -0.000032  -0.000000
    30  H   -0.026931   0.349552  -0.031610   0.005128  -0.000158  -0.000013
    31  H    0.003905  -0.030811   0.362716  -0.031696   0.003939  -0.000110
    32  H   -0.004910  -0.035526   0.369977  -0.044890  -0.010991   0.000073
    33  H   -0.002486  -0.010213  -0.036944   0.374162  -0.033736  -0.002902
    34  H    0.000012   0.004090  -0.033964   0.354374  -0.029055   0.004537
    35  H   -0.000034  -0.000133   0.004288  -0.033350   0.362242  -0.028615
    36  H    0.000010  -0.000069  -0.002718  -0.030034   0.350537  -0.030232
    37  H    0.000061  -0.000013   0.000106   0.005085  -0.043097   0.362381
    38  H    0.000106  -0.000516   0.002077  -0.008395  -0.031591   0.354183
    39  H   -0.006526  -0.000079  -0.000004  -0.000018  -0.000229   0.005133
    40  H   -0.000003  -0.000003  -0.000005   0.000004  -0.000054   0.002629
    41  H    0.000014   0.000003  -0.000001  -0.000000  -0.000001  -0.000056
    42  H   -0.000135   0.000001   0.000000  -0.000001   0.000010   0.000641
    43  H   -0.021166   0.003866  -0.000008   0.000046  -0.000013  -0.000065
    44  H   -0.034040  -0.017042   0.002478   0.000370  -0.000863  -0.000769
              13         14         15         16         17         18
     1  C   -0.000000  -0.000000  -0.000000   0.000000   0.383336   0.369271
     2  O    0.000000   0.000000  -0.000000  -0.000000  -0.018982  -0.033938
     3  C   -0.000002   0.000006  -0.000000   0.000002   0.005283  -0.006804
     4  C   -0.000414  -0.000101  -0.000004   0.000006  -0.000336   0.000196
     5  C    0.000911  -0.001788   0.000131   0.000031   0.000001   0.000041
     6  C   -0.021255   0.001450  -0.000113  -0.032370  -0.000000   0.000000
     7  C    0.001585  -0.022930   0.003905   0.393291   0.000000   0.000000
     8  C   -0.000379   0.001052  -0.000082  -0.030374  -0.000000   0.000000
     9  C   -0.000020   0.000082  -0.000006  -0.005885  -0.000000  -0.000000
    10  C    0.005818   0.000671   0.000040  -0.002066  -0.000000   0.000000
    11  C   -0.039054   0.003300   0.000061   0.001412  -0.000000  -0.000000
    12  C    0.339211  -0.075708  -0.008403  -0.002621   0.000000  -0.000000
    13  O    7.731305   0.367453  -0.034352  -0.043971  -0.000000  -0.000000
    14  C    0.367453   4.577220   0.387982   0.371552  -0.000000   0.000000
    15  C   -0.034352   0.387982   5.061924  -0.050978  -0.000000  -0.000000
    16  C   -0.043971   0.371552  -0.050978   5.044531   0.000000  -0.000000
    17  H   -0.000000  -0.000000  -0.000000   0.000000   0.581146  -0.036085
    18  H   -0.000000   0.000000  -0.000000  -0.000000  -0.036085   0.643174
    19  H    0.000000   0.000000  -0.000000  -0.000000  -0.036168  -0.049698
    20  H   -0.000000  -0.000000  -0.000000   0.000000  -0.000025  -0.003034
    21  H    0.000000  -0.000001  -0.000000  -0.000001  -0.000053   0.014985
    22  H    0.000547   0.000163  -0.000006   0.000045   0.000009  -0.000050
    23  H    0.000008  -0.000023  -0.000000  -0.000002   0.000008   0.000047
    24  H   -0.000015   0.000137  -0.000003  -0.000245   0.000000   0.000000
    25  H    0.000061  -0.002276  -0.000163   0.001694   0.000000  -0.000002
    26  H    0.029739   0.001909   0.000678  -0.013117   0.000000   0.000000
    27  H    0.000478  -0.000600  -0.000008   0.005542   0.000000  -0.000000
    28  H   -0.000048   0.002533  -0.000186  -0.041444   0.000000   0.000000
    29  H    0.000001  -0.000124   0.000002   0.004516  -0.000000   0.000000
    30  H    0.000006   0.000150   0.000003  -0.002998   0.000000   0.000000
    31  H    0.000003   0.000014  -0.000000   0.000128  -0.000000   0.000000
    32  H   -0.000109  -0.000795   0.000010   0.001442  -0.000000   0.000000
    33  H   -0.000515  -0.000168  -0.000007   0.000381   0.000000   0.000000
    34  H    0.000013   0.000005   0.000000   0.000004   0.000000  -0.000000
    35  H   -0.000418  -0.000117  -0.000003   0.000026   0.000000   0.000000
    36  H    0.002671  -0.000213   0.000018  -0.000009   0.000000   0.000000
    37  H   -0.025431   0.002916   0.001451  -0.000704   0.000000  -0.000000
    38  H   -0.028793  -0.009469  -0.000578   0.005420  -0.000000   0.000000
    39  H   -0.025241   0.369906  -0.050136  -0.054701   0.000000  -0.000000
    40  H   -0.004444  -0.021776   0.371334  -0.006095   0.000000   0.000000
    41  H    0.002497  -0.019113   0.360550  -0.001024  -0.000000   0.000000
    42  H    0.001927  -0.015924   0.365040   0.004599  -0.000000   0.000000
    43  H    0.002569  -0.018887  -0.000309   0.339870   0.000000   0.000000
    44  H   -0.004034  -0.027721  -0.004519   0.351282   0.000000  -0.000000
              19         20         21         22         23         24
     1  C    0.368987  -0.006124  -0.005675   0.000111   0.000172   0.000005
     2  O   -0.033985  -0.032725  -0.032192   0.002371   0.002863   0.000040
     3  C   -0.007012   0.346930   0.344499  -0.028794  -0.029929  -0.004375
     4  C    0.000269  -0.033188  -0.031359   0.363041   0.363581  -0.035630
     5  C    0.000036  -0.000573   0.000919  -0.026054  -0.033552   0.353899
     6  C    0.000000   0.000076   0.000204  -0.003923  -0.001862  -0.022549
     7  C    0.000000   0.000012   0.000014   0.000084   0.000285  -0.000641
     8  C    0.000000   0.000000   0.000000   0.000001   0.000005   0.000090
     9  C   -0.000000  -0.000000  -0.000000  -0.000000  -0.000002  -0.000000
    10  C    0.000000  -0.000000  -0.000000  -0.000012  -0.000044  -0.000011
    11  C    0.000000  -0.000000  -0.000000   0.000001  -0.000000  -0.000000
    12  C    0.000000   0.000000  -0.000000  -0.000009  -0.000000   0.000001
    13  O    0.000000  -0.000000   0.000000   0.000547   0.000008  -0.000015
    14  C    0.000000  -0.000000  -0.000001   0.000163  -0.000023   0.000137
    15  C   -0.000000  -0.000000  -0.000000  -0.000006  -0.000000  -0.000003
    16  C   -0.000000   0.000000  -0.000001   0.000045  -0.000002  -0.000245
    17  H   -0.036168  -0.000025  -0.000053   0.000009   0.000008   0.000000
    18  H   -0.049698  -0.003034   0.014985  -0.000050   0.000047   0.000000
    19  H    0.643322   0.015441  -0.002975   0.000041  -0.000059  -0.000000
    20  H    0.015441   0.689802  -0.061633   0.006807  -0.007431   0.006481
    21  H   -0.002975  -0.061633   0.690348  -0.007708   0.007015  -0.000629
    22  H    0.000041   0.006807  -0.007708   0.617633  -0.042722   0.005785
    23  H   -0.000059  -0.007431   0.007015  -0.042722   0.633317  -0.004129
    24  H   -0.000000   0.006481  -0.000629   0.005785  -0.004129   0.661394
    25  H    0.000000  -0.000544   0.004243  -0.006891   0.005987  -0.043885
    26  H   -0.000000   0.000016   0.000011   0.006017  -0.000531   0.006101
    27  H    0.000000   0.000018   0.000001  -0.000302   0.004951  -0.012015
    28  H   -0.000000  -0.000001   0.000001   0.000017   0.000015   0.004937
    29  H    0.000000   0.000000  -0.000000   0.000001  -0.000005   0.000052
    30  H    0.000000   0.000000   0.000000   0.000000   0.000000  -0.000006
    31  H    0.000000   0.000000   0.000000  -0.000000   0.000000  -0.000000
    32  H    0.000000  -0.000000   0.000000  -0.000000  -0.000000   0.000000
    33  H    0.000000  -0.000000   0.000000  -0.000021   0.000266   0.000012
    34  H   -0.000000  -0.000000   0.000000   0.000000   0.000000   0.000000
    35  H   -0.000000   0.000000  -0.000000   0.000012  -0.000000   0.000000
    36  H    0.000000  -0.000000  -0.000000  -0.000000  -0.000000  -0.000000
    37  H    0.000000  -0.000000   0.000000  -0.000001   0.000000  -0.000000
    38  H    0.000000  -0.000000  -0.000000   0.000001   0.000000  -0.000000
    39  H   -0.000000   0.000001   0.000004   0.000239   0.000005  -0.000066
    40  H   -0.000000  -0.000000   0.000000   0.000000  -0.000000   0.000000
    41  H   -0.000000   0.000000   0.000000  -0.000000   0.000000   0.000000
    42  H    0.000000  -0.000000  -0.000000   0.000001  -0.000000   0.000000
    43  H   -0.000000   0.000000   0.000000  -0.000003  -0.000000  -0.000001
    44  H   -0.000000  -0.000000   0.000000  -0.000000   0.000000   0.000004
              25         26         27         28         29         30
     1  C    0.000008   0.000000   0.000000   0.000000   0.000000  -0.000000
     2  O   -0.000001   0.000001  -0.000000   0.000000  -0.000000   0.000000
     3  C   -0.001886   0.000488   0.000031   0.000012   0.000000  -0.000000
     4  C   -0.028748  -0.006037  -0.002220   0.000334  -0.000008   0.000001
     5  C    0.353021  -0.040636  -0.036775  -0.013636   0.000429  -0.000162
     6  C   -0.025799   0.355585   0.356876  -0.045934  -0.009394   0.004017
     7  C   -0.005028  -0.022283  -0.035998   0.352346  -0.029909  -0.026931
     8  C    0.000164   0.001003  -0.010225  -0.036408   0.361220   0.349552
     9  C   -0.000007   0.000932  -0.000729   0.005010  -0.034762  -0.031610
    10  C   -0.000016  -0.006062  -0.003438  -0.000130  -0.004477   0.005128
    11  C   -0.000000  -0.000531   0.000023  -0.000007  -0.000032  -0.000158
    12  C    0.000010  -0.003550   0.000030   0.000018  -0.000000  -0.000013
    13  O    0.000061   0.029739   0.000478  -0.000048   0.000001   0.000006
    14  C   -0.002276   0.001909  -0.000600   0.002533  -0.000124   0.000150
    15  C   -0.000163   0.000678  -0.000008  -0.000186   0.000002   0.000003
    16  C    0.001694  -0.013117   0.005542  -0.041444   0.004516  -0.002998
    17  H    0.000000   0.000000   0.000000   0.000000  -0.000000   0.000000
    18  H   -0.000002   0.000000  -0.000000   0.000000   0.000000   0.000000
    19  H    0.000000  -0.000000   0.000000  -0.000000   0.000000   0.000000
    20  H   -0.000544   0.000016   0.000018  -0.000001   0.000000   0.000000
    21  H    0.004243   0.000011   0.000001   0.000001  -0.000000   0.000000
    22  H   -0.006891   0.006017  -0.000302   0.000017   0.000001   0.000000
    23  H    0.005987  -0.000531   0.004951   0.000015  -0.000005   0.000000
[...]
 04,0.00000174,-0.00000072,-0.00000167,-0.00000615,0.00000702,0.0000020
 2,0.00000032,-0.00000237,0.00001330,-0.00001529,-0.00000748,-0.0000020
 8,-0.00000415,-0.00002302,-0.00001095,-0.00002053,0.00004669,-0.000002
 69,-0.00001874,0.00001949,0.00002727,-0.00005050,-0.00003503,0.0000293
 5,0.00001307,0.00001026,0.00000858,-0.00002106,0.00000910,0.00001004,-
 0.00002660,-0.00000753,0.00001375,0.00002383,-0.00002237,0.00000400,-0
 .00000391,0.00000087,0.00001012,-0.00005377,-0.00001727,-0.00003670,-0
 .00005114,-0.00009705,0.00002142,0.00000686,0.00003682,0.00011406,-0.0
 0018189,0.00011522,0.00010819,0.00041411,-0.00014838,0.00066965,-0.000
 39516,-0.00038290,-0.02034065,0.00494621,-0.01741554,0.21662498,0.0000
 1533,0.00001001,0.00001031,-0.00002739,-0.00001663,0.00000145,0.000021
 31,0.00002045,0.00001402,-0.00000350,0.00001212,-0.00000678,0.00000411
 ,-0.00002509,0.00000927,0.00001320,0.00010075,-0.00002407,0.00014656,0
 .00010744,0.00006186,-0.00007468,0.00003307,0.00005627,-0.00000977,0.0
 0001687,-0.00000589,0.00002102,0.00003476,0.00001036,-0.00010224,0.000
 11010,0.00002394,0.00103415,-0.00054415,-0.00021614,-0.00087884,-0.000
 34863,-0.00460776,-0.01450248,0.00258540,-0.00769962,0.03313831,-0.053
 26790,0.02625850,-0.00001083,-0.00008970,0.00028805,-0.00000249,-0.000
 00118,0.00000060,-0.00000306,-0.00000321,-0.00000483,-0.00000129,-0.00
 000162,-0.00000168,0.00000063,-0.00000632,-0.00000218,-0.00000540,-0.0
 0000419,-0.00000644,0.00000048,-0.00000500,0.00000694,-0.00000375,-0.0
 0000397,0.00000287,0.00000918,-0.00000869,-0.00000248,0.00001735,0.000
 01732,-0.00001262,-0.00002844,0.00000120,0.00002628,-0.00001666,-0.000
 00057,0.00002826,-0.00000444,-0.00000792,0.00000133,0.00003556,0.00002
 842,0.00002445,0.00000673,-0.00000690,0.00000187,0.00001416,-0.0000125
 3,0.00000444,0.00000037,0.00000773,-0.00000207,-0.00001490,0.00001952,
 0.00002319,-0.00001548,-0.00000747,0.00001017,0.00000064,-0.00003053,-
 0.00002016,-0.00004205,-0.00002957,-0.00002940,-0.00019373,0.00018347,
 0.00003220,0.00001600,0.00014539,0.00005411,0.00017195,0.00061805,0.00
 062035,-0.00686117,0.00053604,-0.00581321,-0.03674876,0.05434870,0.000
 01393,-0.00000673,-0.00001179,-0.00001595,-0.00000334,0.00004619,0.000
 00357,-0.00002611,-0.00007088,0.00001264,0.00004226,0.00001876,-0.0000
 3146,-0.00014711,-0.00010008,-0.00002150,0.00017403,-0.00006371,0.0004
 7887,-0.00002791,0.00002852,-0.00012985,0.00008642,0.00013441,-0.00001
 052,0.00007230,-0.00004124,0.00002130,0.00008666,-0.00002619,-0.000371
 73,-0.00007796,0.00022688,0.00312049,0.00004799,-0.00038328,-0.0015304
 2,-0.00401061,-0.00740560,-0.02208707,0.00796774,-0.01353820,-0.125392
 56,0.02509524,-0.14820135,-0.00035936,0.00071812,0.00038299,-0.0000026
 5,-0.00000100,0.00000479,0.00000039,0.00000489,0.00000188,-0.00000190,
 0.00000216,-0.00000084,0.00000524,0.00000406,0.00000612,0.00001344,0.0
 0001948,0.00001840,-0.00000845,-0.00001602,-0.00000148,-0.00000702,-0.
 00000022,0.00002521,0.00003411,0.00000495,0.00001965,0.00002471,0.0000
 4426,0.00001765,-0.00009468,-0.00001454,0.00010837,0.00002729,-0.00002
 511,0.00003456,0.00000682,-0.00006141,-0.00002419,0.00006196,0.0000448
 7,0.00001877,0.00002551,-0.00001295,0.00001021,0.00001595,-0.00003759,
 0.00001196,0.00000552,0.00001094,-0.00000345,-0.00004458,0.00005103,0.
 00008362,-0.00005076,-0.00004880,0.00000369,0.00006865,-0.00000358,0.0
 0004676,-0.00012943,-0.00006067,-0.00011094,-0.00011074,0.00036899,0.0
 0013050,-0.00024615,-0.00026812,0.00023835,0.00045613,0.00080834,0.000
 68467,0.01210555,-0.00290882,0.01021081,0.13834313,-0.02781949,0.16153
 732,0.00000371,0.00001105,0.00001134,-0.00001458,-0.00001868,-0.000005
 19,0.00001525,0.00002405,0.00002578,-0.00001070,0.00002215,-0.00001221
 ,0.00001085,-0.00000474,0.00001183,0.00002644,-0.00001641,-0.00004228,
 0.00067038,0.00021540,-0.00007505,-0.00009540,0.00008190,0.00014861,-0
 .00003761,0.00000265,0.00002968,0.00005016,-0.00000227,0.00004673,-0.0
 0010590,0.00021661,-0.00007888,-0.00018195,-0.00078591,0.00022238,0.00
 026861,-0.00044619,0.00017575,-0.00170004,0.00437736,-0.00192611,-0.04
 760892,0.00729462,-0.00062439,0.00001797,0.00030087,0.00074013,-0.0000
 0168,-0.00000026,-0.00000019,-0.00000307,-0.00000293,-0.00000515,0.000
 00046,-0.00000408,-0.00000116,0.00000291,-0.00000953,-0.00000397,-0.00
 000915,-0.00000487,-0.00001146,0.00000416,-0.00000463,0.00001471,-0.00
 000070,-0.00000932,0.00000010,-0.00000207,-0.00001007,-0.00000726,0.00
 000518,0.00001730,-0.00002045,0.00000276,-0.00000564,-0.00000214,-0.00
 000629,0.00000458,0.00000542,-0.00000189,-0.00001715,-0.00003909,0.000
 05175,0.00004336,0.00002825,-0.00000392,0.00000807,-0.00000904,0.00000
 851,0.00000195,-0.00000343,0.00000842,-0.00001192,-0.00000968,-0.00000
 687,0.00000301,-0.00000504,-0.00000706,0.00002762,0.00001262,-0.000012
 73,-0.00001458,-0.00003407,0.00000728,0.00000121,0.00000384,-0.0002171
 0,0.00014816,-0.00015513,0.00014531,0.00010181,-0.00009950,0.00003770,
 0.00028886,-0.00048865,0.00148085,-0.02755357,0.00608673,-0.00041639,0
 .02473285,-0.00472822,0.04711192,-0.00004013,-0.00001709,-0.00001717,0
 .00007881,0.00004507,-0.00002464,-0.00006126,-0.00003449,-0.00001310,0
 .00003604,-0.00003768,0.00004468,-0.00004435,0.00002746,-0.00004345,-0
 .00011120,-0.00013560,0.00012052,-0.00011744,-0.00045671,0.00109816,0.
 00028846,-0.00005369,-0.00017879,0.00000144,-0.00005715,0.00005793,0.0
 0006460,-0.00002642,0.00009444,-0.00009537,0.00013304,-0.00005702,-0.0
 0034575,-0.00062230,0.00002274,-0.00027435,0.00268205,0.00089803,0.001
 28589,-0.01883276,0.00539971,0.00715867,-0.29722596,0.05877898,0.00079
 715,-0.00069559,-0.00460855,0.00000866,0.00000283,-0.00000462,0.000007
 19,0.00000427,0.00000975,0.00000409,0.00000265,0.00000359,-0.00000207,
 0.00001088,0.00000067,0.00001135,0.00000631,0.00000866,-0.00000189,0.0
 0001403,-0.00001557,0.00000271,0.00000851,-0.00000439,-0.00001377,0.00
 000978,-0.00000205,-0.00002176,-0.00002225,0.00001261,0.00004977,0.000
 04518,-0.00002905,0.00004316,0.00000563,-0.00009141,0.00005884,-0.0003
 0051,-0.00028102,-0.00011433,-0.00009241,-0.00007343,-0.00003162,0.000
 00788,-0.00000020,-0.00004319,0.00001799,-0.00002817,0.00001305,-0.000
 00247,-0.00000677,0.00001555,-0.00000859,-0.00000198,-0.00001436,0.000
 05147,-0.00000290,-0.00001596,0.00001642,-0.00002209,0.00000520,-0.000
 00006,0.00000990,-0.00036745,0.00021471,-0.00010610,0.00010861,0.00010
 664,-0.00012146,0.00033212,0.00080452,-0.00002923,0.00070716,-0.006818
 99,0.00149835,-0.00022351,-0.00348162,0.00066793,-0.00909158,0.3239716
 9,-0.00000363,-0.00000187,-0.00000372,0.00001752,0.00001213,-0.0000044
 3,-0.00001572,-0.00000507,-0.00001469,0.00002959,-0.00001652,0.0000276
 0,-0.00003946,0.00001511,-0.00004763,-0.00011686,-0.00006190,0.0002225
 9,0.00008939,-0.00131802,0.00098581,0.00025738,-0.00003291,-0.00012171
 ,-0.00000095,-0.00003991,0.00000770,0.00000269,-0.00004522,0.00003131,
 -0.00000038,-0.00006844,-0.00000533,-0.00087794,0.00006481,-0.00010875
 ,0.00101820,0.00215985,0.00297737,0.00103897,-0.03005917,0.00587037,-0
 .00134112,0.06096114,-0.06014857,0.00026087,-0.00193039,-0.00534947,0.
 00000251,0.00000040,-0.00000074,0.00000154,0.00000066,0.00000147,0.000
 00025,0.00000087,0.00000026,-0.00000308,0.00000306,0.00000006,0.000004
 85,0.00000301,0.00000381,0.00000181,0.00000877,-0.00001168,-0.00000219
 ,0.00000402,0.00000116,-0.00001530,0.00000972,0.00000233,0.00000657,-0
 .00000355,0.00001601,0.00004214,0.00004601,-0.00002866,0.00001103,0.00
 000955,-0.00004432,0.00008704,-0.00035805,-0.00033705,-0.00010164,-0.0
 0005791,-0.00005150,-0.00001883,-0.00000084,0.00000037,-0.00002883,0.0
 0001944,-0.00001300,-0.00001257,0.00000186,0.00000557,0.00001836,-0.00
 001596,-0.00001287,0.00000656,0.00003062,-0.00000268,-0.00001309,0.000
 02115,0.00000884,0.00002987,0.00001790,0.00002097,-0.00010806,-0.00023
 753,-0.00009641,0.00012297,-0.00004029,-0.00000864,-0.00021671,0.00074
 514,0.00123638,-0.00167504,0.01391685,-0.00394975,0.00085665,0.0192574
 0,-0.00466019,0.00058262,-0.06306231,0.06361539,-0.00002429,-0.0000040
 4,-0.00000985,0.00003513,0.00000826,0.00000206,-0.00002849,-0.00001042
 ,-0.00000997,0.00001164,0.00008560,0.00001402,-0.00030726,-0.00029241,
 -0.00018393,0.00000239,-0.00002544,0.00017164,0.00439691,0.00066094,0.
 00564976,0.00013333,0.00023206,0.00035401,-0.00013742,0.00004426,0.000
 39795,0.00000819,-0.00008210,0.00006693,0.00009633,0.00005108,-0.00007
 323,0.00052083,-0.00029595,0.00025872,0.00095511,0.00061603,0.00029075
 ,-0.00288520,-0.00122979,-0.00100328,-0.00029099,-0.00036938,-0.000331
 39,-0.18875537,0.02208593,-0.12494318,0.00000273,0.00000101,-0.0000005
 9,0.00000250,0.00000322,0.00000378,0.00000348,-0.00000259,0.00000134,0
 .00000579,-0.00000224,0.00000002,0.00000625,0.00000781,0.00000384,0.00
 000461,-0.00000404,-0.00001086,0.00001026,0.00001390,0.00002740,-0.000
 01760,0.00004069,0.00002212,-0.00011124,0.00003429,0.00037767,-0.00000
 214,0.00005000,0.00002156,-0.00008051,0.00007968,0.00006608,0.00187296
 ,-0.00047389,0.00060220,0.00004601,0.00001661,-0.00005136,-0.00000357,
 0.00000541,-0.00001008,0.00008875,-0.00012297,-0.00019985,0.00035261,-
 0.00008809,-0.00028671,-0.00000084,0.00003388,-0.00002611,-0.00000980,
 0.00002807,-0.00006154,-0.00003573,-0.00000451,-0.00006237,-0.00000374
 ,-0.00002040,0.00000521,0.00003076,0.00011742,-0.00010730,0.00033457,-
 0.00017643,-0.00011596,0.00069664,0.00042452,0.00006588,-0.00005382,0.
 00006326,-0.00011209,0.00072094,0.00020684,0.00045440,0.00026238,-0.00
 004366,0.00031822,0.20437075,-0.00002508,0.00000201,-0.00000342,0.0000
 4728,0.00001062,-0.00002161,-0.00003293,0.00002334,0.00001029,0.000056
 77,-0.00007236,0.00002471,0.00004727,0.00031054,0.00005234,-0.00026222
 ,-0.00061684,-0.00014513,-0.01328316,-0.00242149,-0.01405828,0.0009598
 8,-0.00094952,-0.00313992,0.00028631,-0.00017921,0.00006071,0.00000537
 ,-0.00012533,0.00004041,0.00011687,-0.00007250,-0.00015142,-0.00291263
 ,-0.00070816,0.00082567,0.00343865,-0.00811664,0.00389398,0.02543781,-
 0.00300028,0.01985040,0.00022953,0.00038171,-0.00036193,0.02099984,-0.
 04751055,0.02050545,0.00000501,0.00000115,-0.00000299,0.00000232,-0.00
 000022,0.00000234,0.00000367,-0.00000271,0.00000117,0.00000327,-0.0000
 0669,-0.00000456,-0.00000120,-0.00000503,-0.00000508,-0.00000040,0.000
 00566,0.00000858,-0.00000893,-0.00000056,-0.00000982,0.00000404,-0.000
 07464,-0.00003164,-0.00003048,0.00002185,0.00003802,0.00005718,0.00002
 210,-0.00011324,0.00009105,0.00001777,-0.00017685,-0.00083205,0.000596
 77,-0.00128583,-0.00064699,-0.00084776,-0.00045825,-0.00003044,-0.0000
 2414,0.00009904,-0.00004619,0.00005936,-0.00000760,0.00007603,0.000017
 27,0.00006464,0.00000983,-0.00003386,-0.00005076,0.00000560,0.00007977
 ,-0.00000726,-0.00004024,0.00005169,-0.00000464,0.00005589,0.00006865,
 0.00007225,0.00046225,-0.00001025,-0.00019847,0.00004523,0.00038672,-0
 .00041605,-0.00060477,0.00134500,0.00007596,-0.00001596,-0.00007042,-0
 .00003550,0.00001166,-0.00100150,-0.00073020,-0.00033525,0.00039969,0.
 00010726,-0.02589920,0.06071152,0.00003924,0.00000294,-0.00000831,-0.0
 0004831,-0.00002436,0.00006933,0.00005840,0.00002089,-0.00010148,0.000
 25939,0.00022222,0.00017522,-0.00022303,-0.00047968,-0.00047973,-0.000
 47931,-0.00099521,-0.00076512,-0.01782318,0.00030620,-0.01572763,0.002
 12399,-0.00089836,-0.00258384,0.00065003,-0.00001498,-0.00012289,0.000
 01985,0.00001000,0.00005546,-0.00002385,-0.00004454,0.00001740,0.00123
 291,0.00015596,-0.00030258,-0.00071469,0.00288075,-0.00015871,-0.00826
 997,0.00088681,-0.00732813,-0.00000754,-0.00101825,-0.00015376,-0.1251
 7939,0.02081219,-0.15354457,-0.00000554,-0.00000326,0.00000691,-0.0000
 0417,0.00000336,-0.00000231,-0.00000506,0.00000145,-0.00000407,0.00000
 914,-0.00000717,0.00000143,0.00002086,0.00002711,0.00001612,-0.0000190
 3,-0.00004450,0.00002491,-0.00009282,-0.00004297,0.00013827,0.00008096
 ,-0.00003007,-0.00001915,0.00045428,0.00055188,0.00007368,-0.00006950,
 -0.00011821,0.00019151,0.00047396,-0.00006296,-0.00038742,0.00015135,-
 0.00010938,0.00148545,-0.00075899,-0.00079305,-0.00036077,-0.00005304,
 -0.00013767,0.00008563,-0.00009523,0.00005721,0.00009091,-0.00012630,0
 .00013267,0.00022936,-0.00000354,-0.00001705,0.00007075,-0.00003902,-0
 .00000350,-0.00000353,0.00002310,0.00003335,0.00003075,-0.00003355,0.0
 0000250,0.00000300,-0.00025428,-0.00002487,0.00015056,-0.00021069,-0.0
 0009855,0.00014749,0.00027803,-0.00020415,0.00004052,0.00012130,-0.000
 01248,0.00002243,0.00037864,-0.00048891,0.00057618,0.00037136,0.000073
 27,0.00005325,0.13607702,-0.01808245,0.16840504,0.00009522,0.00001021,
 0.00001634,-0.00015281,-0.00005020,0.00006489,0.00012029,0.00001793,-0
 .00003871,0.00000882,0.00008468,0.00000738,0.00011077,-0.00019758,-0.0
 0014260,0.00023168,0.00094876,-0.00081515,-0.00240108,-0.00033737,0.00
 207638,-0.00036086,-0.00093172,-0.00082428,-0.00003326,-0.00016950,-0.
 00069378,-0.00001504,-0.00000226,-0.00002260,0.00010194,0.00000152,-0.
 00000024,-0.00115902,0.00016628,0.00065540,0.00098480,-0.00078961,0.00
 018799,0.00051709,0.00014221,-0.00083256,0.00022652,0.00000199,-0.0002
 3638,-0.22139369,-0.05744961,0.10206326,-0.00001501,-0.00000639,0.0000
 0983,-0.00001050,-0.00000330,-0.00001091,-0.00001292,0.00000680,-0.000
 00704,-0.00000782,0.00000039,0.00000440,-0.00000176,0.00000289,0.00000
 511,-0.00000656,-0.00001651,0.00000666,-0.00003229,-0.00001797,0.00003
 929,0.00000526,0.00001225,0.00001632,0.00016755,0.00014164,0.00000206,
 -0.00002935,-0.00006447,0.00001056,-0.00004772,-0.00006809,0.00012138,
 -0.00015431,0.00029534,0.00048874,0.00000638,0.00017020,-0.00013500,0.
 00027484,0.00051216,0.00008298,0.00019499,-0.00014372,0.00004574,-0.00
 051732,-0.00039836,-0.00084512,-0.00000522,0.00001696,-0.00006125,0.00
 001051,0.00000497,-0.00001238,-0.00000514,-0.00000753,-0.00006432,0.00
 005266,-0.00001320,0.00000271,0.00018657,0.00015083,-0.00022091,-0.000
 40850,0.00103178,-0.00083724,0.00143530,0.00045464,-0.00017138,0.00031
 077,-0.00044694,-0.00031887,-0.00004534,-0.00005537,0.00007541,0.00025
 109,-0.00000352,-0.00021617,-0.02222384,-0.00745048,0.01171619,0.24374
 630,-0.00001381,-0.00000797,-0.00001497,0.00004665,0.00002706,0.000002
 57,-0.00003495,0.00000221,-0.00005053,0.00012227,-0.00000412,0.0000564
 0,-0.00024470,-0.00007812,-0.00028474,0.00027513,-0.00277052,-0.001354
 97,0.01504217,0.00455274,-0.01040259,0.00012799,0.00140421,-0.00093194
 ,-0.00051038,-0.00013793,-0.00027912,0.00003565,-0.00000543,0.00006655
 ,0.00027351,0.00025484,-0.00023138,-0.00033057,-0.00016708,0.00077630,
 0.00172615,0.00194859,-0.00080949,-0.03185173,-0.01110052,0.01409727,-
 0.00068739,0.00176783,0.00139205,-0.05639340,-0.06527815,0.03350556,0.
 00000526,0.00000142,-0.00000122,0.00000394,0.00000308,0.00000514,0.000
 00138,0.00000172,0.00000175,-0.00000595,0.00000793,0.00000440,0.000023
 94,0.00001111,0.00001705,-0.00000030,0.00002410,-0.00004627,-0.0000137
 7,0.00002492,0.00004266,-0.00001693,0.00006950,0.00004355,0.00015982,-
 0.00004273,0.00014475,-0.00011525,0.00007167,-0.00005968,0.00042940,0.
 00047443,-0.00074622,0.00011286,-0.00056653,0.00008966,0.00006566,0.00
 004457,0.00022608,0.00015686,-0.00020438,0.00026878,0.00000441,-0.0000
 4444,0.00001451,-0.00017981,0.00019864,-0.00031117,0.00002064,-0.00001
 900,-0.00000094,-0.00000102,-0.00002906,-0.00000015,-0.00007845,-0.000
 05015,-0.00011399,0.00005919,0.00000660,0.00007152,0.00007545,0.000008
 30,-0.00012867,0.00123320,-0.00039736,0.00008675,0.00060276,-0.0066282
 6,0.00111813,0.00073135,-0.00016675,-0.00083994,0.00003260,-0.00003191
 ,-0.00001437,0.00042412,0.00033364,-0.00006088,0.00423678,0.00133746,-
 0.00242417,0.06444928,0.07515381,-0.00008980,-0.00001105,-0.00002465,0
 .00016763,0.00005341,-0.00004548,-0.00012097,0.00000528,-0.00001791,0.
 00018983,0.00006402,0.00011483,-0.00044778,-0.00016757,-0.00020047,0.0
 0004318,-0.00440002,-0.00198324,0.02052434,0.00630046,-0.01457504,0.00
 108062,0.00076405,0.00073260,0.00015898,-0.00017180,-0.00089137,0.0001
 4090,0.00024332,-0.00008572,-0.00023572,-0.00005581,0.00005822,0.00067
 087,0.00039271,-0.00075563,-0.00060772,-0.00066510,0.00026614,0.008401
 26,0.00301237,-0.00469960,-0.00093700,-0.00067496,0.00027460,0.1015326
 1,0.03316145,-0.10272345,0.00001745,0.00000677,-0.00000894,0.00001040,
 0.00000516,0.00001119,0.00001292,-0.00000640,0.00000647,0.00001496,-0.
 00000445,-0.00000496,0.00002067,0.00001554,0.00000376,0.00000047,0.000
 00109,0.00000692,-0.00002202,-0.00000817,0.00006698,0.00002922,-0.0000
 2165,-0.00001704,0.00004960,0.00011649,0.00009165,-0.00004208,0.000153
 61,0.00022556,0.00077099,0.00048421,-0.00128799,0.00032630,-0.00064759
 ,-0.00053495,0.00004237,0.00022654,0.00045299,-0.00029007,-0.00053835,
 0.00001423,-0.00009501,0.00016134,0.00045281,-0.00141938,0.00005045,0.
 00008669,0.00000640,-0.00008073,0.00012567,-0.00002171,-0.00009051,0.0
 0013611,0.00005909,-0.00002573,0.00010068,-0.00003184,0.00002952,-0.00
 002499,-0.00012704,-0.00019061,0.00025197,-0.00065305,0.00017464,0.000
 49432,-0.00004130,0.00149624,0.00034753,0.00002613,0.00003545,0.000532
 20,-0.00013948,-0.00006480,0.00001617,-0.00013013,0.00002556,-0.000066
 83,-0.01765295,-0.00623032,0.00989243,-0.11119212,-0.03292408,0.113185
 53\\0.00000068,0.00000722,-0.00001116,0.00001128,-0.00000999,0.0000178
 1,-0.00000207,0.00000394,-0.00000957,-0.00000103,-0.00000827,0.0000190
 1,-0.00001312,0.00000432,-0.00000962,0.00001837,0.00000786,0.00001899,
 -0.00001398,-0.00001947,-0.00000078,0.00000235,0.00002624,0.00000747,-
 0.00000601,-0.00000778,0.00000044,-0.00001254,0.00000510,0.00000627,-0
 .00000520,0.00000941,-0.00000405,-0.00000752,-0.00002966,-0.00000373,-
 0.00000203,0.00004383,0.00000127,0.00002970,-0.00001852,0.00000773,-0.
 00000620,-0.00001103,-0.00000211,-0.00001367,-0.00000116,-0.00001307,0
 .00001441,0.00000337,-0.00000228,-0.00000089,-0.00000106,0.00000165,-0
 .00000068,-0.00000107,0.00000123,-0.00000190,-0.00000323,0.00000103,-0
 .00000202,0.00000252,-0.00000101,-0.00000477,0.00000107,-0.00000561,0.
 00000273,0.00000541,-0.00000901,-0.00000386,-0.00000211,-0.00000083,0.
 00000174,-0.00000213,0.00000587,0.00000166,0.00000393,-0.00000584,-0.0
 0000219,0.00000008,-0.00000564,-0.00000169,0.00000834,0.00001082,-0.00
 000134,-0.00000330,-0.00000372,-0.00000660,-0.00000549,0.00000159,0.00
 000563,0.00000615,-0.00000633,0.00000173,0.00000943,0.00000177,0.00000
 415,-0.00000071,-0.00000659,-0.00000167,-0.00000427,-0.00000451,-0.000
 00310,-0.00000292,-0.00000282,0.00000650,-0.00000132,0.00000082,-0.000
 00635,0.00000443,-0.00000003,-0.00000189,0.00000287,0.00000305,0.00001
 327,-0.00000758,0.00000583,-0.00000018,0.00000094,0.00000704,-0.000004
 48,-0.00000029,-0.00000653,-0.00000039,-0.00000103,-0.00000874,0.00000
 900,0.00000194,0.00000636,0.00000417,-0.00001600,-0.00000248\\\@


          EVOLUTION
 IN THE BEGINNING GOD MADE MAN.
 HE WORKED THE DIRT WITH HIS HANDS.
 THEN GOD DECIDED TO GIVE MAN SCIENCE,
 MAN SHOULD BE USEFUL (LIKE AN APPLIANCE.)
 BUT SOON MAN'S KNOWLEDGE GREW TOO GREAT,
 TO THE HEADING SCIENCE HE COULDN'T RELATE
 SO GOD SAID "LETS HAVE DIFFERENT FIELDS,
 WE'LL DIVIDE THEM UP, SEE WHAT IT YIELDS."
 ENTER PHYSICS, CHEMISTRY, BIO
 THEY SPRANG UP AROUND THE NILE.
 BUT CHEMISTRY SURPASSED THE REST
 FAR AND AWAY IT WAS THE BEST.
 EXPERIMENT WAS GOD'S DECREE
 EXPERIMENT DID CHEMISTS WITH LOTS OF GLEE
 BUT SOON THEIR TESTS BEGAN TO BOG,
 THEY FOUND THEMSELVES DEEP IN A FOG.
 "GIVE US SOME HELP" THEY CRIED TO GOD.
 GOD LOOKED AROUND, THEN GAVE THE NOD.
 ENTER EINSTEIN, HEISENBERG, BOHR,
 REACTION PATHS WERE CLEAR ONCE MORE.
 WITH THEORISTS GOD SEND DIRECTION
 AND THEN HE STOPPED, HE'D MADE PERFECTION.
          -- THOMAS A. HOLME, 1981
 Job cpu time:       0 days 19 hours 44 minutes  0.6 seconds.
 Elapsed time:       0 days  4 hours 57 minutes 11.9 seconds.
 File lengths (MBytes):  RWF=   1049 Int=      0 D2E=      0 Chk=     29 Scr=      1
 Normal termination of Gaussian 16 at Tue May 23 03:37:59 2023.
### All Done ###
