### Starting Gaussian ###
 Entering Gaussian System, Link 0=g16
 Initial command:
 /cluster/software/gaussian/gaussian-16-A.03/avx2/g16/l1.exe "/local/scratch/ks29c/Gau-25199.inp" -scrdir="/local/scratch/ks29c/"
 Entering Link 1 = /cluster/software/gaussian/gaussian-16-A.03/avx2/g16/l1.exe PID=     25200.
  
 Copyright (c) 1988,1990,1992,1993,1995,1998,2003,2009,2016,
            Gaussian, Inc.  All Rights Reserved.
  
 This is part of the Gaussian(R) 16 program.  It is based on
 the Gaussian(R) 09 system (copyright 2009, Gaussian, Inc.),
 the Gaussian(R) 03 system (copyright 2003, Gaussian, Inc.),
 the Gaussian(R) 98 system (copyright 1998, Gaussian, Inc.),
 the Gaussian(R) 94 system (copyright 1995, Gaussian, Inc.),
 the Gaussian 92(TM) system (copyright 1992, Gaussian, Inc.),
 the Gaussian 90(TM) system (copyright 1990, Gaussian, Inc.),
 the Gaussian 88(TM) system (copyright 1988, Gaussian, Inc.),
 the Gaussian 86(TM) system (copyright 1986, Carnegie Mellon
 University), and the Gaussian 82(TM) system (copyright 1983,
 Carnegie Mellon University). Gaussian is a federally registered
 trademark of Gaussian, Inc.
  
 This software contains proprietary and confidential information,
 including trade secrets, belonging to Gaussian, Inc.
  
 This software is provided under written license and may be
 used, copied, transmitted, or stored only in accord with that
 written license.
  
 The following legend is applicable only to US Government
 contracts under FAR:
  
                    RESTRICTED RIGHTS LEGEND
  
 Use, reproduction and disclosure by the US Government is
 subject to restrictions as set forth in subparagraphs (a)
 and (c) of the Commercial Computer Software - Restricted
 Rights clause in FAR 52.227-19.
  
 Gaussian, Inc.
 340 Quinnipiac St., Bldg. 40, Wallingford CT 06492
  
  
 ---------------------------------------------------------------
 Warning -- This program may not be used in any manner that
 competes with the business of Gaussian, Inc. or will provide
 assistance to any competitor of Gaussian, Inc.  The licensee
 of this program is prohibited from giving any competitor of
 Gaussian, Inc. access to this program.  By using this program,
 the user acknowledges that Gaussian, Inc. is engaged in the
 business of creating and licensing software in the field of
 computational chemistry and represents and warrants to the
 licensee that it is not a competitor of Gaussian, Inc. and that
 it will not use this program in any manner prohibited above.
 ---------------------------------------------------------------
  

 Cite this work as:
 Gaussian 16, Revision A.03,
 M. J. Frisch, G. W. Trucks, H. B. Schlegel, G. E. Scuseria, 
 M. A. Robb, J. R. Cheeseman, G. Scalmani, V. Barone, 
 G. A. Petersson, H. Nakatsuji, X. Li, M. Caricato, A. V. Marenich, 
 J. Bloino, B. G. Janesko, R. Gomperts, B. Mennucci, H. P. Hratchian, 
 J. V. Ortiz, A. F. Izmaylov, J. L. Sonnenberg, D. Williams-Young, 
 F. Ding, F. Lipparini, F. Egidi, J. Goings, B. Peng, A. Petrone, 
 T. Henderson, D. Ranasinghe, V. G. Zakrzewski, J. Gao, N. Rega, 
 G. Zheng, W. Liang, M. Hada, M. Ehara, K. Toyota, R. Fukuda, 
 J. Hasegawa, M. Ishida, T. Nakajima, Y. Honda, O. Kitao, H. Nakai, 
 T. Vreven, K. Throssell, J. A. Montgomery, Jr., J. E. Peralta, 
 F. Ogliaro, M. J. Bearpark, J. J. Heyd, E. N. Brothers, K. N. Kudin, 
 V. N. Staroverov, T. A. Keith, R. Kobayashi, J. Normand, 
 K. Raghavachari, A. P. Rendell, J. C. Burant, S. S. Iyengar, 
 J. Tomasi, M. Cossi, J. M. Millam, M. Klene, C. Adamo, R. Cammi, 
 J. W. Ochterski, R. L. Martin, K. Morokuma, O. Farkas, 
 J. B. Foresman, and D. J. Fox, Gaussian, Inc., Wallingford CT, 2016.
 
 ******************************************
 Gaussian 16:  ES64L-G16RevA.03 25-Dec-2016
                23-May-2023 
 ******************************************
 %chk=COCCONCCCCqCrqCrCqCrCNON.chk
 %NProcShared=20
 Will use up to   20 processors via shared memory.
 -----------------------------
 # opt freq b3lyp/6-31g(2df,p)
 -----------------------------
 1/18=20,19=15,26=3,38=1/1,3;
 2/9=110,12=2,17=6,18=5,40=1/2;
 3/5=1,6=6,7=104,11=2,25=1,30=1,71=1,74=-5/1,2,3;
 4//1;
 5/5=2,38=5/2;
 6/7=2,8=2,9=2,10=2,28=1/1;
 7//1,2,3,16;
 1/18=20,19=15,26=3/3(2);
 2/9=110/2;
 99//99;
 2/9=110/2;
 3/5=1,6=6,7=104,11=2,25=1,30=1,71=1,74=-5/1,2,3;
 4/5=5,16=3,69=1/1;
 5/5=2,38=5/2;
 7//1,2,3,16;
 1/18=20,19=15,26=3/3(-5);
 2/9=110/2;
 6/7=2,8=2,9=2,10=2,19=2,28=1/1;
 99/9=1/99;
 -------------------
 Title Card Required
 -------------------
 Symbolic Z-matrix:
 Charge =  0 Multiplicity = 1
 C                     0.97572   0.08071  -0.01351 
 O                     2.39487   0.09477  -0.02028 
 C                     2.88591   1.21802  -0.74413 
 C                     4.39797   1.19417  -0.73639 
 O                     4.85179   2.27421  -1.54811 
 N                     6.29471   2.31835  -1.44644 
 C                     6.68717   3.49762  -2.20945 
 C                     8.20238   3.47601  -2.21505 
 C                     8.79063   4.6624   -2.96739 
 C                     10.34877   4.69288  -2.96205 
 C                     10.86687   4.71488  -1.50568 
 C                     10.86771   3.40508  -3.65081 
 C                     10.84707   5.96453  -3.75161 
 C                     10.3007   7.28208  -3.1557 
 C                     12.39283   6.01956  -3.85015 
 N                     12.83204   7.15954  -4.64409 
 O                     14.25755   7.18425  -4.50314 
 N                     14.73602   8.24414  -5.34241 
 H                     0.64403  -0.79449   0.54913 
 H                     0.59298   0.01057  -1.03616 
 H                     0.59151   0.98222   0.47278 
 H                     2.52951   2.15048  -0.29008 
 H                     2.52304   1.1899   -1.77891 
 H                     4.76401   0.24746  -1.15319 
 H                     4.78053   1.28299   0.28846 
 H                     6.58274   1.49368  -1.9778 
 H                     6.316     4.4123   -1.73426 
 H                     6.3012    3.45056  -3.23431 
 H                     8.53772   2.53655  -2.66567 
 H                     8.54546   3.48569  -1.17522 
 H                     8.38618   5.5658   -2.49998 
 H                     8.42598   4.65547  -4.00376 
 H                     10.57736   3.81884  -0.94983 
 H                     10.47586   5.57714  -0.95611 
 H                     11.95805   4.74642  -1.45914 
 H                     10.54506   2.49861  -3.13024 
 H                     11.9586   3.34762  -3.66328 
 H                     10.50847   3.34279  -4.68457 
 H                     10.45333   5.89171  -4.77659 
 H                     10.66072   7.43898  -2.13467 
 H                     9.20902   7.31036  -3.14677 
 H                     10.59955   8.15296  -3.74553 
 H                     12.77966   5.11444  -4.3281 
 H                     12.83161   6.08318  -2.84829 
 H                     12.58785   8.01266  -4.14823 
 H                     15.73604   8.14165  -5.22027 
 H                     14.46442   9.05612  -4.78983 
 

 GradGradGradGradGradGradGradGradGradGradGradGradGradGradGradGradGradGrad
 Berny optimization.
 Initialization pass.
                           ----------------------------
                           !    Initial Parameters    !
                           ! (Angstroms and Degrees)  !
 --------------------------                            --------------------------
 ! Name  Definition              Value          Derivative Info.                !
 --------------------------------------------------------------------------------
 ! R1    R(1,2)                  1.4192         estimate D2E/DX2                !
 ! R2    R(1,19)                 1.092          estimate D2E/DX2                !
 ! R3    R(1,20)                 1.0942         estimate D2E/DX2                !
 ! R4    R(1,21)                 1.094          estimate D2E/DX2                !
 ! R5    R(2,3)                  1.4236         estimate D2E/DX2                !
 ! R6    R(3,4)                  1.5123         estimate D2E/DX2                !
 ! R7    R(3,22)                 1.0967         estimate D2E/DX2                !
 ! R8    R(3,23)                 1.0969         estimate D2E/DX2                !
 ! R9    R(4,5)                  1.4252         estimate D2E/DX2                !
 ! R10   R(4,24)                 1.0973         estimate D2E/DX2                !
 ! R11   R(4,25)                 1.0975         estimate D2E/DX2                !
 ! R12   R(5,6)                  1.4472         estimate D2E/DX2                !
 ! R13   R(6,7)                  1.4584         estimate D2E/DX2                !
 ! R14   R(6,26)                 1.0224         estimate D2E/DX2                !
 ! R15   R(7,8)                  1.5154         estimate D2E/DX2                !
 ! R16   R(7,27)                 1.0955         estimate D2E/DX2                !
 ! R17   R(7,28)                 1.0961         estimate D2E/DX2                !
 ! R18   R(8,9)                  1.523          estimate D2E/DX2                !
 ! R19   R(8,29)                 1.0946         estimate D2E/DX2                !
 ! R20   R(8,30)                 1.095          estimate D2E/DX2                !
 ! R21   R(9,10)                 1.5584         estimate D2E/DX2                !
 ! R22   R(9,31)                 1.0946         estimate D2E/DX2                !
 ! R23   R(9,32)                 1.0987         estimate D2E/DX2                !
 ! R24   R(10,11)                1.5459         estimate D2E/DX2                !
 ! R25   R(10,12)                1.5499         estimate D2E/DX2                !
 ! R26   R(10,13)                1.5776         estimate D2E/DX2                !
 ! R27   R(11,33)                1.0935         estimate D2E/DX2                !
 ! R28   R(11,34)                1.0947         estimate D2E/DX2                !
 ! R29   R(11,35)                1.0926         estimate D2E/DX2                !
 ! R30   R(12,36)                1.094          estimate D2E/DX2                !
 ! R31   R(12,37)                1.0925         estimate D2E/DX2                !
 ! R32   R(12,38)                1.0962         estimate D2E/DX2                !
 ! R33   R(13,14)                1.5458         estimate D2E/DX2                !
 ! R34   R(13,15)                1.5499         estimate D2E/DX2                !
 ! R35   R(13,39)                1.1004         estimate D2E/DX2                !
 ! R36   R(14,40)                1.094          estimate D2E/DX2                !
 ! R37   R(14,41)                1.0921         estimate D2E/DX2                !
 ! R38   R(14,42)                1.0935         estimate D2E/DX2                !
 ! R39   R(15,16)                1.457          estimate D2E/DX2                !
 ! R40   R(15,43)                1.0942         estimate D2E/DX2                !
 ! R41   R(15,44)                1.0956         estimate D2E/DX2                !
 ! R42   R(16,17)                1.4327         estimate D2E/DX2                !
 ! R43   R(16,45)                1.0165         estimate D2E/DX2                !
 ! R44   R(17,18)                1.4341         estimate D2E/DX2                !
 ! R45   R(18,46)                1.0127         estimate D2E/DX2                !
 ! R46   R(18,47)                1.019          estimate D2E/DX2                !
 ! A1    A(2,1,19)             108.3072         estimate D2E/DX2                !
 ! A2    A(2,1,20)             110.24           estimate D2E/DX2                !
 ! A3    A(2,1,21)             110.1901         estimate D2E/DX2                !
 ! A4    A(19,1,20)            108.9001         estimate D2E/DX2                !
 ! A5    A(19,1,21)            108.9496         estimate D2E/DX2                !
 ! A6    A(20,1,21)            110.2079         estimate D2E/DX2                !
 ! A7    A(1,2,3)              110.8019         estimate D2E/DX2                !
 ! A8    A(2,3,4)              109.2581         estimate D2E/DX2                !
 ! A9    A(2,3,22)             110.3806         estimate D2E/DX2                !
 ! A10   A(2,3,23)             110.2011         estimate D2E/DX2                !
 ! A11   A(4,3,22)             109.6475         estimate D2E/DX2                !
 ! A12   A(4,3,23)             109.5839         estimate D2E/DX2                !
 ! A13   A(22,3,23)            107.75           estimate D2E/DX2                !
 ! A14   A(3,4,5)              107.6683         estimate D2E/DX2                !
 ! A15   A(3,4,24)             110.1948         estimate D2E/DX2                !
 ! A16   A(3,4,25)             110.611          estimate D2E/DX2                !
 ! A17   A(5,4,24)             109.3453         estimate D2E/DX2                !
 ! A18   A(5,4,25)             111.0696         estimate D2E/DX2                !
 ! A19   A(24,4,25)            107.9537         estimate D2E/DX2                !
 ! A20   A(4,5,6)              107.4925         estimate D2E/DX2                !
 ! A21   A(5,6,7)              104.846          estimate D2E/DX2                !
 ! A22   A(5,6,26)             102.6954         estimate D2E/DX2                !
 ! A23   A(7,6,26)             107.7277         estimate D2E/DX2                !
 ! A24   A(6,7,8)              105.0391         estimate D2E/DX2                !
 ! A25   A(6,7,27)             110.917          estimate D2E/DX2                !
 ! A26   A(6,7,28)             111.0814         estimate D2E/DX2                !
 ! A27   A(8,7,27)             110.6264         estimate D2E/DX2                !
 ! A28   A(8,7,28)             110.3657         estimate D2E/DX2                !
 ! A29   A(27,7,28)            108.7894         estimate D2E/DX2                !
 ! A30   A(7,8,9)              112.1427         estimate D2E/DX2                !
 ! A31   A(7,8,29)             108.6685         estimate D2E/DX2                !
 ! A32   A(7,8,30)             108.0377         estimate D2E/DX2                !
 ! A33   A(9,8,29)             110.2971         estimate D2E/DX2                !
 ! A34   A(9,8,30)             109.9493         estimate D2E/DX2                !
 ! A35   A(29,8,30)            107.6101         estimate D2E/DX2                !
 ! A36   A(8,9,10)             113.5599         estimate D2E/DX2                !
 ! A37   A(8,9,31)             106.8131         estimate D2E/DX2                !
 ! A38   A(8,9,32)             109.4426         estimate D2E/DX2                !
 ! A39   A(10,9,31)            110.5982         estimate D2E/DX2                !
 ! A40   A(10,9,32)            109.5841         estimate D2E/DX2                !
 ! A41   A(31,9,32)            106.5807         estimate D2E/DX2                !
 ! A42   A(9,10,11)            109.7902         estimate D2E/DX2                !
 ! A43   A(9,10,12)            108.4808         estimate D2E/DX2                !
 ! A44   A(9,10,13)            109.2596         estimate D2E/DX2                !
 ! A45   A(11,10,12)           108.5578         estimate D2E/DX2                !
 ! A46   A(11,10,13)           110.7419         estimate D2E/DX2                !
 ! A47   A(12,10,13)           109.9741         estimate D2E/DX2                !
 ! A48   A(10,11,33)           112.2403         estimate D2E/DX2                !
 ! A49   A(10,11,34)           111.3731         estimate D2E/DX2                !
 ! A50   A(10,11,35)           112.0385         estimate D2E/DX2                !
 ! A51   A(33,11,34)           107.1983         estimate D2E/DX2                !
 ! A52   A(33,11,35)           105.451          estimate D2E/DX2                !
 ! A53   A(34,11,35)           108.2151         estimate D2E/DX2                !
 ! A54   A(10,12,36)           112.2266         estimate D2E/DX2                !
 ! A55   A(10,12,37)           112.5269         estimate D2E/DX2                !
 ! A56   A(10,12,38)           110.8903         estimate D2E/DX2                !
 ! A57   A(36,12,37)           104.854          estimate D2E/DX2                !
 ! A58   A(36,12,38)           107.7592         estimate D2E/DX2                !
 ! A59   A(37,12,38)           108.2699         estimate D2E/DX2                !
 ! A60   A(10,13,14)           112.4862         estimate D2E/DX2                !
 ! A61   A(10,13,15)           112.0529         estimate D2E/DX2                !
 ! A62   A(10,13,39)           107.4465         estimate D2E/DX2                !
 ! A63   A(14,13,15)           110.2891         estimate D2E/DX2                !
 ! A64   A(14,13,39)           106.7984         estimate D2E/DX2                !
 ! A65   A(15,13,39)           107.4569         estimate D2E/DX2                !
 ! A66   A(13,14,40)           111.4522         estimate D2E/DX2                !
 ! A67   A(13,14,41)           112.2434         estimate D2E/DX2                !
 ! A68   A(13,14,42)           111.9805         estimate D2E/DX2                !
 ! A69   A(40,14,41)           108.5198         estimate D2E/DX2                !
 ! A70   A(40,14,42)           107.4147         estimate D2E/DX2                !
 ! A71   A(41,14,42)           104.8918         estimate D2E/DX2                !
 ! A72   A(13,15,16)           111.2893         estimate D2E/DX2                !
 ! A73   A(13,15,43)           110.5475         estimate D2E/DX2                !
 ! A74   A(13,15,44)           110.0816         estimate D2E/DX2                !
 ! A75   A(16,15,43)           107.6151         estimate D2E/DX2                !
 ! A76   A(16,15,44)           109.3986         estimate D2E/DX2                !
 ! A77   A(43,15,44)           107.811          estimate D2E/DX2                !
 ! A78   A(15,16,17)           105.0599         estimate D2E/DX2                !
 ! A79   A(15,16,45)           108.5677         estimate D2E/DX2                !
 ! A80   A(17,16,45)           100.1691         estimate D2E/DX2                !
 ! A81   A(16,17,18)           106.6867         estimate D2E/DX2                !
 ! A82   A(17,18,46)           100.608          estimate D2E/DX2                !
 ! A83   A(17,18,47)           100.5229         estimate D2E/DX2                !
 ! A84   A(46,18,47)           106.1674         estimate D2E/DX2                !
 ! D1    D(19,1,2,3)           179.933          estimate D2E/DX2                !
 ! D2    D(20,1,2,3)            60.8788         estimate D2E/DX2                !
 ! D3    D(21,1,2,3)           -60.9818         estimate D2E/DX2                !
 ! D4    D(1,2,3,4)           -179.6595         estimate D2E/DX2                !
 ! D5    D(1,2,3,22)            59.6938         estimate D2E/DX2                !
 ! D6    D(1,2,3,23)           -59.2033         estimate D2E/DX2                !
 ! D7    D(2,3,4,5)            175.8853         estimate D2E/DX2                !
 ! D8    D(2,3,4,24)            56.7027         estimate D2E/DX2                !
 ! D9    D(2,3,4,25)           -62.5878         estimate D2E/DX2                !
 ! D10   D(22,3,4,5)           -63.0212         estimate D2E/DX2                !
 ! D11   D(22,3,4,24)          177.7962         estimate D2E/DX2                !
 ! D12   D(22,3,4,25)           58.5057         estimate D2E/DX2                !
 ! D13   D(23,3,4,5)            55.0522         estimate D2E/DX2                !
 ! D14   D(23,3,4,24)          -64.1305         estimate D2E/DX2                !
 ! D15   D(23,3,4,25)          176.5791         estimate D2E/DX2                !
 ! D16   D(3,4,5,6)            175.197          estimate D2E/DX2                !
 ! D17   D(24,4,5,6)           -65.0796         estimate D2E/DX2                !
 ! D18   D(25,4,5,6)            53.9563         estimate D2E/DX2                !
 ! D19   D(4,5,6,7)           -175.7675         estimate D2E/DX2                !
 ! D20   D(4,5,6,26)            71.7366         estimate D2E/DX2                !
 ! D21   D(5,6,7,8)           -174.8734         estimate D2E/DX2                !
 ! D22   D(5,6,7,27)            65.5761         estimate D2E/DX2                !
 ! D23   D(5,6,7,28)           -55.5474         estimate D2E/DX2                !
 ! D24   D(26,6,7,8)           -66.0029         estimate D2E/DX2                !
 ! D25   D(26,6,7,27)          174.4465         estimate D2E/DX2                !
 ! D26   D(26,6,7,28)           53.3231         estimate D2E/DX2                !
 ! D27   D(6,7,8,9)           -179.3931         estimate D2E/DX2                !
 ! D28   D(6,7,8,29)            58.4123         estimate D2E/DX2                !
 ! D29   D(6,7,8,30)           -58.0669         estimate D2E/DX2                !
 ! D30   D(27,7,8,9)           -59.6488         estimate D2E/DX2                !
 ! D31   D(27,7,8,29)          178.1566         estimate D2E/DX2                !
 ! D32   D(27,7,8,30)           61.6774         estimate D2E/DX2                !
 ! D33   D(28,7,8,9)            60.8037         estimate D2E/DX2                !
 ! D34   D(28,7,8,29)          -61.3909         estimate D2E/DX2                !
 ! D35   D(28,7,8,30)         -177.8701         estimate D2E/DX2                !
 ! D36   D(7,8,9,10)           178.4989         estimate D2E/DX2                !
 ! D37   D(7,8,9,31)            56.3104         estimate D2E/DX2                !
 ! D38   D(7,8,9,32)           -58.701          estimate D2E/DX2                !
 ! D39   D(29,8,9,10)          -60.2383         estimate D2E/DX2                !
 ! D40   D(29,8,9,31)          177.5731         estimate D2E/DX2                !
 ! D41   D(29,8,9,32)           62.5617         estimate D2E/DX2                !
 ! D42   D(30,8,9,10)           58.2777         estimate D2E/DX2                !
 ! D43   D(30,8,9,31)          -63.9109         estimate D2E/DX2                !
 ! D44   D(30,8,9,32)         -178.9223         estimate D2E/DX2                !
 ! D45   D(8,9,10,11)          -57.7564         estimate D2E/DX2                !
 ! D46   D(8,9,10,12)           60.7262         estimate D2E/DX2                !
 ! D47   D(8,9,10,13)         -179.3862         estimate D2E/DX2                !
 ! D48   D(31,9,10,11)          62.3093         estimate D2E/DX2                !
 ! D49   D(31,9,10,12)        -179.2081         estimate D2E/DX2                !
 ! D50   D(31,9,10,13)         -59.3205         estimate D2E/DX2                !
 ! D51   D(32,9,10,11)         179.5215         estimate D2E/DX2                !
 ! D52   D(32,9,10,12)         -61.9959         estimate D2E/DX2                !
 ! D53   D(32,9,10,13)          57.8917         estimate D2E/DX2                !
 ! D54   D(9,10,11,33)          62.1293         estimate D2E/DX2                !
 ! D55   D(9,10,11,34)         -58.0737         estimate D2E/DX2                !
 ! D56   D(9,10,11,35)        -179.4431         estimate D2E/DX2                !
 ! D57   D(12,10,11,33)        -56.3058         estimate D2E/DX2                !
 ! D58   D(12,10,11,34)       -176.5088         estimate D2E/DX2                !
 ! D59   D(12,10,11,35)         62.1218         estimate D2E/DX2                !
 ! D60   D(13,10,11,33)       -177.1324         estimate D2E/DX2                !
 ! D61   D(13,10,11,34)         62.6646         estimate D2E/DX2                !
 ! D62   D(13,10,11,35)        -58.7049         estimate D2E/DX2                !
 ! D63   D(9,10,12,36)         -60.7224         estimate D2E/DX2                !
 ! D64   D(9,10,12,37)        -178.711          estimate D2E/DX2                !
 ! D65   D(9,10,12,38)          59.8513         estimate D2E/DX2                !
 ! D66   D(11,10,12,36)         58.5374         estimate D2E/DX2                !
 ! D67   D(11,10,12,37)        -59.4511         estimate D2E/DX2                !
 ! D68   D(11,10,12,38)        179.1112         estimate D2E/DX2                !
 ! D69   D(13,10,12,36)        179.8371         estimate D2E/DX2                !
 ! D70   D(13,10,12,37)         61.8486         estimate D2E/DX2                !
 ! D71   D(13,10,12,38)        -59.5891         estimate D2E/DX2                !
 ! D72   D(9,10,13,14)          58.053          estimate D2E/DX2                !
 ! D73   D(9,10,13,15)        -177.0153         estimate D2E/DX2                !
 ! D74   D(9,10,13,39)         -59.2023         estimate D2E/DX2                !
 ! D75   D(11,10,13,14)        -62.9997         estimate D2E/DX2                !
 ! D76   D(11,10,13,15)         61.932          estimate D2E/DX2                !
 ! D77   D(11,10,13,39)        179.745          estimate D2E/DX2                !
 ! D78   D(12,10,13,14)        177.0172         estimate D2E/DX2                !
 ! D79   D(12,10,13,15)        -58.0511         estimate D2E/DX2                !
 ! D80   D(12,10,13,39)         59.762          estimate D2E/DX2                !
 ! D81   D(10,13,14,40)         63.2225         estimate D2E/DX2                !
 ! D82   D(10,13,14,41)        -58.7438         estimate D2E/DX2                !
 ! D83   D(10,13,14,42)       -176.4214         estimate D2E/DX2                !
 ! D84   D(15,13,14,40)        -62.6701         estimate D2E/DX2                !
 ! D85   D(15,13,14,41)        175.3637         estimate D2E/DX2                !
 ! D86   D(15,13,14,42)         57.6861         estimate D2E/DX2                !
 ! D87   D(39,13,14,40)       -179.1379         estimate D2E/DX2                !
 ! D88   D(39,13,14,41)         58.8958         estimate D2E/DX2                !
 ! D89   D(39,13,14,42)        -58.7818         estimate D2E/DX2                !
 ! D90   D(10,13,15,16)        176.8778         estimate D2E/DX2                !
 ! D91   D(10,13,15,43)         57.3458         estimate D2E/DX2                !
 ! D92   D(10,13,15,44)        -61.656          estimate D2E/DX2                !
 ! D93   D(14,13,15,16)        -56.9856         estimate D2E/DX2                !
 ! D94   D(14,13,15,43)       -176.5176         estimate D2E/DX2                !
 ! D95   D(14,13,15,44)         64.4806         estimate D2E/DX2                !
 ! D96   D(39,13,15,16)         59.071          estimate D2E/DX2                !
 ! D97   D(39,13,15,43)        -60.461          estimate D2E/DX2                !
 ! D98   D(39,13,15,44)       -179.4628         estimate D2E/DX2                !
 ! D99   D(13,15,16,17)        172.6563         estimate D2E/DX2                !
 ! D100  D(13,15,16,45)         66.2017         estimate D2E/DX2                !
 ! D101  D(43,15,16,17)        -66.0823         estimate D2E/DX2                !
 ! D102  D(43,15,16,45)       -172.5369         estimate D2E/DX2                !
 ! D103  D(44,15,16,17)         50.7927         estimate D2E/DX2                !
 ! D104  D(44,15,16,45)        -55.6619         estimate D2E/DX2                !
 ! D105  D(15,16,17,18)        176.3588         estimate D2E/DX2                !
 ! D106  D(45,16,17,18)        -71.1044         estimate D2E/DX2                !
 ! D107  D(16,17,18,46)       -176.5886         estimate D2E/DX2                !
 ! D108  D(16,17,18,47)         74.5718         estimate D2E/DX2                !
 ! D109  D(17,18,46,47)       -104.3445         estimate D2E/DX2                !
 --------------------------------------------------------------------------------
 Trust Radius=3.00D-01 FncErr=1.00D-07 GrdErr=1.00D-06 EigMax=2.50D+02 EigMin=1.00D-04
 Number of steps in this run=    249 maximum allowed number of steps=    282.
 GradGradGradGradGradGradGradGradGradGradGradGradGradGradGradGradGradGrad

                          Input orientation:                          
 ---------------------------------------------------------------------
 Center     Atomic      Atomic             Coordinates (Angstroms)
 Number     Number       Type             X           Y           Z
 ---------------------------------------------------------------------
      1          6           0        0.975720    0.080710   -0.013510
      2          8           0        2.394870    0.094770   -0.020280
      3          6           0        2.885910    1.218020   -0.744130
      4          6           0        4.397970    1.194170   -0.736390
      5          8           0        4.851790    2.274210   -1.548110
      6          7           0        6.294710    2.318350   -1.446440
      7          6           0        6.687170    3.497620   -2.209450
      8          6           0        8.202380    3.476010   -2.215050
      9          6           0        8.790630    4.662400   -2.967390
     10          6           0       10.348770    4.692880   -2.962050
     11          6           0       10.866870    4.714880   -1.505680
     12          6           0       10.867710    3.405080   -3.650810
     13          6           0       10.847070    5.964530   -3.751610
     14          6           0       10.300700    7.282080   -3.155700
     15          6           0       12.392830    6.019560   -3.850150
     16          7           0       12.832040    7.159540   -4.644090
     17          8           0       14.257550    7.184250   -4.503140
     18          7           0       14.736020    8.244140   -5.342410
     19          1           0        0.644030   -0.794490    0.549130
     20          1           0        0.592980    0.010570   -1.036160
     21          1           0        0.591510    0.982220    0.472780
     22          1           0        2.529510    2.150480   -0.290080
     23          1           0        2.523040    1.189900   -1.778910
     24          1           0        4.764010    0.247460   -1.153190
     25          1           0        4.780530    1.282990    0.288460
     26          1           0        6.582740    1.493680   -1.977800
     27          1           0        6.316000    4.412300   -1.734260
     28          1           0        6.301200    3.450560   -3.234310
     29          1           0        8.537720    2.536550   -2.665670
     30          1           0        8.545460    3.485690   -1.175220
     31          1           0        8.386180    5.565800   -2.499980
     32          1           0        8.425980    4.655470   -4.003760
     33          1           0       10.577360    3.818840   -0.949830
     34          1           0       10.475860    5.577140   -0.956110
     35          1           0       11.958050    4.746420   -1.459140
     36          1           0       10.545060    2.498610   -3.130240
     37          1           0       11.958600    3.347620   -3.663280
     38          1           0       10.508470    3.342790   -4.684570
     39          1           0       10.453330    5.891710   -4.776590
     40          1           0       10.660720    7.438980   -2.134670
     41          1           0        9.209020    7.310360   -3.146770
     42          1           0       10.599550    8.152960   -3.745530
     43          1           0       12.779660    5.114440   -4.328100
     44          1           0       12.831610    6.083180   -2.848290
     45          1           0       12.587850    8.012660   -4.148230
     46          1           0       15.736040    8.141650   -5.220270
     47          1           0       14.464420    9.056120   -4.789830
 ---------------------------------------------------------------------
                    Distance matrix (angstroms):
                    1          2          3          4          5
     1  C    0.000000
     2  O    1.419236   0.000000
     3  C    2.340108   1.423647   0.000000
     4  C    3.670714   2.394557   1.512268   0.000000
     5  O    4.710664   3.622248   2.372047   1.425247   0.000000
     6  N    5.945753   4.710307   3.650189   2.316371   1.447171
     7  C    7.008430   5.898787   4.668331   3.565982   2.302764
     8  C    8.282479   7.069439   5.960451   4.676191   3.621545
     9  C    9.528384   8.393715   7.188349   6.025068   4.819986
    10  C   10.854495   9.646821   8.525732   7.253038   6.169763
    11  C   11.024380   9.763535   8.746640   7.404990   6.491522
    12  C   11.051373   9.794280   8.771611   7.432328   6.472365
    13  C   12.084547  10.946077   9.744453   8.569643   7.376805
    14  C   12.193783  11.135099   9.877632   8.818046   7.573224
    15  C   13.429078  12.236431  11.094308   9.843662   8.728936
    16  N   14.564492  13.424795  12.224437  11.044876   9.855756
    17  O   15.716999  14.528590  13.380592  12.135929  11.014037
    18  N   16.863707  15.717547  14.523624  13.333896  12.154620
    19  H    1.092043   2.044615   3.278528   4.438400   5.614319
    20  H    1.094177   2.070244   2.607824   3.996088   4.850116
    21  H    1.093991   2.069489   2.607823   3.999519   4.889092
    22  H    2.602826   2.077706   1.096660   2.145895   2.644037
    23  H    2.596370   2.075697   1.096921   2.145281   2.579161
    24  H    3.959522   2.630518   2.153271   1.097254   2.066732
    25  H    4.001655   2.683013   2.158714   1.097524   2.088201
    26  H    6.106848   4.829813   3.906979   2.530618   1.946805
    27  H    7.088176   6.078985   4.790543   3.876976   2.598075
    28  H    7.077442   6.070480   4.780108   3.866935   2.515524
    29  H    8.381464   7.120041   6.113411   4.760424   3.860550
    30  H    8.381195   7.117723   6.112174   4.758709   3.905116
    31  H    9.549014   8.483919   7.227667   6.174724   4.922655
    32  H    9.610250   8.546484   7.289282   6.235477   4.947267
    33  H   10.346101   9.038025   8.121883   6.717091   5.960367
    34  H   11.015984   9.809921   8.755239   7.496629   6.549044
    35  H   12.019579  10.731383   9.760357   8.384251   7.524538
    36  H   10.350484   9.048530   8.123793   6.724492   5.913274
    37  H   12.025688  10.738595   9.765774   8.388513   7.492189
    38  H   11.105552   9.906348   8.839974   7.585704   6.555705
    39  H   12.094616  11.007533   9.765754   8.663572   7.408552
    40  H   12.346768  11.257546  10.053935   8.954042   7.795035
    41  H   11.396157  10.405399   9.103351   8.146405   6.848648
    42  H   13.103713  12.088370  10.798242   9.794860   8.510294
    43  H   13.538358  12.312525  11.221106   9.925806   8.868279
    44  H   13.587779  12.360592  11.270059   9.974408   8.937351
    45  H   14.657875  13.551007  12.324069  11.189575   9.976826
    46  H   17.605572  16.424950  15.267558  14.032979  12.898779
    47  H   16.891307  15.771127  14.555597  13.400524  12.202693
                    6          7          8          9         10
     6  N    0.000000
     7  C    1.458385   0.000000
     8  C    2.360115   1.515374   0.000000
     9  C    3.746662   2.521057   1.523015   0.000000
    10  C    4.936686   3.924585   2.577939   1.558447   0.000000
    11  C    5.162510   4.409865   3.022832   2.539709   1.545938
    12  C    5.191585   4.423008   3.028270   2.522336   1.549877
    13  C    6.271556   5.076285   3.943112   2.557242   1.577594
    14  C    6.603646   5.317436   4.446790   3.029603   2.596877
    15  C    7.527539   6.450320   5.167501   3.949303   2.593643
    16  N    8.740639   7.556226   6.395497   5.037859   3.883336
    17  O    9.819736   8.727136   7.459992   6.213330   4.884715
    18  N   11.024939   9.855398   8.672018   7.336024   6.125808
    19  H    6.752944   7.908951   9.110791  10.416845  11.688524
    20  H    6.164731   7.118657   8.444053   9.621364  10.991293
    21  H    6.164020   7.118895   8.448003   9.623101  10.989594
    22  H    3.942344   4.773354   6.135470   7.258054   8.645464
    23  H    3.950877   4.780263   6.137705   7.263155   8.655215
    24  H    2.591838   3.921450   4.834612   6.244733   7.363646
    25  H    2.524795   3.844401   4.773464   6.172671   7.293728
    26  H    1.022441   2.019986   2.570827   3.986835   5.038513
    27  H    2.113746   1.095542   2.160145   2.776140   4.224858
    28  H    2.116228   1.096141   2.157319   2.781558   4.242677
    29  H    2.562270   2.134556   1.094576   2.161998   2.831519
    30  H    2.549925   2.126738   1.095009   2.157922   2.811049
    31  H    4.003764   2.692287   2.117118   1.094616   2.197102
    32  H    4.067472   2.753838   2.154207   1.098672   2.187163
    33  H    4.564995   4.101634   2.712719   2.823924   2.205726
    34  H    5.323735   4.499937   3.341914   2.778848   2.195874
    35  H    6.161908   5.468514   4.036137   3.509192   2.202586
    36  H    4.575276   4.090133   2.698339   2.790436   2.209443
    37  H    6.168746   5.470292   4.027784   3.499849   2.212013
    38  H    5.412092   4.555494   3.381468   2.764245   2.194384
    39  H    6.415054   5.148382   4.178979   2.747541   2.177311
    40  H    6.764359   5.597232   4.664229   3.449646   2.884950
    41  H    6.025321   4.666399   4.072305   2.686805   2.860831
    42  H    7.606585   6.272037   5.473815   4.007705   3.556527
    43  H    7.627363   6.649904   5.301031   4.238895   2.820112
    44  H    7.672691   6.696819   5.350523   4.285128   2.847871
    45  H    8.906652   7.678703   6.599297   5.199760   4.176295
    46  H   11.717138  10.607266   9.357114   8.088224   6.783528
    47  H   11.104952   9.901561   8.773840   7.403915   6.270344
                   11         12         13         14         15
    11  C    0.000000
    12  C    2.513396   0.000000
    13  C    2.570257   2.561517   0.000000
    14  C    3.103809   3.949400   1.545822   0.000000
    15  C    3.086630   3.033353   1.549875   2.540320   0.000000
    16  N    4.437102   4.352145   2.482876   2.939048   1.456983
    17  O    5.155508   5.147777   3.699174   4.181128   2.293486
    18  N    6.492033   6.421981   4.780293   5.037790   3.558951
    19  H   11.793297  11.823685  12.972384  13.122805  14.276528
    20  H   11.309456  11.132348  12.164278  12.312885  13.537465
    21  H   11.109909  11.334661  12.159169  12.129405  13.540077
    22  H    8.807122   9.077120   9.783198   9.743536  11.177162
    23  H    9.061989   8.834283   9.796842   9.975079  11.181610
    24  H    7.571459   7.311896   8.743014   9.173378   9.939297
    25  H    7.213899   7.554791   8.662672   8.850062   9.874730
    26  H    5.380780   4.981303   6.428018   6.979703   7.599107
    27  H    4.566642   5.040409   5.197087   5.112139   6.632355
    28  H    5.043016   4.585690   5.220400   5.539199   6.639802
    29  H    3.393470   2.674640   4.273571   5.086087   5.328811
    30  H    2.647462   3.395274   4.252040   4.627715   5.327101
    31  H    2.804732   3.485844   2.789542   2.653483   4.252305
    32  H    3.493119   2.765880   2.763855   3.336594   4.197647
    33  H    1.093468   2.747871   3.539308   4.115390   4.068287
    34  H    1.094718   3.483217   2.846522   2.788494   3.499425
    35  H    1.092627   2.791317   2.823736   3.471987   2.743510
    36  H    2.766697   1.093976   3.534107   4.789775   4.040992
    37  H    2.777861   1.092473   2.844560   4.299563   2.713437
    38  H    3.480865   1.096172   2.803317   4.230676   3.378190
    39  H    3.500685   2.760873   1.100417   2.140960   2.153206
    40  H    2.803364   4.314380   2.196184   1.093954   2.820963
    41  H    3.489722   4.272765   2.204608   1.092083   3.506787
    42  H    4.112029   4.756390   2.202392   1.093454   2.788941
    43  H    3.432851   2.652581   2.188584   3.495487   1.094219
    44  H    2.745005   3.416601   2.183681   2.817333   1.095582
    45  H    4.562915   4.943289   2.717068   2.598060   2.024681
    46  H    7.017816   6.971294   5.549670   5.877434   4.190173
    47  H    6.524904   6.794700   4.870426   4.811877   3.794098
                   16         17         18         19         20
    16  N    0.000000
    17  O    1.432675   0.000000
    18  N    2.299815   1.434111   0.000000
    19  H   15.452628  16.568453  17.747993   0.000000
    20  H   14.625988  15.817778  16.922206   1.778728   0.000000
    21  H   14.634624  15.810933  16.929828   1.779125   1.794716
    22  H   12.255212  13.440076  14.548458   3.596131   2.980939
    23  H   12.252401  13.455571  14.547086   3.590021   2.380678
    24  H   11.182859  12.225732  13.451299   4.577968   4.179390
    25  H   11.121632  12.149000  13.389402   4.636217   4.572663
    26  H    8.846741   9.882441  11.106993   6.847582   6.242077
    27  H    7.646778   8.855429   9.929677   8.030926   7.253656
    28  H    7.641720   8.879970   9.928176   8.021125   7.017775
    29  H    6.612667   7.595648   8.840840   9.151017   8.494396
    30  H    6.626085   7.575115   8.850500   9.150187   8.679731
    31  H    5.186799   6.411319   7.454756  10.473359   9.681803
    32  H    5.108205   6.375839   7.381541  10.535161   9.577977
    33  H    5.467304   6.123381   7.494831  11.054444  10.686357
    34  H    4.653684   5.428204   6.670943  11.812210  11.343034
    35  H    4.090344   4.527323   5.918695  12.757033  12.319578
    36  H    5.407984   6.133731   7.447748  11.064026  10.469929
    37  H    4.031826   4.550853   5.874474  12.764050  12.133218
    38  H    4.468579   5.370785   6.506010  11.908647  11.078426
    39  H    2.698742   4.027099   4.918893  13.011185  12.074979
    40  H    3.330151   4.314131   5.248423  13.241106  12.559753
    41  H    3.923135   5.229082   6.020009  12.357480  11.488157
    42  H    2.603518   3.859189   4.434943  14.057501  13.182209
    43  H    2.070031   2.549296   3.827687  14.351876  13.616223
    44  H    2.093669   2.446260   3.810139  14.400761  13.782034
    45  H    1.016523   1.897399   2.468660  15.565536  14.751113
    46  H    3.119253   1.901795   1.012651  18.463730  17.689927
    47  H    2.506575   1.904963   1.019030  17.791633  16.980249
                   21         22         23         24         25
    21  H    0.000000
    22  H    2.388018   0.000000
    23  H    2.973894   1.771827   0.000000
    24  H    4.537996   3.059319   2.510312   0.000000
    25  H    4.203846   2.480794   3.062506   1.775092   0.000000
    26  H    6.493210   4.439421   4.075905   2.353896   2.903151
    27  H    7.028959   4.641012   4.977188   4.482433   4.030092
    28  H    7.241255   4.958260   4.637161   4.117507   4.406893
    29  H    8.683782   6.472331   6.227053   4.665664   4.941131
    30  H    8.499917   6.225585   6.473379   4.978552   4.600972
    31  H    9.518581   7.130824   7.351520   6.574093   6.254484
    32  H    9.742233   7.405049   7.197557   6.400494   6.563999
    33  H   10.477950   8.245398   8.512977   6.825771   6.447258
    34  H   10.993425   8.679290   9.119881   7.814702   7.240543
    35  H   12.128468   9.849009  10.088137   8.490492   8.158814
    36  H   10.693659   8.510978   8.239637   6.511293   6.811391
    37  H   12.325293  10.085602   9.860852   8.226401   8.450067
    38  H   11.424388   9.186781   8.766122   7.419605   7.860223
    39  H   12.203052   9.844415   9.694462   8.795166   8.892451
    40  H   12.242448   9.873567  10.266421   9.351602   8.851238
    41  H   11.287514   8.910718   9.166973   8.580037   8.230524
    42  H   13.014396  10.634634  10.843515  10.162218   9.865625
    43  H   13.735891  11.408604  11.273803   9.900414   9.998936
    44  H   13.670016  11.320063  11.460994  10.100256   9.884377
    45  H   14.652406  12.264611  12.388064  11.422831  11.221717
    46  H   17.692514  15.317093  15.321656  14.115411  14.050285
    47  H   16.892026  14.504402  14.612995  13.598367  13.415972
                   26         27         28         29         30
    26  H    0.000000
    27  H    2.940885   0.000000
    28  H    2.342533   1.781941   0.000000
    29  H    2.320062   3.053195   2.482093   0.000000
    30  H    2.909383   2.478230   3.045946   1.767022   0.000000
    31  H    4.484109   2.490489   3.059513   3.037560   2.471278
    32  H    4.183176   3.108340   2.560967   2.508544   3.063217
    33  H    4.734985   4.373410   4.862101   2.957787   2.071330
    34  H    5.733662   4.389397   5.209638   3.990510   2.854578
    35  H    6.304227   5.658627   6.068808   4.247105   3.649085
    36  H    4.247115   4.847259   4.350562   2.060747   2.965608
    37  H    5.931088   6.057524   5.674574   3.654515   4.225995
    38  H    5.114408   5.236887   4.451515   2.934252   4.023601
    39  H    6.492870   5.344336   5.057472   4.402572   4.732733
    40  H    7.211180   5.310152   6.010168   5.368697   4.585125
    41  H    6.488267   4.331686   4.833336   4.844725   4.353782
    42  H    7.975315   6.032126   6.391379   6.079581   5.710446
    43  H    7.552194   6.999993   6.777560   5.234811   5.524665
    44  H    7.801900   6.818070   7.051663   5.572201   5.283673
    45  H    9.125197   7.624037   7.821124   6.970604   6.758192
    46  H   11.768263  10.714358  10.722246   9.474119   9.473375
    47  H   11.279135   9.863991  10.023977   9.063257   8.895459
                   31         32         33         34         35
    31  H    0.000000
    32  H    1.758306   0.000000
    33  H    3.202515   3.828169   0.000000
    34  H    2.598158   3.786774   1.761238   0.000000
    35  H    3.809591   4.354180   1.739571   1.772011   0.000000
    36  H    3.803373   3.147314   2.549164   3.769480   3.137159
    37  H    4.363001   3.782301   3.081020   3.807630   2.610532
    38  H    3.770719   2.554094   3.765588   4.346815   3.804584
    39  H    3.092294   2.497139   4.353879   3.833475   3.818553
    40  H    2.969139   4.029329   3.810014   2.211250   3.064194
    41  H    2.034427   2.897589   4.346218   3.067234   4.120564
    42  H    3.625438   4.125958   5.157618   3.798817   4.321761
    43  H    4.780002   4.389804   4.235730   4.109976   3.006894
    44  H    4.488970   4.773159   3.716588   3.063655   2.116547
    45  H    5.133993   5.349089   5.644463   4.536727   4.277403
    46  H    8.249571   8.189647   7.970905   7.240806   6.320356
    47  H    7.373652   7.513081   7.568615   6.535237   5.995740
                   36         37         38         39         40
    36  H    0.000000
    37  H    1.732930   0.000000
    38  H    1.769158   1.773678   0.000000
    39  H    3.772534   3.158748   2.551176   0.000000
    40  H    5.041011   4.556355   4.827416   3.068680   0.000000
    41  H    4.993818   4.850802   4.449158   2.493429   1.774351
    42  H    5.687990   4.994504   4.901819   2.489521   1.763060
    43  H    3.642921   2.058586   2.902433   2.493412   3.834648
    44  H    4.261097   2.984903   4.034680   3.067771   2.657106
    45  H    5.967750   4.732201   5.139958   3.073994   2.845587
    46  H    7.947226   6.298888   7.116426   5.759002   5.981099
    47  H    7.817708   6.335236   6.950019   5.109061   4.912550
                   41         42         43         44         45
    41  H    0.000000
    42  H    1.732646   0.000000
    43  H    4.355121   3.784821   0.000000
    44  H    3.836433   3.173503   1.769461   0.000000
    45  H    3.593416   2.033516   2.910124   2.339264   0.000000
    46  H    6.898727   5.344017   4.324367   4.277768   3.328214
    47  H    5.776379   4.104081   4.311433   3.908199   2.240976
                   46         47
    46  H    0.000000
    47  H    1.624362   0.000000
 Stoichiometry    C12H29N3O3
 Framework group  C1[X(C12H29N3O3)]
 Deg. of freedom   135
 Full point group                 C1      NOp   1
 Largest Abelian subgroup         C1      NOp   1
 Largest concise Abelian subgroup C1      NOp   1
                         Standard orientation:                         
 ---------------------------------------------------------------------
 Center     Atomic      Atomic             Coordinates (Angstroms)
 Number     Number       Type             X           Y           Z
 ---------------------------------------------------------------------
      1          6           0        8.859602   -0.437808   -0.129261
      2          8           0        7.689097    0.307258    0.169107
      3          6           0        6.519738   -0.433835   -0.162780
      4          6           0        5.296123    0.393891    0.160626
      5          8           0        4.152180   -0.337668   -0.272437
      6          7           0        2.979856    0.403374    0.140863
      7          6           0        1.851996   -0.440608   -0.236645
      8          6           0        0.620718    0.385853    0.075247
      9          6           0       -0.667703   -0.358778   -0.248899
     10          6           0       -1.956412    0.447610    0.094215
     11          6           0       -1.956170    0.821285    1.594312
     12          6           0       -1.955013    1.754099   -0.739572
     13          6           0       -3.224165   -0.419768   -0.265309
     14          6           0       -3.245450   -1.773319    0.481024
     15          6           0       -4.545823    0.351092   -0.018108
     16          7           0       -5.701909   -0.437316   -0.423913
     17          8           0       -6.838713    0.313911    0.018681
     18          7           0       -8.001175   -0.389714   -0.439866
     19          1           0        9.728651    0.166693    0.138862
     20          1           0        8.901768   -0.664260   -1.198917
     21          1           0        8.876991   -1.363246    0.453902
     22          1           0        6.489544   -1.373047    0.402581
     23          1           0        6.521397   -0.686022   -1.230317
     24          1           0        5.336548    1.353204   -0.370459
     25          1           0        5.245595    0.604694    1.236529
     26          1           0        2.990021    1.209205   -0.488358
     27          1           0        1.848932   -1.371055    0.341690
     28          1           0        1.884820   -0.688391   -1.303909
     29          1           0        0.672609    1.319990   -0.492899
     30          1           0        0.645815    0.643404    1.139241
     31          1           0       -0.640316   -1.298109    0.312431
     32          1           0       -0.675460   -0.629882   -1.313569
     33          1           0       -1.113448    1.465305    1.860266
     34          1           0       -1.895050   -0.069710    2.227400
     35          1           0       -2.850880    1.380823    1.877590
     36          1           0       -1.090589    2.386410   -0.516556
     37          1           0       -2.823443    2.383725   -0.532453
     38          1           0       -1.939254    1.532698   -1.813037
     39          1           0       -3.172377   -0.650020   -1.340121
     40          1           0       -3.312077   -1.632167    1.563785
     41          1           0       -2.363113   -2.379081    0.263820
     42          1           0       -4.093622   -2.393871    0.179092
     43          1           0       -4.561093    1.281629   -0.593593
     44          1           0       -4.636870    0.611292    1.042225
     45          1           0       -5.772523   -1.246520    0.187251
     46          1           0       -8.732915    0.240015   -0.134153
     47          1           0       -8.012222   -1.174406    0.210180
 ---------------------------------------------------------------------
 Rotational constants (GHZ):           2.0382441           0.0753583           0.0744366
 Standard basis: 6-31G(2df,p) (6D, 7F)
 There are   703 symmetry adapted cartesian basis functions of A   symmetry.
 There are   649 symmetry adapted basis functions of A   symmetry.
   649 basis functions,   995 primitive gaussians,   703 cartesian basis functions
    73 alpha electrons       73 beta electrons
       nuclear repulsion energy      1347.5607129211 Hartrees.
 NAtoms=   47 NActive=   47 NUniq=   47 SFac= 1.00D+00 NAtFMM=   60 NAOKFM=F Big=F
 Integral buffers will be    131072 words long.
 Raffenetti 2 integral format.
 Two-electron integral symmetry is turned on.
 One-electron integrals computed using PRISM.
 PrsmSu:  requested number of processors reduced to:  12 ShMem   1 Linda.
 NBasis=   649 RedAO= T EigKep=  3.86D-04  NBF=   649
 NBsUse=   649 1.00D-06 EigRej= -1.00D+00 NBFU=   649
 ExpMin= 1.61D-01 ExpMax= 5.48D+03 ExpMxC= 8.25D+02 IAcc=3 IRadAn=         5 AccDes= 0.00D+00
 Harris functional with IExCor=  402 and IRadAn=       5 diagonalized for initial guess.
 HarFok:  IExCor=  402 AccDes= 0.00D+00 IRadAn=         5 IDoV= 1 UseB2=F ITyADJ=14
 ICtDFT=  3500011 ScaDFX=  1.000000  1.000000  1.000000  1.000000
 FoFCou: FMM=F IPFlag=           0 FMFlag=      100000 FMFlg1=           0
         NFxFlg=           0 DoJE=T BraDBF=F KetDBF=T FulRan=T
         wScrn=  0.000000 ICntrl=       500 IOpCl=  0 I1Cent=   200000004 NGrid=           0
         NMat0=    1 NMatS0=      1 NMatT0=    0 NMatD0=    1 NMtDS0=    0 NMtDT0=    0
 Petite list used in FoFCou.
 Requested convergence on RMS density matrix=1.00D-08 within 128 cycles.
 Requested convergence on MAX density matrix=1.00D-06.
 Requested convergence on             energy=1.00D-06.
 No special actions if energy rises.
 Integral accuracy reduced to 1.0D-05 until final iterations.
 Initial convergence to 1.0D-05 achieved.  Increase integral accuracy.
 SCF Done:  E(RB3LYP) =  -864.517801453     A.U. after   12 cycles
            NFock= 12  Conv=0.76D-08     -V/T= 2.0074

 **********************************************************************

            Population analysis using the SCF density.

 **********************************************************************

 Orbital symmetries:
       Occupied  (A) (A) (A) (A) (A) (A) (A) (A) (A) (A) (A) (A)
                 (A) (A) (A) (A) (A) (A) (A) (A) (A) (A) (A) (A)
                 (A) (A) (A) (A) (A) (A) (A) (A) (A) (A) (A) (A)
                 (A) (A) (A) (A) (A) (A) (A) (A) (A) (A) (A) (A)
                 (A) (A) (A) (A) (A) (A) (A) (A) (A) (A) (A) (A)
                 (A) (A) (A) (A) (A) (A) (A) (A) (A) (A) (A) (A)
                 (A)
       Virtual   (A) (A) (A) (A) (A) (A) (A) (A) (A) (A) (A) (A)
                 (A) (A) (A) (A) (A) (A) (A) (A) (A) (A) (A) (A)
                 (A) (A) (A) (A) (A) (A) (A) (A) (A) (A) (A) (A)
                 (A) (A) (A) (A) (A) (A) (A) (A) (A) (A) (A) (A)
                 (A) (A) (A) (A) (A) (A) (A) (A) (A) (A) (A) (A)
                 (A) (A) (A) (A) (A) (A) (A) (A) (A) (A) (A) (A)
                 (A) (A) (A) (A) (A) (A) (A) (A) (A) (A) (A) (A)
                 (A) (A) (A) (A) (A) (A) (A) (A) (A) (A) (A) (A)
                 (A) (A) (A) (A) (A) (A) (A) (A) (A) (A) (A) (A)
                 (A) (A) (A) (A) (A) (A) (A) (A) (A) (A) (A) (A)
                 (A) (A) (A) (A) (A) (A) (A) (A) (A) (A) (A) (A)
                 (A) (A) (A) (A) (A) (A) (A) (A) (A) (A) (A) (A)
                 (A) (A) (A) (A) (A) (A) (A) (A) (A) (A) (A) (A)
                 (A) (A) (A) (A) (A) (A) (A) (A) (A) (A) (A) (A)
                 (A) (A) (A) (A) (A) (A) (A) (A) (A) (A) (A) (A)
                 (A) (A) (A) (A) (A) (A) (A) (A) (A) (A) (A) (A)
                 (A) (A) (A) (A) (A) (A) (A) (A) (A) (A) (A) (A)
                 (A) (A) (A) (A) (A) (A) (A) (A) (A) (A) (A) (A)
                 (A) (A) (A) (A) (A) (A) (A) (A) (A) (A) (A) (A)
                 (A) (A) (A) (A) (A) (A) (A) (A) (A) (A) (A) (A)
                 (A) (A) (A) (A) (A) (A) (A) (A) (A) (A) (A) (A)
                 (A) (A) (A) (A) (A) (A) (A) (A) (A) (A) (A) (A)
                 (A) (A) (A) (A) (A) (A) (A) (A) (A) (A) (A) (A)
                 (A) (A) (A) (A) (A) (A) (A) (A) (A) (A) (A) (A)
                 (A) (A) (A) (A) (A) (A) (A) (A) (A) (A) (A) (A)
                 (A) (A) (A) (A) (A) (A) (A) (A) (A) (A) (A) (A)
                 (A) (A) (A) (A) (A) (A) (A) (A) (A) (A) (A) (A)
                 (A) (A) (A) (A) (A) (A) (A) (A) (A) (A) (A) (A)
                 (A) (A) (A) (A) (A) (A) (A) (A) (A) (A) (A) (A)
                 (A) (A) (A) (A) (A) (A) (A) (A) (A) (A) (A) (A)
                 (A) (A) (A) (A) (A) (A) (A) (A) (A) (A) (A) (A)
                 (A) (A) (A) (A) (A) (A) (A) (A) (A) (A) (A) (A)
                 (A) (A) (A) (A) (A) (A) (A) (A) (A) (A) (A) (A)
                 (A) (A) (A) (A) (A) (A) (A) (A) (A) (A) (A) (A)
                 (A) (A) (A) (A) (A) (A) (A) (A) (A) (A) (A) (A)
                 (A) (A) (A) (A) (A) (A) (A) (A) (A) (A) (A) (A)
                 (A) (A) (A) (A) (A) (A) (A) (A) (A) (A) (A) (A)
                 (A) (A) (A) (A) (A) (A) (A) (A) (A) (A) (A) (A)
                 (A) (A) (A) (A) (A) (A) (A) (A) (A) (A) (A) (A)
                 (A) (A) (A) (A) (A) (A) (A) (A) (A) (A) (A) (A)
                 (A) (A) (A) (A) (A) (A) (A) (A) (A) (A) (A) (A)
                 (A) (A) (A) (A) (A) (A) (A) (A) (A) (A) (A) (A)
                 (A) (A) (A) (A) (A) (A) (A) (A) (A) (A) (A) (A)
                 (A) (A) (A) (A) (A) (A) (A) (A) (A) (A) (A) (A)
                 (A) (A) (A) (A) (A) (A) (A) (A) (A) (A) (A) (A)
                 (A) (A) (A) (A) (A) (A) (A) (A) (A) (A) (A) (A)
                 (A) (A) (A) (A) (A) (A) (A) (A) (A) (A) (A) (A)
                 (A) (A) (A) (A) (A) (A) (A) (A) (A) (A) (A) (A)
 The electronic state is 1-A.
 Alpha  occ. eigenvalues --  -19.17603 -19.15556 -19.13830 -14.36111 -14.36099
 Alpha  occ. eigenvalues --  -14.35697 -10.22399 -10.22240 -10.22057 -10.20232
 Alpha  occ. eigenvalues --  -10.20123 -10.20000 -10.19246 -10.17908 -10.17837
 Alpha  occ. eigenvalues --  -10.17691 -10.17170 -10.17113  -1.08232  -1.05422
 Alpha  occ. eigenvalues --   -1.02558  -0.88952  -0.85928  -0.82981  -0.77836
 Alpha  occ. eigenvalues --   -0.75385  -0.73081  -0.72310  -0.68596  -0.66890
 Alpha  occ. eigenvalues --   -0.66068  -0.64931  -0.61331  -0.60029  -0.58070
 Alpha  occ. eigenvalues --   -0.52836  -0.51196  -0.51012  -0.50184  -0.49041
 Alpha  occ. eigenvalues --   -0.48233  -0.47473  -0.46720  -0.45893  -0.45233
 Alpha  occ. eigenvalues --   -0.44974  -0.44212  -0.43449  -0.42599  -0.42269
 Alpha  occ. eigenvalues --   -0.41548  -0.40832  -0.39268  -0.38590  -0.37673
 Alpha  occ. eigenvalues --   -0.37312  -0.36566  -0.35976  -0.35575  -0.34844
 Alpha  occ. eigenvalues --   -0.34663  -0.34054  -0.32961  -0.31820  -0.31740
 Alpha  occ. eigenvalues --   -0.31275  -0.30819  -0.30073  -0.29000  -0.26478
 Alpha  occ. eigenvalues --   -0.25458  -0.21779  -0.20241
 Alpha virt. eigenvalues --    0.06880   0.07373   0.07738   0.08175   0.09353
 Alpha virt. eigenvalues --    0.09807   0.10438   0.10844   0.11334   0.12187
 Alpha virt. eigenvalues --    0.12945   0.13444   0.13557   0.14184   0.14629
 Alpha virt. eigenvalues --    0.14764   0.15120   0.15456   0.16080   0.16298
 Alpha virt. eigenvalues --    0.16500   0.17485   0.17688   0.18137   0.18502
 Alpha virt. eigenvalues --    0.19123   0.19919   0.20284   0.20451   0.20756
 Alpha virt. eigenvalues --    0.21176   0.21732   0.21929   0.22296   0.23148
 Alpha virt. eigenvalues --    0.23786   0.24536   0.25524   0.25797   0.25935
 Alpha virt. eigenvalues --    0.26496   0.27706   0.28980   0.29306   0.33606
 Alpha virt. eigenvalues --    0.34748   0.41749   0.42413   0.43600   0.44398
 Alpha virt. eigenvalues --    0.45978   0.46317   0.46963   0.47691   0.48473
 Alpha virt. eigenvalues --    0.49108   0.50249   0.50618   0.51118   0.52652
 Alpha virt. eigenvalues --    0.52840   0.53302   0.53498   0.53791   0.55968
 Alpha virt. eigenvalues --    0.56956   0.57824   0.58334   0.58639   0.59875
 Alpha virt. eigenvalues --    0.60645   0.61536   0.61834   0.63300   0.64304
 Alpha virt. eigenvalues --    0.65086   0.66181   0.66404   0.66708   0.67303
 Alpha virt. eigenvalues --    0.68072   0.68652   0.70026   0.70198   0.70408
 Alpha virt. eigenvalues --    0.71162   0.71633   0.72189   0.72470   0.72868
 Alpha virt. eigenvalues --    0.73301   0.73466   0.73983   0.74297   0.74593
 Alpha virt. eigenvalues --    0.75070   0.75144   0.75309   0.75661   0.75825
 Alpha virt. eigenvalues --    0.76254   0.77060   0.77877   0.78188   0.78473
 Alpha virt. eigenvalues --    0.79424   0.79981   0.80199   0.80924   0.82156
 Alpha virt. eigenvalues --    0.82424   0.82675   0.83633   0.84215   0.84776
 Alpha virt. eigenvalues --    0.85740   0.86142   0.86632   0.87402   0.87829
 Alpha virt. eigenvalues --    0.89051   0.89584   0.89706   0.90706   0.91297
 Alpha virt. eigenvalues --    0.92755   0.93532   0.94891   0.95101   0.95320
 Alpha virt. eigenvalues --    0.96315   0.97234   0.98441   0.99602   1.00234
 Alpha virt. eigenvalues --    1.00949   1.03496   1.03687   1.04067   1.04781
 Alpha virt. eigenvalues --    1.05048   1.06018   1.09559   1.10294   1.13584
 Alpha virt. eigenvalues --    1.15852   1.17670   1.17785   1.18460   1.18937
 Alpha virt. eigenvalues --    1.19303   1.21767   1.22366   1.23431   1.24565
 Alpha virt. eigenvalues --    1.24685   1.28083   1.28404   1.29708   1.31521
 Alpha virt. eigenvalues --    1.32301   1.33243   1.34563   1.35045   1.36164
 Alpha virt. eigenvalues --    1.36793   1.37827   1.38014   1.39970   1.40225
 Alpha virt. eigenvalues --    1.40779   1.41070   1.41477   1.43009   1.43207
 Alpha virt. eigenvalues --    1.43481   1.44569   1.46077   1.47229   1.48022
 Alpha virt. eigenvalues --    1.49103   1.49291   1.50476   1.51478   1.51973
 Alpha virt. eigenvalues --    1.52857   1.54231   1.55005   1.56306   1.57524
 Alpha virt. eigenvalues --    1.58254   1.60227   1.60436   1.62746   1.64601
 Alpha virt. eigenvalues --    1.64781   1.65819   1.66536   1.68954   1.69795
 Alpha virt. eigenvalues --    1.70079   1.72066   1.72767   1.73155   1.73569
 Alpha virt. eigenvalues --    1.75251   1.77016   1.77063   1.77476   1.78879
 Alpha virt. eigenvalues --    1.80638   1.81313   1.82550   1.82761   1.83832
 Alpha virt. eigenvalues --    1.85074   1.86518   1.88494   1.88617   1.89975
 Alpha virt. eigenvalues --    1.91027   1.91744   1.92572   1.92846   1.94315
 Alpha virt. eigenvalues --    1.95118   1.96184   1.97073   1.97388   1.97614
 Alpha virt. eigenvalues --    1.99286   1.99898   2.01332   2.02851   2.03490
 Alpha virt. eigenvalues --    2.06215   2.07780   2.11813   2.16526   2.16875
 Alpha virt. eigenvalues --    2.17045   2.20011   2.20482   2.21728   2.24542
 Alpha virt. eigenvalues --    2.26163   2.26281   2.26846   2.27221   2.29235
 Alpha virt. eigenvalues --    2.30065   2.30649   2.30994   2.32310   2.33346
 Alpha virt. eigenvalues --    2.33660   2.35298   2.37690   2.41776   2.42722
 Alpha virt. eigenvalues --    2.43354   2.46854   2.47713   2.48355   2.49589
 Alpha virt. eigenvalues --    2.50762   2.51948   2.53298   2.56134   2.57151
 Alpha virt. eigenvalues --    2.58055   2.58551   2.60764   2.61878   2.64502
 Alpha virt. eigenvalues --    2.66164   2.68761   2.69960   2.71250   2.73275
 Alpha virt. eigenvalues --    2.73691   2.74202   2.75299   2.75889   2.76136
 Alpha virt. eigenvalues --    2.77432   2.78557   2.79020   2.80561   2.80653
 Alpha virt. eigenvalues --    2.81684   2.82344   2.82990   2.83127   2.84220
 Alpha virt. eigenvalues --    2.84459   2.84892   2.85475   2.85911   2.87330
 Alpha virt. eigenvalues --    2.88026   2.88451   2.89050   2.90122   2.90802
 Alpha virt. eigenvalues --    2.90889   2.91736   2.92470   2.93523   2.93845
 Alpha virt. eigenvalues --    2.94512   2.95059   2.95309   2.96534   2.97381
 Alpha virt. eigenvalues --    2.98119   2.98666   2.99356   3.00745   3.01698
 Alpha virt. eigenvalues --    3.02326   3.03135   3.04167   3.05016   3.06555
 Alpha virt. eigenvalues --    3.07898   3.08888   3.09526   3.11009   3.14358
 Alpha virt. eigenvalues --    3.17138   3.17977   3.19798   3.20591   3.22271
 Alpha virt. eigenvalues --    3.22988   3.26110   3.28135   3.29051   3.30966
 Alpha virt. eigenvalues --    3.31546   3.33203   3.33582   3.34123   3.34537
 Alpha virt. eigenvalues --    3.35426   3.37040   3.37951   3.38922   3.39634
 Alpha virt. eigenvalues --    3.41239   3.44118   3.44671   3.45344   3.45538
 Alpha virt. eigenvalues --    3.47265   3.48765   3.49481   3.51041   3.51452
 Alpha virt. eigenvalues --    3.52746   3.53205   3.54110   3.56137   3.56766
 Alpha virt. eigenvalues --    3.58164   3.58908   3.59450   3.61708   3.62458
 Alpha virt. eigenvalues --    3.65030   3.65721   3.67043   3.67795   3.69056
 Alpha virt. eigenvalues --    3.69699   3.70431   3.71984   3.72797   3.74420
 Alpha virt. eigenvalues --    3.74647   3.75325   3.78364   3.78803   3.82320
 Alpha virt. eigenvalues --    3.84300   3.85414   3.86438   3.86988   3.87594
 Alpha virt. eigenvalues --    3.88158   3.90369   3.92050   3.92503   3.94352
 Alpha virt. eigenvalues --    3.94907   3.96052   3.96481   3.97002   3.98096
 Alpha virt. eigenvalues --    4.00367   4.03108   4.04463   4.07624   4.08023
 Alpha virt. eigenvalues --    4.09720   4.13023   4.14714   4.18216   4.18661
 Alpha virt. eigenvalues --    4.20783   4.22918   4.24940   4.25516   4.27459
 Alpha virt. eigenvalues --    4.30161   4.30242   4.32903   4.33148   4.33400
 Alpha virt. eigenvalues --    4.34776   4.35672   4.36630   4.36773   4.37068
 Alpha virt. eigenvalues --    4.37903   4.38625   4.39066   4.39904   4.40760
 Alpha virt. eigenvalues --    4.41188   4.42053   4.42401   4.43952   4.44930
 Alpha virt. eigenvalues --    4.46345   4.46687   4.47700   4.48694   4.49116
 Alpha virt. eigenvalues --    4.49497   4.49996   4.50979   4.51393   4.51586
 Alpha virt. eigenvalues --    4.52408   4.54106   4.55030   4.55460   4.56513
 Alpha virt. eigenvalues --    4.57210   4.58181   4.58729   4.58981   4.60073
 Alpha virt. eigenvalues --    4.60874   4.61648   4.62294   4.62447   4.63890
 Alpha virt. eigenvalues --    4.65313   4.66310   4.66975   4.67458   4.67797
 Alpha virt. eigenvalues --    4.68747   4.70155   4.70670   4.71290   4.71305
 Alpha virt. eigenvalues --    4.72053   4.73198   4.73408   4.74663   4.75584
 Alpha virt. eigenvalues --    4.76836   4.77038   4.77540   4.77760   4.78654
 Alpha virt. eigenvalues --    4.79220   4.80066   4.81426   4.82459   4.82603
 Alpha virt. eigenvalues --    4.83332   4.83494   4.84583   4.86329   4.87182
 Alpha virt. eigenvalues --    4.88226   4.89214   4.89620   4.90503   4.91605
 Alpha virt. eigenvalues --    4.92772   4.93352   4.95228   4.97354   4.97799
 Alpha virt. eigenvalues --    4.98047   4.99544   5.00238   5.01365   5.02530
 Alpha virt. eigenvalues --    5.05702   5.10971   5.12568   5.15682   5.18234
 Alpha virt. eigenvalues --    5.20077   5.22674   5.27937   5.30077   5.31835
 Alpha virt. eigenvalues --    5.32277   5.36928   5.37805   5.39823   5.40501
 Alpha virt. eigenvalues --    5.41293   5.46473   5.48880   5.49876   5.51331
 Alpha virt. eigenvalues --    5.52165   5.53171   5.54042   5.54857   5.58206
 Alpha virt. eigenvalues --    5.58678   5.61458   5.68954   5.72130   5.77252
 Alpha virt. eigenvalues --    5.78926   5.83981   5.84321   5.85374   5.89109
 Alpha virt. eigenvalues --    5.96806   5.97290   5.99017   6.00980   6.01816
 Alpha virt. eigenvalues --    6.06652   6.18397   6.18928   6.21781   6.23888
 Alpha virt. eigenvalues --    6.26441   6.35778   6.96783   7.01742   7.05813
 Alpha virt. eigenvalues --    7.42519  10.57254  10.93071  11.14813  11.33235
 Alpha virt. eigenvalues --   11.34007  11.39735  11.47841  11.57721  11.70048
 Alpha virt. eigenvalues --   11.79998  11.94670  12.07156  12.40187  12.67181
 Alpha virt. eigenvalues --   12.88859  13.05126  13.21982  13.33211  13.53748
 Alpha virt. eigenvalues --   13.67601
          Condensed to atoms (all electrons):
               1          2          3          4          5          6
     1  C    4.811993   0.369677  -0.080998   0.003777  -0.000053   0.000001
     2  O    0.369677   7.696324   0.345030  -0.025790   0.000469  -0.000011
     3  C   -0.080998   0.345030   4.783473   0.416247  -0.027806   0.003206
     4  C    0.003777  -0.025790   0.416247   4.760382   0.327392  -0.058118
     5  O   -0.000053   0.000469  -0.027806   0.327392   7.903787   0.196111
     6  N    0.000001  -0.000011   0.003206  -0.058118   0.196111   6.462713
     7  C   -0.000000   0.000000  -0.000306   0.002214  -0.035298   0.370524
     8  C    0.000000   0.000000   0.000004  -0.000526   0.002519  -0.047617
     9  C    0.000000   0.000000   0.000000   0.000001  -0.000026   0.001918
    10  C    0.000000   0.000000   0.000000  -0.000000   0.000000  -0.000021
    11  C   -0.000000  -0.000000  -0.000000  -0.000000   0.000000  -0.000007
    12  C    0.000000  -0.000000   0.000000   0.000000   0.000000   0.000004
    13  C    0.000000   0.000000   0.000000   0.000000  -0.000000   0.000000
    14  C    0.000000   0.000000   0.000000   0.000000   0.000000   0.000000
    15  C    0.000000   0.000000   0.000000  -0.000000   0.000000  -0.000000
    16  N    0.000000   0.000000   0.000000   0.000000  -0.000000   0.000000
    17  O    0.000000   0.000000   0.000000   0.000000   0.000000  -0.000000
    18  N    0.000000   0.000000   0.000000   0.000000   0.000000   0.000000
    19  H    0.384243  -0.019332   0.005163  -0.000292   0.000000  -0.000000
    20  H    0.370597  -0.033231  -0.006720   0.000227   0.000006   0.000000
    21  H    0.371020  -0.033213  -0.006650   0.000193   0.000004   0.000000
    22  H   -0.004572  -0.030086   0.347279  -0.030235   0.004737   0.000058
    23  H   -0.004815  -0.030346   0.345509  -0.030673   0.005355   0.000047
    24  H    0.000135   0.004928  -0.032144   0.345447  -0.032053  -0.003427
    25  H    0.000125   0.003534  -0.022877   0.346531  -0.027954   0.009503
    26  H    0.000000   0.000005  -0.000376  -0.006906  -0.037022   0.318703
    27  H   -0.000000   0.000000  -0.000012   0.000187   0.001587  -0.018425
    28  H    0.000000   0.000000   0.000090   0.000584   0.008520  -0.039581
    29  H   -0.000000   0.000000  -0.000000   0.000004   0.000078  -0.002306
    30  H    0.000000   0.000000   0.000001   0.000028   0.000043   0.005665
    31  H   -0.000000  -0.000000  -0.000000   0.000000   0.000002   0.000139
    32  H   -0.000000  -0.000000   0.000000   0.000000   0.000001   0.000054
    33  H   -0.000000   0.000000  -0.000000  -0.000000  -0.000000  -0.000012
    34  H   -0.000000   0.000000   0.000000   0.000000  -0.000000   0.000001
    35  H    0.000000  -0.000000   0.000000  -0.000000   0.000000  -0.000000
    36  H    0.000000   0.000000   0.000000   0.000000  -0.000000   0.000010
    37  H    0.000000  -0.000000   0.000000  -0.000000   0.000000  -0.000000
    38  H   -0.000000   0.000000  -0.000000   0.000000  -0.000000   0.000000
    39  H   -0.000000   0.000000  -0.000000   0.000000   0.000000   0.000000
    40  H    0.000000  -0.000000  -0.000000  -0.000000   0.000000  -0.000000
    41  H    0.000000  -0.000000   0.000000  -0.000000   0.000000  -0.000000
    42  H    0.000000   0.000000   0.000000  -0.000000  -0.000000   0.000000
    43  H    0.000000   0.000000   0.000000   0.000000   0.000000   0.000000
    44  H    0.000000   0.000000   0.000000   0.000000   0.000000   0.000000
    45  H    0.000000   0.000000   0.000000   0.000000   0.000000   0.000000
    46  H    0.000000   0.000000   0.000000   0.000000   0.000000  -0.000000
    47  H    0.000000   0.000000   0.000000   0.000000   0.000000   0.000000
               7          8          9         10         11         12
     1  C   -0.000000   0.000000   0.000000   0.000000  -0.000000   0.000000
     2  O    0.000000   0.000000   0.000000   0.000000  -0.000000  -0.000000
     3  C   -0.000306   0.000004   0.000000   0.000000  -0.000000   0.000000
     4  C    0.002214  -0.000526   0.000001  -0.000000  -0.000000   0.000000
     5  O   -0.035298   0.002519  -0.000026   0.000000   0.000000   0.000000
     6  N    0.370524  -0.047617   0.001918  -0.000021  -0.000007   0.000004
     7  C    4.825881   0.396379  -0.041203   0.000653   0.000556   0.000523
     8  C    0.396379   4.869581   0.414340  -0.030315  -0.005815  -0.005737
     9  C   -0.041203   0.414340   4.954062   0.413461  -0.045685  -0.043604
    10  C    0.000653  -0.030315   0.413461   4.395159   0.397847   0.390074
    11  C    0.000556  -0.005815  -0.045685   0.397847   5.090633  -0.062211
    12  C    0.000523  -0.005737  -0.043604   0.390074  -0.062211   5.103697
    13  C   -0.000125   0.001267  -0.034712   0.403079  -0.037768  -0.034017
    14  C    0.000009   0.000590  -0.005672  -0.019323  -0.008390   0.003433
    15  C    0.000000  -0.000111   0.001225  -0.030596  -0.006884  -0.004661
    16  N   -0.000000   0.000000  -0.000049   0.000376   0.000316   0.000341
    17  O    0.000000  -0.000000   0.000000  -0.000000  -0.000002   0.000000
    18  N   -0.000000   0.000000  -0.000000  -0.000000   0.000000   0.000000
    19  H    0.000000  -0.000000   0.000000  -0.000000  -0.000000  -0.000000
    20  H    0.000000   0.000000  -0.000000  -0.000000   0.000000  -0.000000
    21  H    0.000000   0.000000   0.000000   0.000000  -0.000000   0.000000
    22  H    0.000035   0.000000   0.000000   0.000000   0.000000  -0.000000
    23  H    0.000036   0.000000   0.000000   0.000000  -0.000000   0.000000
    24  H    0.000175   0.000064  -0.000000   0.000000   0.000000   0.000000
    25  H    0.000681   0.000031   0.000001   0.000000  -0.000000   0.000000
    26  H   -0.056065   0.004983  -0.000492   0.000015   0.000001  -0.000013
    27  H    0.354204  -0.017009  -0.006148  -0.000023   0.000006  -0.000003
    28  H    0.359709  -0.035631   0.002463   0.000178  -0.000011   0.000010
    29  H   -0.034899   0.362666  -0.033002  -0.003432  -0.000712   0.000272
    30  H   -0.031503   0.362287  -0.029299  -0.003802   0.000704  -0.000529
    31  H   -0.003082  -0.033568   0.349072  -0.016686  -0.007307   0.005729
    32  H   -0.002502  -0.034082   0.346936  -0.017500   0.005833  -0.007796
    33  H   -0.000067  -0.000673  -0.005004  -0.019512   0.368546  -0.005805
    34  H   -0.000035  -0.000070  -0.005039  -0.018264   0.364562   0.005604
    35  H   -0.000008   0.000199   0.004712  -0.019889   0.366244  -0.004145
    36  H   -0.000073  -0.001469  -0.005578  -0.016867  -0.004529   0.364923
    37  H   -0.000008   0.000151   0.004582  -0.018104  -0.004075   0.367532
    38  H   -0.000028  -0.000173  -0.004271  -0.017491   0.005590   0.361878
    39  H    0.000003   0.000136  -0.006572  -0.023931   0.005848  -0.006412
    40  H    0.000000  -0.000024  -0.000469  -0.006082   0.001128   0.000133
    41  H   -0.000001  -0.000079  -0.000844  -0.004284  -0.000069   0.000102
    42  H   -0.000000  -0.000008   0.000282   0.002368   0.000189  -0.000133
    43  H    0.000000   0.000004   0.000120  -0.006925  -0.000076   0.001028
    44  H    0.000000   0.000006   0.000168  -0.000231  -0.000686  -0.000544
    45  H    0.000000   0.000000   0.000003  -0.000280  -0.000001  -0.000009
    46  H    0.000000  -0.000000   0.000000  -0.000000  -0.000000  -0.000000
    47  H    0.000000   0.000000   0.000000  -0.000000   0.000000  -0.000000
              13         14         15         16         17         18
     1  C    0.000000   0.000000   0.000000   0.000000   0.000000   0.000000
     2  O    0.000000   0.000000   0.000000   0.000000   0.000000   0.000000
     3  C    0.000000   0.000000   0.000000   0.000000   0.000000   0.000000
     4  C    0.000000   0.000000  -0.000000   0.000000   0.000000   0.000000
     5  O   -0.000000   0.000000   0.000000  -0.000000   0.000000   0.000000
     6  N    0.000000   0.000000  -0.000000   0.000000  -0.000000   0.000000
     7  C   -0.000125   0.000009   0.000000  -0.000000   0.000000  -0.000000
     8  C    0.001267   0.000590  -0.000111   0.000000  -0.000000   0.000000
     9  C   -0.034712  -0.005672   0.001225  -0.000049   0.000000  -0.000000
    10  C    0.403079  -0.019323  -0.030596   0.000376  -0.000000  -0.000000
    11  C   -0.037768  -0.008390  -0.006884   0.000316  -0.000002   0.000000
    12  C   -0.034017   0.003433  -0.004661   0.000341   0.000000   0.000000
    13  C    4.757659   0.376111   0.393592  -0.029713   0.001687  -0.000176
    14  C    0.376111   5.062731  -0.037553  -0.003770   0.000237   0.000006
    15  C    0.393592  -0.037553   4.896356   0.364351  -0.037536   0.004013
    16  N   -0.029713  -0.003770   0.364351   6.443207   0.199938  -0.050349
    17  O    0.001687   0.000237  -0.037536   0.199938   8.026226   0.209656
    18  N   -0.000176   0.000006   0.004013  -0.050349   0.209656   6.548950
    19  H    0.000000   0.000000   0.000000   0.000000   0.000000   0.000000
    20  H    0.000000  -0.000000   0.000000   0.000000   0.000000   0.000000
    21  H    0.000000  -0.000000   0.000000   0.000000   0.000000   0.000000
    22  H    0.000000  -0.000000   0.000000   0.000000   0.000000   0.000000
    23  H    0.000000  -0.000000   0.000000   0.000000   0.000000   0.000000
    24  H    0.000000  -0.000000  -0.000000   0.000000   0.000000   0.000000
    25  H    0.000000  -0.000000   0.000000   0.000000   0.000000   0.000000
    26  H    0.000000  -0.000000  -0.000000   0.000000   0.000000  -0.000000
    27  H    0.000006  -0.000009  -0.000000   0.000000   0.000000   0.000000
    28  H    0.000005  -0.000000   0.000000   0.000000   0.000000   0.000000
    29  H    0.000144  -0.000007  -0.000000   0.000000   0.000000   0.000000
    30  H    0.000228  -0.000026   0.000005   0.000000   0.000000   0.000000
    31  H   -0.006171  -0.001104   0.000084   0.000002   0.000000   0.000000
    32  H   -0.003733  -0.000489   0.000147   0.000002   0.000000   0.000000
    33  H    0.004090   0.000081   0.000066  -0.000003  -0.000000   0.000000
    34  H   -0.004513  -0.000206   0.000012  -0.000004   0.000000  -0.000000
    35  H   -0.005164  -0.000012  -0.000879  -0.000078   0.000000   0.000000
    36  H    0.003811  -0.000149   0.000185  -0.000003  -0.000000  -0.000000
    37  H   -0.005825   0.000055  -0.001626   0.000013  -0.000004  -0.000000
    38  H   -0.003970   0.000092  -0.000365  -0.000019   0.000000  -0.000000
    39  H    0.343583  -0.048234  -0.039424   0.002548  -0.000001   0.000006
    40  H   -0.024397   0.370917  -0.003901  -0.000736  -0.000016   0.000000
    41  H   -0.021210   0.372232   0.003843   0.000135  -0.000003  -0.000000
    42  H   -0.019901   0.367825  -0.004876   0.000971   0.000039   0.000007
    43  H   -0.014636   0.005386   0.345859  -0.019146   0.003105   0.000122
    44  H   -0.025512  -0.010107   0.351773  -0.048369   0.010397  -0.000039
    45  H   -0.001900   0.007006  -0.060636   0.323248  -0.043467  -0.000858
    46  H    0.000004  -0.000000  -0.000519   0.004100  -0.026460   0.326191
    47  H    0.000039  -0.000021  -0.000649  -0.003975  -0.049138   0.316781
              19         20         21         22         23         24
     1  C    0.384243   0.370597   0.371020  -0.004572  -0.004815   0.000135
     2  O   -0.019332  -0.033231  -0.033213  -0.030086  -0.030346   0.004928
     3  C    0.005163  -0.006720  -0.006650   0.347279   0.345509  -0.032144
     4  C   -0.000292   0.000227   0.000193  -0.030235  -0.030673   0.345447
     5  O    0.000000   0.000006   0.000004   0.004737   0.005355  -0.032053
     6  N   -0.000000   0.000000   0.000000   0.000058   0.000047  -0.003427
     7  C    0.000000   0.000000   0.000000   0.000035   0.000036   0.000175
     8  C   -0.000000   0.000000   0.000000   0.000000   0.000000   0.000064
     9  C    0.000000  -0.000000   0.000000   0.000000   0.000000  -0.000000
    10  C   -0.000000  -0.000000   0.000000   0.000000   0.000000   0.000000
    11  C   -0.000000   0.000000  -0.000000   0.000000  -0.000000   0.000000
    12  C   -0.000000  -0.000000   0.000000  -0.000000   0.000000   0.000000
    13  C    0.000000   0.000000   0.000000   0.000000   0.000000   0.000000
    14  C    0.000000  -0.000000  -0.000000  -0.000000  -0.000000  -0.000000
    15  C    0.000000   0.000000   0.000000   0.000000   0.000000  -0.000000
    16  N    0.000000   0.000000   0.000000   0.000000   0.000000   0.000000
    17  O    0.000000   0.000000   0.000000   0.000000   0.000000   0.000000
    18  N    0.000000   0.000000   0.000000   0.000000   0.000000   0.000000
    19  H    0.574630  -0.035613  -0.035565  -0.000069  -0.000058   0.000012
    20  H   -0.035613   0.635454  -0.048659  -0.002690   0.013839  -0.000038
    21  H   -0.035565  -0.048659   0.634438   0.013713  -0.002709   0.000041
[...]
 4,0.00502494,-0.00067409,0.00550320,0.15982310,0.00001191,0.00000175,0
 .00000318,-0.00001796,-0.00000311,0.00000366,0.00001016,0.00000207,-0.
 00000183,0.00001345,0.00000479,-0.00002055,-0.00003080,-0.00001348,0.0
 0000683,0.00000096,-0.00000104,0.00000793,0.00002853,0.00001064,0.0000
 0068,0.00001606,-0.00001695,0.00004288,0.00001817,0.00002414,-0.000000
 49,0.00015043,0.00049285,-0.00032124,-0.00048003,-0.00033392,0.0003362
 8,-0.00028661,0.00015418,-0.00043681,-0.00365392,0.00113366,-0.0053376
 8,0.00069707,-0.00020107,0.00074073,0.01497340,-0.05103433,0.01389141,
 0.02128744,-0.02081939,0.03433955,0.00138029,0.00302828,-0.00373897,-0
 .00013169,0.00049411,-0.00040267,-0.00000159,-0.00000019,0.00000105,-0
 .00000112,-0.00000105,-0.00000138,-0.00000116,0.00000059,-0.00000113,-
 0.00000025,-0.00000003,0.00000053,-0.00000113,-0.00000090,0.00000003,-
 0.00000075,-0.00000169,0.00000298,-0.00000009,-0.00000028,0.00000146,0
 .00000134,0.00000332,-0.00000236,0.00000113,-0.00000007,0.00000056,0.0
 0000118,-0.00000114,0.00000151,-0.00000166,-0.00001287,-0.00000208,-0.
 00001649,-0.00002253,0.00000651,0.00003027,0.00000420,-0.00001041,0.00
 006065,0.00001188,0.00006730,0.00005515,-0.00000882,-0.00001564,0.0000
 7000,0.00003893,-0.00001585,-0.00032583,-0.00046731,0.00080121,0.00017
 974,-0.00006340,0.00013784,0.00010509,-0.00009742,-0.00012813,0.000011
 62,0.00001928,0.00025151,-0.00167854,0.00010159,0.00093144,0.00002845,
 0.00009825,-0.00008504,-0.00008655,0.00001814,-0.00010266,-0.00007216,
 0.00011340,0.00006191,-0.01261822,0.00333103,-0.01396841,-0.01975529,0
 .06169968,-0.00000642,0.00000101,-0.00000295,0.00000852,-0.00000075,0.
 00000247,-0.00000546,0.00000213,-0.00000280,-0.00000610,0.00000081,0.0
 0000269,0.00001244,0.00000060,0.00000516,-0.00000759,-0.00000472,0.000
 00584,-0.00002274,-0.00003178,0.00001807,-0.00006266,0.00004098,-0.000
 08993,-0.00002960,-0.00024274,0.00002414,-0.00070679,0.00036495,-0.000
 04501,-0.00014677,0.00040933,-0.00069720,-0.00060729,0.00000493,-0.000
 13279,0.00560647,-0.00219930,0.00637464,0.00008129,0.00022836,0.001539
 46,-0.11294004,0.01389506,-0.18543506,-0.00730791,0.01323502,-0.010303
 33,-0.00006004,-0.00178508,0.00198163,-0.00005205,-0.00013830,-0.00050
 295,0.00000044,0.00000014,-0.00000003,0.00000054,0.00000042,0.00000043
 ,0.00000095,-0.00000131,0.00000100,0.00000168,-0.00000171,0.00000071,0
 .00000083,0.00000050,0.00000016,0.00000057,-0.00000172,-0.00000019,-0.
 00000042,0.00000088,-0.00000060,-0.00000394,-0.00000117,-0.00000664,0.
 00000508,0.00000017,-0.00000164,0.00001318,0.00000284,0.00000787,-0.00
 000056,-0.00000187,-0.00000624,0.00000364,0.00000641,0.00004443,0.0000
 2250,0.00000859,0.00001066,0.00000945,-0.00002678,0.00002415,0.0001769
 7,0.00002684,0.00008376,0.00018922,0.00007020,-0.00002682,0.00088940,0
 .00074964,-0.00031954,0.00009194,-0.00008437,0.00015825,0.00017459,-0.
 00013414,-0.00014950,0.00026400,0.00005991,0.00024930,0.00222096,0.000
 42722,0.00057566,-0.00056425,0.00027298,0.00020575,-0.00016163,0.00006
 827,0.00011731,0.00022477,-0.00016240,-0.00002600,-0.01665677,0.002452
 23,-0.01747205,0.12776497,-0.02758687,0.20225275,-0.00000729,-0.000005
 70,-0.00000085,0.00000979,0.00000709,-0.00000341,-0.00000396,-0.000008
 04,0.00000411,-0.00000462,-0.00001089,0.00000640,0.00000814,0.00001163
 ,-0.00000300,-0.00000247,0.00000917,-0.00000723,-0.00000140,-0.0000220
 1,-0.00000304,-0.00004387,0.00000308,0.00002693,0.00008855,-0.00006822
 ,-0.00004707,-0.00010445,0.00000240,0.00029839,0.00015001,-0.00000545,
 0.00000775,0.00011202,0.00006609,-0.00008490,0.00079159,-0.00068798,-0
 .00075254,0.00038449,-0.00138766,0.00094311,0.00111360,0.00425852,-0.0
 0576741,-0.02953657,-0.02485277,-0.00955671,-0.01930197,0.02251602,0.0
 4265225,-0.00811331,0.00162030,-0.00092403,0.00000094,-0.00000021,-0.0
 0000093,0.00000074,0.00000208,0.00000161,0.00000006,0.00000099,-0.0000
 0041,-0.00000182,0.00000190,-0.00000209,0.00000131,0.00000271,0.000000
 51,-0.00000034,0.00000367,-0.00000184,0.00000049,0.00000183,0.00000187
 ,0.00000266,0.00000115,0.00000395,-0.00001361,0.00000353,0.00000775,-0
 .00000077,0.00000070,-0.00000238,0.00000296,0.00005000,-0.00000145,0.0
 0000346,0.00000108,-0.00000664,-0.00012405,0.00003107,0.00006870,-0.00
 000167,0.00001068,0.00000981,-0.00006955,0.00002808,0.00002708,-0.0000
 6639,-0.00002978,0.00011714,-0.00008992,0.00002597,-0.00009385,-0.0000
 8189,0.00002476,0.00008702,-0.00011443,0.00008338,-0.00002009,0.000049
 21,0.00001842,0.00006084,-0.00006855,-0.00007216,0.00008779,-0.0000505
 0,-0.00000455,-0.00001912,-0.00005355,0.00069875,-0.00032369,-0.002558
 11,0.00060547,0.00076702,0.00020122,-0.00138182,0.00108028,0.00039252,
 -0.00004272,0.00148956,0.05702629,-0.00000932,-0.00000051,-0.00000271,
 0.00001397,0.00000185,-0.00000207,-0.00000787,-0.00000152,0.00000072,-
 0.00000939,-0.00000369,0.00001249,0.00002120,0.00000864,-0.00000275,0.
 00000027,0.00000077,-0.00000139,-0.00001807,0.00000028,0.00000254,-0.0
 0002036,-0.00001015,0.00001307,0.00005306,0.00002973,-0.00000511,0.000
 01598,-0.00026162,0.00007336,-0.00006119,0.00003757,-0.00004480,0.0001
 0340,-0.00024882,0.00009089,0.00041659,-0.00032581,-0.00045275,0.00011
 066,-0.00013187,-0.00015154,0.00072499,-0.02671481,-0.02881126,0.00460
 932,-0.21349242,-0.17410018,-0.00152087,0.00473108,0.00375382,-0.00169
 017,0.00154230,0.00314470,0.00000089,0.00000015,-0.00000048,0.00000082
 ,0.00000044,0.00000087,0.00000107,-0.00000059,0.00000102,0.00000047,-0
 .00000007,-0.00000021,0.00000091,0.00000093,0.00000012,0.00000044,0.00
 000117,-0.00000189,-0.00000012,0.00000075,-0.00000080,-0.00000021,-0.0
 0000088,-0.00000066,-0.00000769,-0.00000002,0.00000066,0.00000386,0.00
 000247,0.00000110,0.00000636,0.00004155,-0.00000199,-0.00000441,-0.000
 00325,0.00000899,-0.00009541,0.00002341,0.00003799,0.00001389,0.000009
 22,0.00001628,0.00002797,0.00004539,0.00000395,-0.00001142,-0.00000361
 ,0.00007119,0.00005796,-0.00005751,0.00003916,-0.00015853,-0.00000518,
 0.00007368,-0.00025255,0.00004650,-0.00008268,0.00009376,0.00005328,0.
 00007474,0.00013613,0.00003253,0.00010539,0.00001575,-0.00015654,0.000
 51846,0.00021025,0.00048183,0.00004070,-0.00003805,0.00088445,-0.00032
 211,-0.00092241,-0.00571925,0.00359314,0.00069437,0.00242694,-0.000101
 54,-0.00185771,0.23650777,0.00000824,-0.00000060,0.00000295,-0.0000112
 3,0.00000021,-0.00000018,0.00000673,-0.00000254,0.00000109,0.00000791,
 0.00000014,-0.00000959,-0.00002006,-0.00000714,0.00000270,-0.00000363,
 0.00000492,-0.00000110,0.00001788,-0.00001381,0.00000588,-0.00002402,0
 .00001515,-0.00000981,-0.00000851,-0.00008443,0.00003253,-0.00020610,0
 .00018508,0.00004541,0.00004097,-0.00003782,0.00001506,-0.00005994,0.0
 0013180,-0.00004379,-0.00041719,-0.00140675,0.00053293,0.00138704,-0.0
 0045940,0.00020019,-0.00485702,0.01908735,0.00778814,0.03597509,-0.206
 32096,-0.24237017,-0.00734660,-0.00629394,-0.01248533,0.00579427,-0.00
 099469,-0.00193057,-0.00000097,-0.00000023,0.00000059,-0.00000084,-0.0
 0000043,-0.00000070,-0.00000099,0.00000120,-0.00000122,-0.00000121,0.0
 0000135,-0.00000048,-0.00000089,0.00000015,0.00000006,-0.00000107,0.00
 000084,0.00000108,0.00000043,-0.00000026,0.00000112,0.00000181,0.00000
 222,0.00000084,0.00000013,0.00000137,0.00000295,-0.00000303,-0.0000024
 5,-0.00000335,0.00000543,-0.00000882,-0.00000435,0.00000407,0.00000312
 ,-0.00000613,0.00001728,-0.00000954,-0.00000269,-0.00000977,-0.0000030
 7,-0.00001005,-0.00002042,-0.00002660,0.00000708,0.00000818,0.00001346
 ,-0.00001250,-0.00004844,0.00004170,-0.00001267,0.00007327,-0.00000049
 ,-0.00002293,0.00010301,-0.00001432,0.00004211,-0.00002915,-0.00000544
 ,-0.00002380,0.00004834,-0.00011158,-0.00009527,-0.00005879,0.00021526
 ,-0.00068262,-0.00017054,0.00023928,-0.00030057,0.00074903,0.00071308,
 -0.00019772,0.00045450,0.00287537,0.00006897,0.00000444,0.00053787,0.0
 0155792,-0.03283621,0.19124600,0.24988818,-0.00000153,0.00000069,-0.00
 000032,0.00000158,-0.00000102,-0.00000081,-0.00000033,0.00000224,0.000
 00066,-0.00000153,0.00000218,0.00000348,0.00000028,-0.00000293,-0.0000
 0141,-0.00000192,0.00000126,-0.00000111,0.00000199,-0.00000157,0.00000
 429,-0.00000807,0.00000692,0.00000123,0.00000374,-0.00001743,0.0000021
 2,-0.00001758,0.00004679,0.00002197,0.00000426,-0.00002378,-0.00000233
 ,-0.00002425,-0.00001737,0.00000515,-0.00000177,-0.00010860,-0.0000744
 4,0.00001334,0.00001948,-0.00000183,0.00007352,0.00107935,0.00030803,-
 0.00025550,0.00078830,0.00355731,-0.00169682,-0.00661694,-0.00883868,-
 0.37032573,0.15102624,0.04086427,0.00000025,0.00000011,0.00000024,0.00
 000022,-0.00000019,-0.00000016,0.00000027,-0.00000034,0.00000022,-0.00
 000004,-0.00000031,0.00000019,-0.00000061,-0.00000128,-0.00000040,0.00
 000016,-0.00000037,-0.00000027,0.00000021,-0.00000119,-0.00000104,0.00
 000032,-0.00000091,-0.00000011,0.00000236,-0.00000096,-0.00000201,-0.0
 0000095,0.00000072,-0.00000123,0.00000030,-0.00000938,-0.00000049,0.00
 000076,-0.00000070,-0.00000163,0.00001540,-0.00000206,-0.00000795,-0.0
 0000356,0.00000355,-0.00000112,-0.00000261,-0.00000907,0.00000887,0.00
 000293,-0.00000041,-0.00001217,-0.00000579,0.00000827,-0.00000292,0.00
 000933,-0.00000682,-0.00000700,0.00001559,-0.00000110,0.00003009,-0.00
 002479,0.00000632,-0.00000866,0.00003049,0.00001897,0.00000204,-0.0000
 0278,0.00000541,-0.00001582,-0.00000958,-0.00002826,0.00000240,0.00002
 445,-0.00004214,-0.00001208,-0.00004098,-0.00012816,-0.00030658,-0.000
 00843,-0.00024856,0.00008530,0.00008185,-0.00045748,0.00101138,0.37728
 905,0.00000020,0.00000251,0.00000089,0.00000008,-0.00000279,-0.0000023
 7,-0.00000054,0.00000327,0.00000299,-0.00000074,0.00000402,-0.00000027
 ,-0.00000485,-0.00000818,-0.00000138,-0.00000551,0.00000100,0.00000024
 ,0.00000935,-0.00000600,0.00000913,-0.00002738,0.00001542,-0.00000343,
 0.00001284,-0.00006991,0.00002043,-0.00010045,0.00013018,0.00004436,-0
 .00000081,-0.00005268,-0.00000902,-0.00005554,-0.00003562,0.00001386,0
 .00010311,-0.00034829,-0.00000075,0.00000991,0.00000368,-0.00001341,-0
 .00039046,0.00123718,0.00010758,-0.00313352,-0.00106431,0.00119505,0.0
 0937722,-0.00381350,-0.01130314,0.09424012,-0.06506965,0.00586445,0.00
 000002,0.00000023,-0.00000029,-0.00000011,-0.00000115,-0.00000056,0.00
 000015,-0.00000040,0.00000052,0.00000056,-0.00000034,0.00000040,-0.000
 00071,-0.00000173,-0.00000077,0.00000014,-0.00000104,0.00000076,-0.000
 00005,-0.00000138,-0.00000097,-0.00000026,-0.00000010,-0.00000054,0.00
 000469,-0.00000176,-0.00000239,-0.00000261,0.00000021,-0.00000139,0.00
 000060,-0.00001851,-0.00000112,0.00000153,-0.00000090,-0.00000138,0.00
 003039,-0.00000325,-0.00001351,-0.00000513,0.00000528,-0.00000317,-0.0
 0000447,-0.00002321,0.00002225,0.00000898,0.00000033,-0.00002182,-0.00
 000898,0.00002269,-0.00000447,0.00001129,-0.00002163,-0.00000957,0.000
 02262,0.00000424,0.00004789,-0.00003162,0.00001183,-0.00001256,0.00004
 563,0.00002703,-0.00000523,-0.00000027,0.00001319,-0.00001783,-0.00002
 662,-0.00003734,0.00001439,0.00005675,-0.00007204,-0.00001561,-0.00022
 343,-0.00007920,-0.00030344,0.00012471,-0.00012364,0.00014899,0.000288
 22,0.00010988,0.00051702,-0.13744740,0.08522092,0.00000023,0.00000046,
 0.00000059,0.00000037,-0.00000028,-0.00000165,-0.00000056,0.00000028,0
 .00000119,-0.00000096,-0.00000017,0.00000310,0.00000238,0.00000088,-0.
 00000243,0.00000127,0.,-0.00000151,-0.00000208,0.00000359,-0.00000119,
 0.00000986,-0.00000154,0.00000915,-0.00000293,0.00003033,-0.00001878,0
 .00006867,-0.00003575,0.00001537,0.00002347,0.00001052,0.00000233,0.00
 003737,0.00000870,-0.00000687,-0.00014465,0.00018415,-0.00013549,0.000
 07437,-0.00005960,0.00004126,0.00022892,-0.00054760,0.00014457,-0.0003
 8619,-0.00652411,-0.00778093,0.04550807,-0.01214504,-0.01824753,0.0081
 1803,0.00664583,-0.04996323,0.00000016,0.00000006,-0.00000026,-0.00000
 002,-0.00000037,-0.00000010,0.00000003,0.00000010,0.00000009,-0.000000
 04,0.00000018,-0.00000003,-0.00000012,-0.00000038,-0.00000022,-0.00000
 003,0.00000050,-0.00000025,-0.00000007,-0.00000040,-0.00000043,0.00000
 030,-0.00000009,0.00000150,-0.00000062,-0.00000027,-0.00000030,-0.0000
 0075,0.00000048,-0.00000065,0.00000119,0.00000364,0.00000020,0.0000003
 1,-0.00000041,-0.00000190,-0.00001124,0.00000077,0.00000345,-0.0000014
 4,0.00000196,0.00000200,-0.00000143,0.00000583,-0.00000289,-0.00000637
 ,-0.00000151,0.00000554,-0.00000502,-0.00000873,-0.00000016,-0.0000074
 7,0.00000527,0.00000377,-0.00000268,0.00000676,-0.00000099,-0.00000986
 ,0.00000426,-0.00000236,-0.00000716,0.00000341,0.00001853,-0.00000322,
 -0.00001719,0.00002193,0.00000645,0.00006251,-0.00001368,-0.00004378,0
 .00008714,-0.00004681,0.00004150,0.00021955,0.00002196,0.00000276,0.00
 008829,-0.00020290,0.00266030,0.00086138,-0.00152976,-0.03689864,0.005
 96955,0.07321714,0.00000415,-0.00000151,0.00000272,-0.00000625,0.00000
 115,-0.00000308,0.00000458,-0.00000280,0.00000463,0.00000495,-0.000000
 68,-0.00000606,-0.00001814,-0.00000616,-0.00000054,-0.00000392,0.00000
 672,-0.00000591,0.00001726,-0.00001198,0.00001967,-0.00003159,0.000003
 95,-0.00001269,0.00002040,-0.00005713,0.00004865,-0.00012137,0.0000585
 3,-0.00002795,0.00000579,0.00000179,-0.00000954,0.00002273,-0.00000095
 ,0.00002103,0.00020749,-0.00024004,0.00014443,-0.00009389,-0.00009100,
 0.00001085,-0.00089779,-0.00028873,-0.00006855,0.00036622,-0.00130370,
 0.00129510,0.00073294,-0.00090449,-0.00153560,-0.03597554,-0.00160525,
 0.01758766,-0.00000039,-0.00000006,-0.00000018,-0.00000035,-0.00000026
 ,-0.00000021,-0.00000072,0.00000131,-0.00000077,-0.00000151,0.00000189
 ,-0.00000065,-0.00000072,-0.00000049,-0.00000019,-0.00000082,0.0000009
 4,0.00000050,0.00000037,-0.00000043,0.00000072,0.00000275,0.00000158,0
 .00000283,-0.00000187,0.00000057,0.00000199,-0.00000345,-0.00000289,-0
 .00000631,0.00000158,0.00000178,0.00000059,0.00000139,0.00000345,-0.00
 000370,-0.00000094,0.00000406,0.00000553,-0.00000387,-0.00000641,-0.00
 001316,-0.00000106,-0.00000835,0.00000621,-0.00000318,0.00000217,0.000
 00418,-0.00001273,0.00000443,-0.00001086,-0.00001420,-0.00001594,0.000
 00476,-0.00002554,0.00002493,-0.00001879,0.00001349,0.00000535,0.00000
 086,-0.00007084,-0.00003342,-0.00003288,0.00000433,0.00001088,-0.00003
 720,-0.00003535,0.00001825,0.00002973,0.00001148,0.00001135,0.00002247
 ,0.00017486,0.00038829,-0.00027496,-0.00010094,0.00032062,0.00000977,-
 0.00000683,-0.00019110,0.00041721,-0.00513748,0.03712237,-0.01924867,0
 .04097454,0.00000702,0.00000087,0.00000248,-0.00001057,-0.00000167,-0.
 00000001,0.00000644,0.00000108,0.00000117,0.00000761,0.00000266,-0.000
 00907,-0.00002034,-0.00000900,0.00000189,-0.00000073,0.00000363,-0.000
 00110,0.00001381,0.00000008,0.00001242,-0.00001186,0.00000121,-0.00000
 577,0.00000840,-0.00000554,0.00002114,0.00000986,0.00001193,-0.0000408
 2,0.00000459,0.00000429,0.00000070,0.00003262,-0.00001257,0.00001681,0
 .00010372,0.00018294,0.00008146,-0.00008170,-0.00003516,0.00001388,0.0
 0039117,-0.00034573,-0.00016780,-0.00148297,-0.00080450,0.00128874,-0.
 00414796,0.01935802,-0.01587204,0.04616207,-0.33846255,0.15841731,-0.0
 0000077,-0.00000005,0.00000063,-0.00000056,-0.00000080,-0.00000089,-0.
 00000072,0.00000059,-0.00000072,-0.00000083,0.00000067,0.00000003,-0.0
 0000109,-0.00000133,-0.00000026,-0.00000065,-0.00000036,0.00000115,0.0
 0000014,-0.00000087,0.00000036,0.00000253,0.00000156,0.00000073,-0.000
 00132,-0.00000030,0.00000018,-0.00000207,-0.00000223,-0.00000307,0.000
 00188,0.00000235,0.00000012,0.00000087,0.00000210,-0.00000210,-0.00000
 411,0.00000267,0.00000295,-0.00000162,-0.00000408,-0.00000615,-0.00000
 222,-0.00000774,0.00000186,-0.00000451,0.00000308,0.00000449,-0.000011
 93,0.00000212,-0.00001432,-0.00001929,-0.00001499,0.00000847,-0.000030
 07,0.00002625,-0.00002453,0.00001536,0.00000700,0.00000584,-0.00003462
 ,-0.00001432,-0.00001160,0.00000298,-0.00000450,-0.00001726,-0.0000250
 8,0.00002025,0.00002433,0.00001147,0.00001001,0.00000077,0.00013986,0.
 00023190,-0.00003352,-0.00002101,0.00001090,0.00002715,0.00005891,0.00
 011724,-0.00002864,-0.00784010,-0.01595455,0.00513702,-0.03322258,0.33
 567744,-0.00000394,-0.00000046,-0.00000013,0.00000751,0.00000108,-0.00
 000413,-0.00000517,-0.00000098,0.00000330,-0.00000582,-0.00000143,0.00
 001054,0.00001471,0.00000695,-0.00000551,0.00000181,-0.00000110,-0.000
 00408,-0.00000937,0.00000588,-0.00000214,0.00002482,-0.00000728,0.0000
 0670,-0.00001205,0.00005866,-0.00002062,0.00013531,-0.00006637,0.00000
 533,0.00000138,0.00001310,0.00001100,0.00001642,-0.00000069,-0.0000117
 6,-0.00002348,0.00042984,0.00003797,-0.00005332,0.00003906,0.00003117,
 0.00083952,-0.00089298,-0.00089040,-0.00014970,0.00140130,-0.00120558,
 0.00121035,0.02542213,-0.04236832,-0.00394193,0.12419234,-0.10466353,0
 .00000094,0.00000019,-0.00000094,0.00000038,0.00000003,0.00000044,0.00
 000028,-0.00000001,0.00000051,0.,0.00000042,-0.00000045,0.00000044,-0.
 00000003,-0.00000028,0.00000026,0.00000096,-0.00000148,-0.00000012,-0.
 00000040,-0.00000076,-0.00000037,-0.00000157,0.00000190,-0.00000005,-0
 .00000041,-0.00000050,-0.00000010,0.00000062,-0.00000142,-0.00000041,0
 .00000324,0.00000119,-0.00000093,0.00000076,-0.00000180,-0.00000560,-0
 .00000240,-0.00000053,-0.00000189,-0.00000106,-0.00000025,0.00000156,0
 .00000854,-0.00000873,0.00000263,-0.00000142,-0.00000002,0.00000088,-0
 .00000866,0.00000730,-0.00000288,0.00000959,0.00000405,-0.00000530,-0.
 00000376,-0.00001178,0.00000707,0.00000084,0.00000276,0.00004423,0.000
 00628,-0.00000951,-0.00000750,-0.00000632,0.00000459,0.00000886,0.0000
 0620,-0.00000226,-0.00000791,0.00001004,0.00001177,-0.00001089,0.00022
 843,0.00016522,-0.00008767,-0.00008494,0.00017996,0.00004871,0.0003005
 6,-0.00044042,0.00029196,-0.00223038,0.00444960,0.00167636,-0.14883440
 ,0.14472202\\0.00000372,-0.00000041,0.00000146,-0.00000213,0.00000099,
 -0.00000321,-0.00000186,-0.00000084,0.00000301,0.00000217,-0.00000093,
 -0.00000396,-0.00000186,0.00000127,0.00000341,0.00000010,-0.00000057,-
 0.00000154,0.00000204,-0.00000076,0.00000041,-0.00000058,-0.00000049,-
 0.00000065,0.00000210,0.00000163,0.00000052,-0.00000101,-0.00000237,-0
 .00000074,0.00000099,0.00000006,0.00000072,0.00000024,0.00000003,0.000
 00022,0.00000029,0.00000148,-0.00000070,0.00000170,-0.00000200,0.00000
 033,-0.00000039,-0.00000105,0.00000009,0.00000024,0.00000200,0.0000008
 0,-0.00000103,-0.00000020,-0.00000409,0.00000588,0.00000030,0.00000291
 ,-0.00000050,-0.00000016,-0.00000073,-0.00000031,-0.00000054,-0.000000
 72,-0.00000052,-0.00000026,-0.00000092,0.00000074,-0.00000025,-0.00000
 147,-0.00000045,-0.00000071,0.00000003,0.00000080,0.00000029,-0.000000
 23,-0.00000164,0.00000015,0.00000105,0.00000072,0.00000013,0.00000030,
 -0.00000033,-0.00000018,-0.00000049,-0.00000016,-0.00000042,0.00000005
 ,-0.00000016,-0.00000012,0.00000105,-0.00000124,0.00000082,-0.00000026
 ,-0.00000026,0.00000025,0.00000084,0.00000024,-0.00000063,0.00000029,0
 .00000076,0.00000117,-0.00000012,-0.00000081,0.00000100,0.00000026,-0.
 00000023,0.00000076,0.00000073,0.00000030,0.00000015,0.00000014,-0.000
 00047,0.00000007,0.00000093,0.00000047,-0.00000012,0.00000019,-0.00000
 052,0.00000018,0.00000010,-0.00000037,0.00000017,-0.00000038,-0.000000
 86,0.00000063,-0.00000072,-0.00000140,0.00000031,-0.00000032,-0.000000
 46,0.,0.00000014,0.00000070,0.00000023,0.00000001,-0.00000112,-0.00000
 011,0.00000006,-0.00000243,-0.00000051,-0.00000007,-0.00000108,-0.0000
 0041,0.00000127\\\@


 GARLIC THEN HAVE POWER TO SAVE FROM DEATH
 BEAR WITH IT THOUGH IT MAKETH UNSAVORY BREATH,
 AND SCORN NOT GARLIC LIKE SOME THAT THINK
 IT ONLY MAKETH MEN WINK AND DRINK AND STINK.
   --  SIR JOHN HARRINGTON,
       "THE ENGLISHMAN'S DOCTOR", 1609
 Job cpu time:       0 days 19 hours 15 minutes 23.1 seconds.
 Elapsed time:       0 days  4 hours 48 minutes 52.8 seconds.
 File lengths (MBytes):  RWF=   1420 Int=      0 D2E=      0 Chk=     35 Scr=      1
 Normal termination of Gaussian 16 at Tue May 23 12:20:09 2023.
### All Done ###
