### Starting Gaussian ###
 Entering Gaussian System, Link 0=g16
 Initial command:
 /cluster/software/gaussian/gaussian-16-A.03/avx2/g16/l1.exe "/local/scratch/cz9n3/Gau-13201.inp" -scrdir="/local/scratch/cz9n3/"
 Entering Link 1 = /cluster/software/gaussian/gaussian-16-A.03/avx2/g16/l1.exe PID=     13202.
  
 Copyright (c) 1988,1990,1992,1993,1995,1998,2003,2009,2016,
            Gaussian, Inc.  All Rights Reserved.
  
 This is part of the Gaussian(R) 16 program.  It is based on
 the Gaussian(R) 09 system (copyright 2009, Gaussian, Inc.),
 the Gaussian(R) 03 system (copyright 2003, Gaussian, Inc.),
 the Gaussian(R) 98 system (copyright 1998, Gaussian, Inc.),
 the Gaussian(R) 94 system (copyright 1995, Gaussian, Inc.),
 the Gaussian 92(TM) system (copyright 1992, Gaussian, Inc.),
 the Gaussian 90(TM) system (copyright 1990, Gaussian, Inc.),
 the Gaussian 88(TM) system (copyright 1988, Gaussian, Inc.),
 the Gaussian 86(TM) system (copyright 1986, Carnegie Mellon
 University), and the Gaussian 82(TM) system (copyright 1983,
 Carnegie Mellon University). Gaussian is a federally registered
 trademark of Gaussian, Inc.
  
 This software contains proprietary and confidential information,
 including trade secrets, belonging to Gaussian, Inc.
  
 This software is provided under written license and may be
 used, copied, transmitted, or stored only in accord with that
 written license.
  
 The following legend is applicable only to US Government
 contracts under FAR:
  
                    RESTRICTED RIGHTS LEGEND
  
 Use, reproduction and disclosure by the US Government is
 subject to restrictions as set forth in subparagraphs (a)
 and (c) of the Commercial Computer Software - Restricted
 Rights clause in FAR 52.227-19.
  
 Gaussian, Inc.
 340 Quinnipiac St., Bldg. 40, Wallingford CT 06492
  
  
 ---------------------------------------------------------------
 Warning -- This program may not be used in any manner that
 competes with the business of Gaussian, Inc. or will provide
 assistance to any competitor of Gaussian, Inc.  The licensee
 of this program is prohibited from giving any competitor of
 Gaussian, Inc. access to this program.  By using this program,
 the user acknowledges that Gaussian, Inc. is engaged in the
 business of creating and licensing software in the field of
 computational chemistry and represents and warrants to the
 licensee that it is not a competitor of Gaussian, Inc. and that
 it will not use this program in any manner prohibited above.
 ---------------------------------------------------------------
  

 Cite this work as:
 Gaussian 16, Revision A.03,
 M. J. Frisch, G. W. Trucks, H. B. Schlegel, G. E. Scuseria, 
 M. A. Robb, J. R. Cheeseman, G. Scalmani, V. Barone, 
 G. A. Petersson, H. Nakatsuji, X. Li, M. Caricato, A. V. Marenich, 
 J. Bloino, B. G. Janesko, R. Gomperts, B. Mennucci, H. P. Hratchian, 
 J. V. Ortiz, A. F. Izmaylov, J. L. Sonnenberg, D. Williams-Young, 
 F. Ding, F. Lipparini, F. Egidi, J. Goings, B. Peng, A. Petrone, 
 T. Henderson, D. Ranasinghe, V. G. Zakrzewski, J. Gao, N. Rega, 
 G. Zheng, W. Liang, M. Hada, M. Ehara, K. Toyota, R. Fukuda, 
 J. Hasegawa, M. Ishida, T. Nakajima, Y. Honda, O. Kitao, H. Nakai, 
 T. Vreven, K. Throssell, J. A. Montgomery, Jr., J. E. Peralta, 
 F. Ogliaro, M. J. Bearpark, J. J. Heyd, E. N. Brothers, K. N. Kudin, 
 V. N. Staroverov, T. A. Keith, R. Kobayashi, J. Normand, 
 K. Raghavachari, A. P. Rendell, J. C. Burant, S. S. Iyengar, 
 J. Tomasi, M. Cossi, J. M. Millam, M. Klene, C. Adamo, R. Cammi, 
 J. W. Ochterski, R. L. Martin, K. Morokuma, O. Farkas, 
 J. B. Foresman, and D. J. Fox, Gaussian, Inc., Wallingford CT, 2016.
 
 ******************************************
 Gaussian 16:  ES64L-G16RevA.03 25-Dec-2016
                22-May-2023 
 ******************************************
 %chk=COCCqdOrCOCCSCqCrCO.chk
 %NProcShared=20
 Will use up to   20 processors via shared memory.
 -----------------------------
 # opt freq b3lyp/6-31g(2df,p)
 -----------------------------
 1/18=20,19=15,26=3,38=1/1,3;
 2/9=110,12=2,17=6,18=5,40=1/2;
 3/5=1,6=6,7=104,11=2,25=1,30=1,71=1,74=-5/1,2,3;
 4//1;
 5/5=2,38=5/2;
 6/7=2,8=2,9=2,10=2,28=1/1;
 7//1,2,3,16;
 1/18=20,19=15,26=3/3(2);
 2/9=110/2;
 99//99;
 2/9=110/2;
 3/5=1,6=6,7=104,11=2,25=1,30=1,71=1,74=-5/1,2,3;
 4/5=5,16=3,69=1/1;
 5/5=2,38=5/2;
 7//1,2,3,16;
 1/18=20,19=15,26=3/3(-5);
 2/9=110/2;
 6/7=2,8=2,9=2,10=2,19=2,28=1/1;
 99/9=1/99;
 -------------------
 Title Card Required
 -------------------
 Symbolic Z-matrix:
 Charge =  0 Multiplicity = 1
 C                     1.01985   0.06605   0.06248 
 O                     2.43509   0.06456   0.06696 
 C                     2.98324  -0.29852   1.32714 
 C                     4.50992  -0.28163   1.26761 
 O                     5.12689   0.01406   0.23982 
 C                     5.22787  -0.65511   2.56173 
 O                     6.64107  -0.60531   2.37976 
 C                     7.3499   -0.94888   3.56495 
 C                     8.85926  -0.87542   3.31042 
 S                     9.6917   -1.33413   4.87155 
 C                     11.47123  -1.18218   4.44415 
 C                     11.84793   0.23109   4.01009 
 C                     12.26893  -1.57774   5.70318 
 O                     13.67625  -1.51597   5.47885 
 H                     0.68236   0.35426  -0.9369 
 H                     0.63772   0.79247   0.78494 
 H                     0.63756  -0.93344   0.28724 
 H                     2.65444  -1.30929   1.59292 
 H                     2.65448   0.4157    2.09015 
 H                     4.92842  -1.67038   2.84574 
 H                     4.93049   0.05412   3.34264 
 H                     7.06287  -1.96419   3.86238 
 H                     7.06577  -0.24589   4.3573 
 H                     9.12406   0.13978   2.99739 
 H                     9.1413   -1.55791   2.50083 
 H                     11.71208  -1.88322   3.63611 
 H                     11.61289   0.96359   4.78989 
 H                     11.34027   0.52426   3.08774 
 H                     12.9236   0.29941   3.81067 
 H                     12.02964  -2.59676   6.02785 
 H                     12.04631  -0.89868   6.53491 
 H                     13.89055  -2.14136   4.76652 
 

 GradGradGradGradGradGradGradGradGradGradGradGradGradGradGradGradGradGrad
 Berny optimization.
 Initialization pass.
                           ----------------------------
                           !    Initial Parameters    !
                           ! (Angstroms and Degrees)  !
 --------------------------                            --------------------------
 ! Name  Definition              Value          Derivative Info.                !
 --------------------------------------------------------------------------------
 ! R1    R(1,2)                  1.4152         estimate D2E/DX2                !
 ! R2    R(1,15)                 1.0935         estimate D2E/DX2                !
 ! R3    R(1,16)                 1.0935         estimate D2E/DX2                !
 ! R4    R(1,17)                 1.0935         estimate D2E/DX2                !
 ! R5    R(2,3)                  1.4214         estimate D2E/DX2                !
 ! R6    R(3,4)                  1.5279         estimate D2E/DX2                !
 ! R7    R(3,18)                 1.0956         estimate D2E/DX2                !
 ! R8    R(3,19)                 1.0956         estimate D2E/DX2                !
 ! R9    R(4,5)                  1.2347         estimate D2E/DX2                !
 ! R10   R(4,6)                  1.5263         estimate D2E/DX2                !
 ! R11   R(6,7)                  1.4257         estimate D2E/DX2                !
 ! R12   R(6,20)                 1.0959         estimate D2E/DX2                !
 ! R13   R(6,21)                 1.096          estimate D2E/DX2                !
 ! R14   R(7,8)                  1.4231         estimate D2E/DX2                !
 ! R15   R(8,9)                  1.5324         estimate D2E/DX2                !
 ! R16   R(8,22)                 1.0962         estimate D2E/DX2                !
 ! R17   R(8,23)                 1.0967         estimate D2E/DX2                !
 ! R18   R(9,10)                 1.8277         estimate D2E/DX2                !
 ! R19   R(9,24)                 1.0949         estimate D2E/DX2                !
 ! R20   R(9,25)                 1.0958         estimate D2E/DX2                !
 ! R21   R(10,11)                1.8364         estimate D2E/DX2                !
 ! R22   R(11,12)                1.5257         estimate D2E/DX2                !
 ! R23   R(11,13)                1.5421         estimate D2E/DX2                !
 ! R24   R(11,26)                1.0965         estimate D2E/DX2                !
 ! R25   R(12,27)                1.0954         estimate D2E/DX2                !
 ! R26   R(12,28)                1.0929         estimate D2E/DX2                !
 ! R27   R(12,29)                1.0961         estimate D2E/DX2                !
 ! R28   R(13,14)                1.4264         estimate D2E/DX2                !
 ! R29   R(13,30)                1.0959         estimate D2E/DX2                !
 ! R30   R(13,31)                1.0966         estimate D2E/DX2                !
 ! R31   R(14,32)                0.9718         estimate D2E/DX2                !
 ! A1    A(2,1,15)             108.168          estimate D2E/DX2                !
 ! A2    A(2,1,16)             110.3696         estimate D2E/DX2                !
 ! A3    A(2,1,17)             110.3651         estimate D2E/DX2                !
 ! A4    A(15,1,16)            108.7168         estimate D2E/DX2                !
 ! A5    A(15,1,17)            108.7158         estimate D2E/DX2                !
 ! A6    A(16,1,17)            110.4417         estimate D2E/DX2                !
 ! A7    A(1,2,3)              112.8747         estimate D2E/DX2                !
 ! A8    A(2,3,4)              110.3627         estimate D2E/DX2                !
 ! A9    A(2,3,18)             109.5721         estimate D2E/DX2                !
 ! A10   A(2,3,19)             109.5845         estimate D2E/DX2                !
 ! A11   A(4,3,18)             108.633          estimate D2E/DX2                !
 ! A12   A(4,3,19)             108.6478         estimate D2E/DX2                !
 ! A13   A(18,3,19)            110.0236         estimate D2E/DX2                !
 ! A14   A(3,4,5)              122.3012         estimate D2E/DX2                !
 ! A15   A(3,4,6)              115.7377         estimate D2E/DX2                !
 ! A16   A(5,4,6)              121.9611         estimate D2E/DX2                !
 ! A17   A(4,6,7)              110.4554         estimate D2E/DX2                !
 ! A18   A(4,6,20)             108.5345         estimate D2E/DX2                !
 ! A19   A(4,6,21)             108.5501         estimate D2E/DX2                !
 ! A20   A(7,6,20)             109.6494         estimate D2E/DX2                !
 ! A21   A(7,6,21)             109.711          estimate D2E/DX2                !
 ! A22   A(20,6,21)            109.9185         estimate D2E/DX2                !
 ! A23   A(6,7,8)              112.2709         estimate D2E/DX2                !
 ! A24   A(7,8,9)              109.9191         estimate D2E/DX2                !
 ! A25   A(7,8,22)             108.6118         estimate D2E/DX2                !
 ! A26   A(7,8,23)             108.5366         estimate D2E/DX2                !
 ! A27   A(9,8,22)             110.3258         estimate D2E/DX2                !
 ! A28   A(9,8,23)             110.1483         estimate D2E/DX2                !
 ! A29   A(22,8,23)            109.2585         estimate D2E/DX2                !
 ! A30   A(8,9,10)             107.1394         estimate D2E/DX2                !
 ! A31   A(8,9,24)             109.2779         estimate D2E/DX2                !
 ! A32   A(8,9,25)             110.2651         estimate D2E/DX2                !
 ! A33   A(10,9,24)            111.5163         estimate D2E/DX2                !
 ! A34   A(10,9,25)            110.9477         estimate D2E/DX2                !
 ! A35   A(24,9,25)            107.6994         estimate D2E/DX2                !
 ! A36   A(9,10,11)            102.8141         estimate D2E/DX2                !
 ! A37   A(10,11,12)           112.465          estimate D2E/DX2                !
 ! A38   A(10,11,13)           106.8594         estimate D2E/DX2                !
 ! A39   A(10,11,26)           109.3564         estimate D2E/DX2                !
 ! A40   A(12,11,13)           110.0098         estimate D2E/DX2                !
 ! A41   A(12,11,26)           109.168          estimate D2E/DX2                !
 ! A42   A(13,11,26)           108.907          estimate D2E/DX2                !
 ! A43   A(11,12,27)           111.3418         estimate D2E/DX2                !
 ! A44   A(11,12,28)           111.957          estimate D2E/DX2                !
 ! A45   A(11,12,29)           110.5973         estimate D2E/DX2                !
 ! A46   A(27,12,28)           108.7689         estimate D2E/DX2                !
 ! A47   A(27,12,29)           107.3616         estimate D2E/DX2                !
 ! A48   A(28,12,29)           106.5936         estimate D2E/DX2                !
 ! A49   A(11,13,14)           111.7684         estimate D2E/DX2                !
 ! A50   A(11,13,30)           111.5578         estimate D2E/DX2                !
 ! A51   A(11,13,31)           110.8183         estimate D2E/DX2                !
 ! A52   A(14,13,30)           107.5942         estimate D2E/DX2                !
 ! A53   A(14,13,31)           107.0236         estimate D2E/DX2                !
 ! A54   A(30,13,31)           107.8648         estimate D2E/DX2                !
 ! A55   A(13,14,32)           107.7561         estimate D2E/DX2                !
 ! D1    D(15,1,2,3)           179.9849         estimate D2E/DX2                !
 ! D2    D(16,1,2,3)            61.1623         estimate D2E/DX2                !
 ! D3    D(17,1,2,3)           -61.1962         estimate D2E/DX2                !
 ! D4    D(1,2,3,4)            179.9984         estimate D2E/DX2                !
 ! D5    D(1,2,3,18)            60.417          estimate D2E/DX2                !
 ! D6    D(1,2,3,19)           -60.3942         estimate D2E/DX2                !
 ! D7    D(2,3,4,5)             -0.0135         estimate D2E/DX2                !
 ! D8    D(2,3,4,6)           -179.9762         estimate D2E/DX2                !
 ! D9    D(18,3,4,5)           120.1343         estimate D2E/DX2                !
 ! D10   D(18,3,4,6)           -59.8284         estimate D2E/DX2                !
 ! D11   D(19,3,4,5)          -120.1857         estimate D2E/DX2                !
 ! D12   D(19,3,4,6)            59.8516         estimate D2E/DX2                !
 ! D13   D(3,4,6,7)            179.8997         estimate D2E/DX2                !
 ! D14   D(3,4,6,20)            59.6625         estimate D2E/DX2                !
 ! D15   D(3,4,6,21)           -59.7778         estimate D2E/DX2                !
 ! D16   D(5,4,6,7)             -0.0632         estimate D2E/DX2                !
 ! D17   D(5,4,6,20)          -120.3003         estimate D2E/DX2                !
 ! D18   D(5,4,6,21)           120.2594         estimate D2E/DX2                !
 ! D19   D(4,6,7,8)           -179.94           estimate D2E/DX2                !
 ! D20   D(20,6,7,8)           -60.3739         estimate D2E/DX2                !
 ! D21   D(21,6,7,8)            60.4356         estimate D2E/DX2                !
 ! D22   D(6,7,8,9)           -179.8893         estimate D2E/DX2                !
 ! D23   D(6,7,8,22)            59.3213         estimate D2E/DX2                !
 ! D24   D(6,7,8,23)           -59.3638         estimate D2E/DX2                !
 ! D25   D(7,8,9,10)          -179.8053         estimate D2E/DX2                !
 ! D26   D(7,8,9,24)            59.2324         estimate D2E/DX2                !
 ! D27   D(7,8,9,25)           -58.9626         estimate D2E/DX2                !
 ! D28   D(22,8,9,10)          -60.054          estimate D2E/DX2                !
 ! D29   D(22,8,9,24)          178.9836         estimate D2E/DX2                !
 ! D30   D(22,8,9,25)           60.7886         estimate D2E/DX2                !
 ! D31   D(23,8,9,10)           60.6477         estimate D2E/DX2                !
 ! D32   D(23,8,9,24)          -60.3146         estimate D2E/DX2                !
 ! D33   D(23,8,9,25)         -178.5097         estimate D2E/DX2                !
 ! D34   D(8,9,10,11)         -179.1407         estimate D2E/DX2                !
 ! D35   D(24,9,10,11)         -59.6057         estimate D2E/DX2                !
 ! D36   D(25,9,10,11)          60.4502         estimate D2E/DX2                !
 ! D37   D(9,10,11,12)          60.2023         estimate D2E/DX2                !
 ! D38   D(9,10,11,13)        -178.986          estimate D2E/DX2                !
 ! D39   D(9,10,11,26)         -61.2542         estimate D2E/DX2                !
 ! D40   D(10,11,12,27)         57.9047         estimate D2E/DX2                !
 ! D41   D(10,11,12,28)        -64.0992         estimate D2E/DX2                !
 ! D42   D(10,11,12,29)        177.1855         estimate D2E/DX2                !
 ! D43   D(13,11,12,27)        -61.0805         estimate D2E/DX2                !
 ! D44   D(13,11,12,28)        176.9156         estimate D2E/DX2                !
 ! D45   D(13,11,12,29)         58.2003         estimate D2E/DX2                !
 ! D46   D(26,11,12,27)        179.4685         estimate D2E/DX2                !
 ! D47   D(26,11,12,28)         57.4646         estimate D2E/DX2                !
 ! D48   D(26,11,12,29)        -61.2506         estimate D2E/DX2                !
 ! D49   D(10,11,13,14)        179.091          estimate D2E/DX2                !
 ! D50   D(10,11,13,30)         58.5782         estimate D2E/DX2                !
 ! D51   D(10,11,13,31)        -61.6274         estimate D2E/DX2                !
 ! D52   D(12,11,13,14)        -58.5453         estimate D2E/DX2                !
 ! D53   D(12,11,13,30)       -179.0582         estimate D2E/DX2                !
 ! D54   D(12,11,13,31)         60.7363         estimate D2E/DX2                !
 ! D55   D(26,11,13,14)         61.0646         estimate D2E/DX2                !
 ! D56   D(26,11,13,30)        -59.4483         estimate D2E/DX2                !
 ! D57   D(26,11,13,31)       -179.6538         estimate D2E/DX2                !
 ! D58   D(11,13,14,32)        -60.7319         estimate D2E/DX2                !
 ! D59   D(30,13,14,32)         62.0676         estimate D2E/DX2                !
 ! D60   D(31,13,14,32)        177.768          estimate D2E/DX2                !
 --------------------------------------------------------------------------------
 Trust Radius=3.00D-01 FncErr=1.00D-07 GrdErr=1.00D-06 EigMax=2.50D+02 EigMin=1.00D-04
 Number of steps in this run=    156 maximum allowed number of steps=    192.
 GradGradGradGradGradGradGradGradGradGradGradGradGradGradGradGradGradGrad

                          Input orientation:                          
 ---------------------------------------------------------------------
 Center     Atomic      Atomic             Coordinates (Angstroms)
 Number     Number       Type             X           Y           Z
 ---------------------------------------------------------------------
      1          6           0        1.019850    0.066050    0.062480
      2          8           0        2.435090    0.064560    0.066960
      3          6           0        2.983240   -0.298520    1.327140
      4          6           0        4.509920   -0.281630    1.267610
      5          8           0        5.126890    0.014060    0.239820
      6          6           0        5.227870   -0.655110    2.561730
      7          8           0        6.641070   -0.605310    2.379760
      8          6           0        7.349900   -0.948880    3.564950
      9          6           0        8.859260   -0.875420    3.310420
     10         16           0        9.691700   -1.334130    4.871550
     11          6           0       11.471230   -1.182180    4.444150
     12          6           0       11.847930    0.231090    4.010090
     13          6           0       12.268930   -1.577740    5.703180
     14          8           0       13.676250   -1.515970    5.478850
     15          1           0        0.682360    0.354260   -0.936900
     16          1           0        0.637720    0.792470    0.784940
     17          1           0        0.637560   -0.933440    0.287240
     18          1           0        2.654440   -1.309290    1.592920
     19          1           0        2.654480    0.415700    2.090150
     20          1           0        4.928420   -1.670380    2.845740
     21          1           0        4.930490    0.054120    3.342640
     22          1           0        7.062870   -1.964190    3.862380
     23          1           0        7.065770   -0.245890    4.357300
     24          1           0        9.124060    0.139780    2.997390
     25          1           0        9.141300   -1.557910    2.500830
     26          1           0       11.712080   -1.883220    3.636110
     27          1           0       11.612890    0.963590    4.789890
     28          1           0       11.340270    0.524260    3.087740
     29          1           0       12.923600    0.299410    3.810670
     30          1           0       12.029640   -2.596760    6.027850
     31          1           0       12.046310   -0.898680    6.534910
     32          1           0       13.890550   -2.141360    4.766520
 ---------------------------------------------------------------------
                    Distance matrix (angstroms):
                    1          2          3          4          5
     1  C    0.000000
     2  O    1.415248   0.000000
     3  C    2.363721   1.421390   0.000000
     4  C    3.708613   2.422050   1.527934   0.000000
     5  O    4.111196   2.697817   2.423882   1.234681   0.000000
     6  C    4.947096   3.813322   2.586452   1.526331   2.418523
     7  O    6.117077   4.846446   3.818619   2.425582   2.693641
     8  C    7.305266   6.117054   4.949594   3.713284   4.114063
     9  C    8.537671   7.257655   6.228469   4.841737   4.914300
    10  S   10.014422   8.814693   7.657595   6.398983   6.641388
    11  C   11.401248  10.117607   9.085295   7.704624   7.704416
    12  C   11.526412  10.206741   9.276930   7.850508   7.709372
    13  C   12.690995  11.452883  10.344572   9.030859   9.131860
    14  O   13.857284  12.575783  11.535135  10.162664  10.142977
    15  H    1.093492   2.040520   3.293334   4.462559   4.610233
    16  H    1.093461   2.067822   2.643048   4.047295   4.588652
    17  H    1.093455   2.067762   2.643242   4.047364   4.588473
    18  H    2.627868   2.064978   1.095630   2.145861   3.113703
    19  H    2.627873   2.065122   1.095617   2.146043   3.114137
    20  H    5.102808   4.116835   2.823450   2.143423   3.109268
    21  H    5.104184   4.117913   2.824602   2.143678   3.109288
    22  H    7.421537   6.319603   5.083825   4.010161   4.558995
    23  H    7.422664   6.320332   5.084456   4.009966   4.558560
    24  H    8.619591   7.303109   6.378990   4.945707   4.857712
    25  H    8.633698   7.316378   6.394163   4.959779   4.868136
    26  H   11.440903  10.128930   9.167075   7.748935   7.648476
    27  H   11.634710  10.360808   9.383732   8.025535   7.979533
    28  H   10.764443   9.414811   8.580013   7.114493   6.853980
    29  H   12.482093  11.139092  10.263342   8.808790   8.580273
    30  H   12.802018  11.604750  10.450643   9.195972   9.378999
    31  H   12.822085  11.624877  10.469971   9.215334   9.398916
    32  H   13.880042  12.576944  11.584248  10.183182  10.096464
                    6          7          8          9         10
     6  C    0.000000
     7  O    1.425737   0.000000
     8  C    2.365536   1.423080   0.000000
     9  C    3.714306   2.420631   1.532433   0.000000
    10  S    5.071697   4.005813   2.709179   1.827703   0.000000
    11  C    6.542236   5.284404   4.220519   2.863884   1.836433
    12  C    6.834346   5.519867   4.671483   3.262829   2.800242
    13  C    7.765081   6.607840   5.400403   4.224264   2.719020
    14  O    8.979187   7.741280   6.633800   5.321258   4.034665
    15  H    5.824165   6.886743   8.149903   9.295888  10.851588
    16  H    5.130492   6.366903   7.470885   8.760915  10.158610
    17  H    5.130470   6.366195   7.469881   8.760099  10.156471
    18  H    2.826497   4.124066   5.105501   6.452739   7.763573
    19  H    2.826899   4.125438   5.107258   6.454095   7.766631
    20  H    1.095949   2.069947   2.627050   4.037251   5.187081
    21  H    1.096021   2.070765   2.628493   4.037365   5.189790
    22  H    2.602423   2.054904   1.096223   2.171888   2.885506
    23  H    2.601809   2.054317   1.096697   2.169994   2.888638
    24  H    4.000243   2.664933   2.157533   1.094869   2.450939
    25  H    4.016677   2.678293   2.170802   1.095799   2.444040
    26  H    6.686369   5.378347   4.461689   3.043077   2.430997
    27  H    6.953659   5.743620   4.830228   3.626743   2.996190
    28  H    6.247322   4.884634   4.280295   2.857289   3.058329
    29  H    7.854630   6.506628   5.717057   4.260204   3.773473
    30  H    7.877060   6.805227   5.539075   4.516497   2.897797
    31  H    7.895354   6.824072   5.556928   4.533780   2.915574
    32  H    9.061571   7.785309   6.756174   5.388572   4.277031
                   11         12         13         14         15
    11  C    0.000000
    12  C    1.525662   0.000000
    13  C    1.542060   2.513098   0.000000
    14  O    2.458482   2.924419   1.426425   0.000000
    15  H   12.153850  12.213019  13.493402  14.611666   0.000000
    16  H   11.604051  11.678422  12.848814  14.048664   1.777288
    17  H   11.606471  11.869631  12.846645  14.046337   1.777272
    18  H    9.267225   9.629940  10.459671  11.688604   3.613376
    19  H    9.264428   9.393603  10.462573  11.691623   3.613318
    20  H    6.752897   7.269864   7.877603   9.136829   6.036270
    21  H    6.747077   6.951819   7.879582   9.138758   6.037479
    22  H    4.514824   5.266676   5.535427   6.822805   8.313796
    23  H    4.504693   4.818415   5.536975   6.824179   8.314846
    24  H    3.057761   2.907467   4.490143   5.442572   9.315951
    25  H    3.057162   3.578300   4.476328   5.425508   9.328882
    26  H    1.096537   2.151423   2.162447   2.718185  12.147982
    27  H    2.178057   1.095394   2.779001   3.298536  12.354914
    28  H    2.183789   1.092885   3.481571   3.916216  11.393756
    29  H    2.169282   1.096130   2.744791   2.577773  13.129752
    30  H    2.195669   3.478665   1.095934   2.044708  13.637339
    31  H    2.186862   2.773166   1.096566   2.037895  13.657861
    32  H    2.622415   3.220714   1.955671   0.971829  14.601829
                   16         17         18         19         20
    16  H    0.000000
    17  H    1.796238   0.000000
    18  H    3.022811   2.431845   0.000000
    19  H    2.431635   3.023017   1.795224   0.000000
    20  H    5.359350   5.049800   2.621246   3.177019   0.000000
    21  H    5.051224   5.360969   3.178177   2.622917   1.794663
    22  H    7.638872   7.424869   5.001360   5.313998   2.382385
    23  H    7.426963   7.639372   5.313422   5.003714   2.980310
    24  H    8.794254   8.973149   6.777044   6.538706   4.571988
    25  H    8.987738   8.809287   6.554805   6.792837   4.228471
    26  H   11.744358  11.608704   9.302949   9.471808   6.832864
    27  H   11.684317  12.013761   9.779592   9.372400   7.443095
    28  H   10.950772  11.158660   9.002224   8.743564   6.781359
    29  H   12.662583  12.840610  10.628357  10.412902   8.290601
    30  H   12.990413  12.864708  10.450864  10.605377   7.836538
    31  H   12.887128  13.007466  10.620691  10.473297   8.054182
    32  H   14.145594  14.041537  11.705308  11.830080   9.177744
                   21         22         23         24         25
    21  H    0.000000
    22  H    2.981736   0.000000
    23  H    2.383057   1.788158   0.000000
    24  H    4.208630   3.069756   2.496929   0.000000
    25  H    4.586742   2.517688   3.078263   1.768904   0.000000
    26  H    7.058992   4.655417   4.978871   3.346392   2.829063
    27  H    6.897546   5.489522   4.725069   3.175845   4.207911
    28  H    6.432051   5.008852   4.525071   2.251127   3.084698
    29  H    8.010557   6.282891   5.908496   3.888883   4.412608
    30  H    8.039617   5.455109   5.740848   5.011460   4.675638
    31  H    7.857055   5.754338   5.474842   4.704465   5.014725
    32  H    9.334358   6.889563   7.094920   5.572508   5.294255
                   26         27         28         29         30
    26  H    0.000000
    27  H    3.073333   0.000000
    28  H    2.496981   1.778946   0.000000
    29  H    2.502424   1.765777   1.755027   0.000000
    30  H    2.516029   3.792403   4.342838   3.755376   0.000000
    31  H    3.079622   2.588628   3.795554   3.102667   1.772248
    32  H    2.467832   3.850844   4.053117   2.793922   2.293759
                   31         32
    31  H    0.000000
    32  H    2.841246   0.000000
 Stoichiometry    C9H18O4S
 Framework group  C1[X(C9H18O4S)]
 Deg. of freedom    90
 Full point group                 C1      NOp   1
 Largest Abelian subgroup         C1      NOp   1
 Largest concise Abelian subgroup C1      NOp   1
                         Standard orientation:                         
 ---------------------------------------------------------------------
 Center     Atomic      Atomic             Coordinates (Angstroms)
 Number     Number       Type             X           Y           Z
 ---------------------------------------------------------------------
      1          6           0       -7.191753   -0.128637    0.084075
      2          8           0       -5.916697    0.457609   -0.098881
      3          6           0       -4.851120   -0.455207    0.128409
      4          6           0       -3.504898    0.235480   -0.084239
      5          8           0       -3.416833    1.423639   -0.408213
      6          6           0       -2.271104   -0.637550    0.128496
      7          8           0       -1.082338    0.115540   -0.100459
      8          6           0        0.093917   -0.663350    0.086384
      9          6           0        1.335928    0.196937   -0.169869
     10         16           0        2.794871   -0.874278    0.084066
     11          6           0        4.198394    0.269423   -0.223440
     12          6           0        4.206761    1.453811    0.738224
     13          6           0        5.491311   -0.554395   -0.057198
     14          8           0        6.655567    0.234496   -0.295626
     15          1           0       -7.949385    0.635958   -0.108572
     16          1           0       -7.303938   -0.482469    1.112606
     17          1           0       -7.336806   -0.951788   -0.620926
     18          1           0       -4.929479   -1.292935   -0.573358
     19          1           0       -4.896823   -0.823760    1.159165
     20          1           0       -2.314858   -1.479176   -0.572115
     21          1           0       -2.280466   -1.009143    1.159560
     22          1           0        0.067036   -1.510067   -0.609354
     23          1           0        0.101975   -1.041227    1.115893
     24          1           0        1.336203    1.046245    0.521082
     25          1           0        1.316551    0.597203   -1.189764
     26          1           0        4.144543    0.642192   -1.253264
     27          1           0        4.250595    1.120527    1.780764
     28          1           0        3.328249    2.091006    0.609399
     29          1           0        5.082597    2.088539    0.560644
     30          1           0        5.519319   -1.403834   -0.749109
     31          1           0        5.573890   -0.948477    0.962771
     32          1           0        6.610639    0.560301   -1.210112
 ---------------------------------------------------------------------
 Rotational constants (GHZ):           3.1578387           0.1236693           0.1206858
 Standard basis: 6-31G(2df,p) (6D, 7F)
 There are   528 symmetry adapted cartesian basis functions of A   symmetry.
 There are   486 symmetry adapted basis functions of A   symmetry.
   486 basis functions,   766 primitive gaussians,   528 cartesian basis functions
    60 alpha electrons       60 beta electrons
       nuclear repulsion energy       971.3697889623 Hartrees.
 NAtoms=   32 NActive=   32 NUniq=   32 SFac= 1.00D+00 NAtFMM=   60 NAOKFM=F Big=F
 Integral buffers will be    131072 words long.
 Raffenetti 2 integral format.
 Two-electron integral symmetry is turned on.
 One-electron integrals computed using PRISM.
 PrsmSu:  requested number of processors reduced to:  12 ShMem   1 Linda.
 NBasis=   486 RedAO= T EigKep=  9.58D-04  NBF=   486
 NBsUse=   486 1.00D-06 EigRej= -1.00D+00 NBFU=   486
 ExpMin= 1.17D-01 ExpMax= 2.19D+04 ExpMxC= 3.30D+03 IAcc=3 IRadAn=         5 AccDes= 0.00D+00
 Harris functional with IExCor=  402 and IRadAn=       5 diagonalized for initial guess.
 HarFok:  IExCor=  402 AccDes= 0.00D+00 IRadAn=         5 IDoV= 1 UseB2=F ITyADJ=14
 ICtDFT=  3500011 ScaDFX=  1.000000  1.000000  1.000000  1.000000
 FoFCou: FMM=F IPFlag=           0 FMFlag=      100000 FMFlg1=           0
         NFxFlg=           0 DoJE=T BraDBF=F KetDBF=T FulRan=T
         wScrn=  0.000000 ICntrl=       500 IOpCl=  0 I1Cent=   200000004 NGrid=           0
         NMat0=    1 NMatS0=      1 NMatT0=    0 NMatD0=    1 NMtDS0=    0 NMtDT0=    0
 Petite list used in FoFCou.
 Requested convergence on RMS density matrix=1.00D-08 within 128 cycles.
 Requested convergence on MAX density matrix=1.00D-06.
 Requested convergence on             energy=1.00D-06.
 No special actions if energy rises.
 Integral accuracy reduced to 1.0D-05 until final iterations.
 Initial convergence to 1.0D-05 achieved.  Increase integral accuracy.
 SCF Done:  E(RB3LYP) =  -1052.87221840     A.U. after   13 cycles
            NFock= 13  Conv=0.93D-08     -V/T= 2.0058

 **********************************************************************

            Population analysis using the SCF density.

 **********************************************************************

 Orbital symmetries:
       Occupied  (A) (A) (A) (A) (A) (A) (A) (A) (A) (A) (A) (A)
                 (A) (A) (A) (A) (A) (A) (A) (A) (A) (A) (A) (A)
                 (A) (A) (A) (A) (A) (A) (A) (A) (A) (A) (A) (A)
                 (A) (A) (A) (A) (A) (A) (A) (A) (A) (A) (A) (A)
                 (A) (A) (A) (A) (A) (A) (A) (A) (A) (A) (A) (A)
       Virtual   (A) (A) (A) (A) (A) (A) (A) (A) (A) (A) (A) (A)
                 (A) (A) (A) (A) (A) (A) (A) (A) (A) (A) (A) (A)
                 (A) (A) (A) (A) (A) (A) (A) (A) (A) (A) (A) (A)
                 (A) (A) (A) (A) (A) (A) (A) (A) (A) (A) (A) (A)
                 (A) (A) (A) (A) (A) (A) (A) (A) (A) (A) (A) (A)
                 (A) (A) (A) (A) (A) (A) (A) (A) (A) (A) (A) (A)
                 (A) (A) (A) (A) (A) (A) (A) (A) (A) (A) (A) (A)
                 (A) (A) (A) (A) (A) (A) (A) (A) (A) (A) (A) (A)
                 (A) (A) (A) (A) (A) (A) (A) (A) (A) (A) (A) (A)
                 (A) (A) (A) (A) (A) (A) (A) (A) (A) (A) (A) (A)
                 (A) (A) (A) (A) (A) (A) (A) (A) (A) (A) (A) (A)
                 (A) (A) (A) (A) (A) (A) (A) (A) (A) (A) (A) (A)
                 (A) (A) (A) (A) (A) (A) (A) (A) (A) (A) (A) (A)
                 (A) (A) (A) (A) (A) (A) (A) (A) (A) (A) (A) (A)
                 (A) (A) (A) (A) (A) (A) (A) (A) (A) (A) (A) (A)
                 (A) (A) (A) (A) (A) (A) (A) (A) (A) (A) (A) (A)
                 (A) (A) (A) (A) (A) (A) (A) (A) (A) (A) (A) (A)
                 (A) (A) (A) (A) (A) (A) (A) (A) (A) (A) (A) (A)
                 (A) (A) (A) (A) (A) (A) (A) (A) (A) (A) (A) (A)
                 (A) (A) (A) (A) (A) (A) (A) (A) (A) (A) (A) (A)
                 (A) (A) (A) (A) (A) (A) (A) (A) (A) (A) (A) (A)
                 (A) (A) (A) (A) (A) (A) (A) (A) (A) (A) (A) (A)
                 (A) (A) (A) (A) (A) (A) (A) (A) (A) (A) (A) (A)
                 (A) (A) (A) (A) (A) (A) (A) (A) (A) (A) (A) (A)
                 (A) (A) (A) (A) (A) (A) (A) (A) (A) (A) (A) (A)
                 (A) (A) (A) (A) (A) (A) (A) (A) (A) (A) (A) (A)
                 (A) (A) (A) (A) (A) (A) (A) (A) (A) (A) (A) (A)
                 (A) (A) (A) (A) (A) (A) (A) (A) (A) (A) (A) (A)
                 (A) (A) (A) (A) (A) (A) (A) (A) (A) (A) (A) (A)
                 (A) (A) (A) (A) (A) (A) (A) (A) (A) (A) (A) (A)
                 (A) (A) (A) (A) (A) (A) (A) (A) (A) (A) (A) (A)
                 (A) (A) (A) (A) (A) (A) (A) (A) (A) (A) (A) (A)
                 (A) (A) (A) (A) (A) (A) (A) (A) (A) (A) (A) (A)
                 (A) (A) (A) (A) (A) (A) (A) (A) (A) (A) (A) (A)
                 (A) (A) (A) (A) (A) (A) (A) (A) (A) (A) (A) (A)
                 (A) (A) (A) (A) (A) (A)
 The electronic state is 1-A.
 Alpha  occ. eigenvalues --  -88.86787 -19.15003 -19.14704 -19.14178 -19.13365
 Alpha  occ. eigenvalues --  -10.27844 -10.25033 -10.24883 -10.24154 -10.23497
 Alpha  occ. eigenvalues --  -10.23047 -10.22242 -10.21652 -10.17812  -7.93145
 Alpha  occ. eigenvalues --   -5.89630  -5.89285  -5.88659  -1.04832  -1.03731
 Alpha  occ. eigenvalues --   -1.01899  -1.01543  -0.82229  -0.78579  -0.76398
 Alpha  occ. eigenvalues --   -0.71967  -0.68619  -0.67299  -0.64813  -0.61043
 Alpha  occ. eigenvalues --   -0.57616  -0.54546  -0.51026  -0.50246  -0.49751
 Alpha  occ. eigenvalues --   -0.49494  -0.49120  -0.47530  -0.46489  -0.45734
 Alpha  occ. eigenvalues --   -0.44684  -0.43049  -0.42068  -0.41018  -0.40160
 Alpha  occ. eigenvalues --   -0.39676  -0.38585  -0.38081  -0.36796  -0.35724
 Alpha  occ. eigenvalues --   -0.34903  -0.32935  -0.32433  -0.32384  -0.30641
 Alpha  occ. eigenvalues --   -0.27320  -0.27018  -0.26344  -0.24939  -0.22487
 Alpha virt. eigenvalues --   -0.02261   0.03472   0.04477   0.06228   0.07705
 Alpha virt. eigenvalues --    0.08796   0.09780   0.10381   0.11859   0.12654
 Alpha virt. eigenvalues --    0.13594   0.14471   0.15062   0.15155   0.15650
 Alpha virt. eigenvalues --    0.15806   0.16271   0.17046   0.17303   0.17864
 Alpha virt. eigenvalues --    0.18360   0.18835   0.19153   0.20345   0.21212
 Alpha virt. eigenvalues --    0.22253   0.22726   0.24185   0.24767   0.27517
 Alpha virt. eigenvalues --    0.29209   0.31687   0.34162   0.35489   0.35959
 Alpha virt. eigenvalues --    0.36548   0.40947   0.41497   0.42066   0.43948
 Alpha virt. eigenvalues --    0.44464   0.45546   0.46384   0.49005   0.49351
 Alpha virt. eigenvalues --    0.50263   0.51456   0.51954   0.52108   0.53337
 Alpha virt. eigenvalues --    0.54273   0.54998   0.55183   0.56164   0.56470
 Alpha virt. eigenvalues --    0.57044   0.57966   0.61641   0.62410   0.63438
 Alpha virt. eigenvalues --    0.64641   0.66841   0.67680   0.68019   0.68237
 Alpha virt. eigenvalues --    0.68907   0.69132   0.70875   0.71382   0.71932
 Alpha virt. eigenvalues --    0.72422   0.72841   0.73304   0.74215   0.75304
 Alpha virt. eigenvalues --    0.75925   0.76388   0.77069   0.78164   0.78338
 Alpha virt. eigenvalues --    0.78490   0.79437   0.79752   0.80891   0.81688
 Alpha virt. eigenvalues --    0.82506   0.84659   0.85113   0.85312   0.86741
 Alpha virt. eigenvalues --    0.87798   0.88066   0.89026   0.89719   0.90097
 Alpha virt. eigenvalues --    0.90853   0.91737   0.92535   0.94302   0.95585
 Alpha virt. eigenvalues --    0.96519   0.97056   0.98216   0.99124   0.99425
 Alpha virt. eigenvalues --    1.01957   1.02981   1.03359   1.03956   1.04493
 Alpha virt. eigenvalues --    1.07216   1.08778   1.10116   1.14499   1.15239
 Alpha virt. eigenvalues --    1.18458   1.21181   1.22645   1.23730   1.25921
 Alpha virt. eigenvalues --    1.26561   1.28213   1.30628   1.31929   1.32634
 Alpha virt. eigenvalues --    1.34605   1.35107   1.35343   1.36388   1.36577
 Alpha virt. eigenvalues --    1.36783   1.38211   1.38601   1.39997   1.41773
 Alpha virt. eigenvalues --    1.42424   1.43162   1.43761   1.44264   1.45253
 Alpha virt. eigenvalues --    1.46580   1.48734   1.48778   1.52479   1.54571
 Alpha virt. eigenvalues --    1.55371   1.57050   1.58408   1.59736   1.60765
 Alpha virt. eigenvalues --    1.61443   1.63231   1.63878   1.66412   1.67098
 Alpha virt. eigenvalues --    1.68862   1.70692   1.71743   1.72737   1.73479
 Alpha virt. eigenvalues --    1.74068   1.74519   1.76256   1.78679   1.80464
 Alpha virt. eigenvalues --    1.81193   1.82619   1.85110   1.86085   1.86703
 Alpha virt. eigenvalues --    1.88483   1.89756   1.90693   1.93109   1.93397
 Alpha virt. eigenvalues --    1.93833   1.96034   1.97001   2.00230   2.01634
 Alpha virt. eigenvalues --    2.04224   2.07983   2.11225   2.13180   2.14898
 Alpha virt. eigenvalues --    2.15369   2.18215   2.19053   2.20839   2.22810
 Alpha virt. eigenvalues --    2.24610   2.25651   2.29667   2.30600   2.33141
 Alpha virt. eigenvalues --    2.34540   2.35718   2.36295   2.38493   2.39440
 Alpha virt. eigenvalues --    2.41790   2.42695   2.43558   2.46392   2.46554
 Alpha virt. eigenvalues --    2.49734   2.51118   2.54346   2.55668   2.57012
 Alpha virt. eigenvalues --    2.57516   2.59161   2.61728   2.65844   2.67204
 Alpha virt. eigenvalues --    2.70587   2.73825   2.74387   2.74695   2.75290
 Alpha virt. eigenvalues --    2.76082   2.76802   2.77383   2.78503   2.79873
 Alpha virt. eigenvalues --    2.81139   2.82311   2.83960   2.84043   2.86359
 Alpha virt. eigenvalues --    2.86991   2.87477   2.89252   2.90006   2.90417
 Alpha virt. eigenvalues --    2.91276   2.92198   2.92658   2.93485   2.94141
 Alpha virt. eigenvalues --    2.95814   2.96236   2.98755   3.02945   3.04385
 Alpha virt. eigenvalues --    3.07845   3.09365   3.11299   3.12652   3.14851
 Alpha virt. eigenvalues --    3.15686   3.15944   3.19410   3.21248   3.23328
 Alpha virt. eigenvalues --    3.25472   3.25568   3.26796   3.31211   3.33124
 Alpha virt. eigenvalues --    3.34856   3.36634   3.37259   3.39555   3.41994
 Alpha virt. eigenvalues --    3.42892   3.43369   3.44705   3.45590   3.47029
 Alpha virt. eigenvalues --    3.47530   3.50574   3.52245   3.53004   3.53663
 Alpha virt. eigenvalues --    3.54013   3.57805   3.59248   3.59653   3.60408
 Alpha virt. eigenvalues --    3.61948   3.63647   3.65462   3.66991   3.67823
 Alpha virt. eigenvalues --    3.69081   3.70042   3.70463   3.74150   3.75057
 Alpha virt. eigenvalues --    3.81613   3.84937   3.85517   3.87207   3.90806
 Alpha virt. eigenvalues --    3.92774   3.96429   3.97909   3.98415   4.00724
 Alpha virt. eigenvalues --    4.03307   4.04371   4.07515   4.12027   4.14561
 Alpha virt. eigenvalues --    4.21039   4.22482   4.23813   4.25220   4.27050
 Alpha virt. eigenvalues --    4.28338   4.31881   4.34296   4.34869   4.36945
 Alpha virt. eigenvalues --    4.36996   4.40437   4.41119   4.41735   4.43120
 Alpha virt. eigenvalues --    4.43709   4.44623   4.45084   4.45965   4.47079
 Alpha virt. eigenvalues --    4.47926   4.49677   4.49795   4.50302   4.52525
 Alpha virt. eigenvalues --    4.53807   4.54579   4.54749   4.56694   4.58685
 Alpha virt. eigenvalues --    4.59013   4.60190   4.61108   4.62381   4.62981
 Alpha virt. eigenvalues --    4.63583   4.63990   4.65711   4.67394   4.67659
 Alpha virt. eigenvalues --    4.68896   4.69694   4.70261   4.71375   4.72250
 Alpha virt. eigenvalues --    4.73469   4.75163   4.75375   4.79042   4.80618
 Alpha virt. eigenvalues --    4.80809   4.82141   4.83026   4.83452   4.83882
 Alpha virt. eigenvalues --    4.86191   4.87986   4.89041   4.89511   4.91120
 Alpha virt. eigenvalues --    4.94175   4.99840   5.01234   5.04954   5.07759
 Alpha virt. eigenvalues --    5.09791   5.09890   5.16414   5.22752   5.27252
 Alpha virt. eigenvalues --    5.28111   5.31322   5.34280   5.37069   5.38856
 Alpha virt. eigenvalues --    5.39062   5.39467   5.42564   5.46672   5.47441
 Alpha virt. eigenvalues --    5.48130   5.53263   5.53766   5.56745   5.59902
 Alpha virt. eigenvalues --    5.60777   5.69297   5.69788   5.84509   5.85368
 Alpha virt. eigenvalues --    5.94490   5.95603   5.96757   5.99542   6.00720
 Alpha virt. eigenvalues --    6.01508   6.02350   6.04765   6.09099   6.16959
 Alpha virt. eigenvalues --    6.24919   6.29464   6.40255   6.46982   6.78242
 Alpha virt. eigenvalues --    7.02266   7.04298   7.09295  10.77371  11.19631
 Alpha virt. eigenvalues --   11.26083  11.38209  11.77303  11.83579  11.86113
 Alpha virt. eigenvalues --   12.06512  12.32297  12.97890  13.17976  13.34679
 Alpha virt. eigenvalues --   13.50750
          Condensed to atoms (all electrons):
               1          2          3          4          5          6
     1  C    4.814831   0.366960  -0.081620   0.003307   0.000107  -0.000155
     2  O    0.366960   7.661576   0.360411  -0.014424  -0.001446   0.000801
     3  C   -0.081620   0.360411   5.117473   0.284188  -0.062522  -0.143265
     4  C    0.003307  -0.014424   0.284188   4.413787   0.800558   0.278373
     5  O    0.000107  -0.001446  -0.062522   0.800558   7.604272  -0.064145
     6  C   -0.000155   0.000801  -0.143265   0.278373  -0.064145   5.123818
     7  O    0.000000  -0.000001   0.000848  -0.015168  -0.001349   0.357311
     8  C   -0.000000   0.000000  -0.000108   0.002639   0.000169  -0.073274
     9  C    0.000000  -0.000000   0.000001  -0.000151   0.000001   0.003482
    10  S    0.000000   0.000000   0.000000   0.000001  -0.000000  -0.000403
    11  C    0.000000  -0.000000   0.000000  -0.000000  -0.000000  -0.000000
    12  C   -0.000000   0.000000  -0.000000   0.000000   0.000000   0.000000
    13  C    0.000000   0.000000   0.000000   0.000000  -0.000000  -0.000000
    14  O    0.000000   0.000000   0.000000  -0.000000   0.000000   0.000000
    15  H    0.387557  -0.019126   0.005506  -0.000145   0.000020   0.000001
    16  H    0.369924  -0.032740  -0.007419   0.000039  -0.000007   0.000022
    17  H    0.369887  -0.032756  -0.007417   0.000040  -0.000007   0.000022
    18  H   -0.004690  -0.030086   0.333944  -0.019918  -0.000259   0.006163
    19  H   -0.004693  -0.030069   0.334004  -0.019902  -0.000254   0.006169
    20  H    0.000007   0.000011   0.006031  -0.020366  -0.000243   0.334954
    21  H    0.000007   0.000010   0.006027  -0.020505  -0.000249   0.334890
    22  H    0.000000   0.000000   0.000022   0.000079  -0.000007  -0.006041
    23  H    0.000000   0.000000   0.000022   0.000073  -0.000007  -0.006173
    24  H    0.000000   0.000000   0.000000   0.000012  -0.000002   0.000089
    25  H    0.000000   0.000000   0.000000   0.000011  -0.000002   0.000088
    26  H   -0.000000   0.000000  -0.000000   0.000000  -0.000000   0.000000
    27  H   -0.000000   0.000000  -0.000000  -0.000000  -0.000000  -0.000000
    28  H   -0.000000   0.000000  -0.000000   0.000000  -0.000000   0.000000
    29  H    0.000000  -0.000000   0.000000  -0.000000  -0.000000  -0.000000
    30  H    0.000000   0.000000   0.000000   0.000000  -0.000000   0.000000
    31  H    0.000000   0.000000   0.000000   0.000000   0.000000   0.000000
    32  H    0.000000   0.000000  -0.000000   0.000000  -0.000000  -0.000000
               7          8          9         10         11         12
     1  C    0.000000  -0.000000   0.000000   0.000000   0.000000  -0.000000
     2  O   -0.000001   0.000000  -0.000000   0.000000  -0.000000   0.000000
     3  C    0.000848  -0.000108   0.000001   0.000000   0.000000  -0.000000
     4  C   -0.015168   0.002639  -0.000151   0.000001  -0.000000   0.000000
     5  O   -0.001349   0.000169   0.000001  -0.000000  -0.000000   0.000000
     6  C    0.357311  -0.073274   0.003482  -0.000403  -0.000000   0.000000
     7  O    7.705745   0.348207  -0.025940   0.001784  -0.000003   0.000000
     8  C    0.348207   4.727589   0.425488  -0.039093   0.000694   0.000274
     9  C   -0.025940   0.425488   4.882279   0.274682  -0.008510  -0.002724
    10  S    0.001784  -0.039093   0.274682  15.861092   0.282944  -0.056132
    11  C   -0.000003   0.000694  -0.008510   0.282944   4.786606   0.398540
    12  C    0.000000   0.000274  -0.002724  -0.056132   0.398540   5.023803
    13  C    0.000000  -0.000025   0.000726  -0.035153   0.394466  -0.031961
    14  O   -0.000000   0.000000  -0.000009   0.002143  -0.048253  -0.004428
    15  H   -0.000000  -0.000000  -0.000000   0.000000  -0.000000  -0.000000
    16  H    0.000000   0.000000   0.000000   0.000000   0.000000  -0.000000
    17  H    0.000000   0.000000   0.000000   0.000000   0.000000   0.000000
    18  H    0.000012   0.000008   0.000000   0.000000   0.000000  -0.000000
    19  H    0.000012   0.000008   0.000000   0.000000   0.000000  -0.000000
    20  H   -0.029415  -0.004857   0.000077   0.000035   0.000000  -0.000000
    21  H   -0.029279  -0.004703   0.000138   0.000036   0.000000  -0.000000
    22  H   -0.031908   0.356402  -0.031396   0.002372   0.000005   0.000000
    23  H   -0.031779   0.355998  -0.030477   0.002888   0.000022  -0.000015
    24  H    0.002830  -0.024541   0.367631  -0.044920  -0.002190   0.002525
    25  H    0.002507  -0.025453   0.368547  -0.045814  -0.001772  -0.000564
    26  H   -0.000000   0.000030  -0.002124  -0.046632   0.358882  -0.055136
    27  H    0.000000  -0.000026  -0.000505   0.003022  -0.028690   0.374653
    28  H    0.000000   0.000013   0.000334  -0.005079  -0.026300   0.375735
    29  H   -0.000000  -0.000002   0.000118   0.005910  -0.023817   0.360220
    30  H   -0.000000   0.000002   0.000011   0.003460  -0.042544   0.006347
    31  H   -0.000000   0.000002  -0.000017  -0.001101  -0.026174  -0.008609
    32  H   -0.000000   0.000000   0.000002  -0.000291  -0.001508  -0.000288
              13         14         15         16         17         18
     1  C    0.000000   0.000000   0.387557   0.369924   0.369887  -0.004690
     2  O    0.000000   0.000000  -0.019126  -0.032740  -0.032756  -0.030086
     3  C    0.000000   0.000000   0.005506  -0.007419  -0.007417   0.333944
     4  C    0.000000  -0.000000  -0.000145   0.000039   0.000040  -0.019918
     5  O   -0.000000   0.000000   0.000020  -0.000007  -0.000007  -0.000259
     6  C   -0.000000   0.000000   0.000001   0.000022   0.000022   0.006163
     7  O    0.000000  -0.000000  -0.000000   0.000000   0.000000   0.000012
     8  C   -0.000025   0.000000  -0.000000   0.000000   0.000000   0.000008
     9  C    0.000726  -0.000009  -0.000000   0.000000   0.000000   0.000000
    10  S   -0.035153   0.002143   0.000000   0.000000   0.000000   0.000000
    11  C    0.394466  -0.048253  -0.000000   0.000000   0.000000   0.000000
    12  C   -0.031961  -0.004428  -0.000000  -0.000000   0.000000  -0.000000
    13  C    4.757288   0.357130   0.000000   0.000000   0.000000   0.000000
    14  O    0.357130   7.848967   0.000000   0.000000   0.000000  -0.000000
    15  H    0.000000   0.000000   0.559481  -0.035141  -0.035160  -0.000140
    16  H    0.000000   0.000000  -0.035141   0.637426  -0.048464  -0.002417
    17  H    0.000000   0.000000  -0.035160  -0.048464   0.637593   0.013019
    18  H    0.000000  -0.000000  -0.000140  -0.002417   0.013019   0.643930
    19  H    0.000000  -0.000000  -0.000139   0.013017  -0.002417  -0.051940
    20  H    0.000000  -0.000000  -0.000000   0.000000  -0.000001   0.001304
    21  H    0.000000   0.000000  -0.000000  -0.000001   0.000000  -0.000267
    22  H    0.000001  -0.000000   0.000000   0.000000  -0.000000  -0.000002
    23  H    0.000003  -0.000000   0.000000  -0.000000   0.000000   0.000001
    24  H    0.000034  -0.000000   0.000000  -0.000000  -0.000000  -0.000000
    25  H    0.000030  -0.000000   0.000000  -0.000000  -0.000000   0.000000
    26  H   -0.036176  -0.001310  -0.000000   0.000000  -0.000000  -0.000000
    27  H   -0.003883  -0.000053   0.000000   0.000000  -0.000000   0.000000
    28  H    0.003695   0.000224   0.000000   0.000000   0.000000   0.000000
    29  H   -0.006039   0.013983  -0.000000   0.000000   0.000000  -0.000000
    30  H    0.368829  -0.029413   0.000000  -0.000000   0.000000   0.000000
    31  H    0.361830  -0.016977   0.000000   0.000000   0.000000   0.000000
    32  H   -0.064268   0.305717   0.000000   0.000000   0.000000   0.000000
              19         20         21         22         23         24
     1  C   -0.004693   0.000007   0.000007   0.000000   0.000000   0.000000
     2  O   -0.030069   0.000011   0.000010   0.000000   0.000000   0.000000
     3  C    0.334004   0.006031   0.006027   0.000022   0.000022   0.000000
     4  C   -0.019902  -0.020366  -0.020505   0.000079   0.000073   0.000012
     5  O   -0.000254  -0.000243  -0.000249  -0.000007  -0.000007  -0.000002
     6  C    0.006169   0.334954   0.334890  -0.006041  -0.006173   0.000089
     7  O    0.000012  -0.029415  -0.029279  -0.031908  -0.031779   0.002830
     8  C    0.000008  -0.004857  -0.004703   0.356402   0.355998  -0.024541
     9  C    0.000000   0.000077   0.000138  -0.031396  -0.030477   0.367631
    10  S    0.000000   0.000035   0.000036   0.002372   0.002888  -0.044920
    11  C    0.000000   0.000000   0.000000   0.000005   0.000022  -0.002190
    12  C   -0.000000  -0.000000  -0.000000   0.000000  -0.000015   0.002525
    13  C    0.000000   0.000000   0.000000   0.000001   0.000003   0.000034
    14  O   -0.000000  -0.000000   0.000000  -0.000000  -0.000000  -0.000000
    15  H   -0.000139  -0.000000  -0.000000   0.000000   0.000000   0.000000
    16  H    0.013017   0.000000  -0.000001   0.000000  -0.000000  -0.000000
    17  H   -0.002417  -0.000001   0.000000  -0.000000   0.000000  -0.000000
    18  H   -0.051940   0.001304  -0.000267  -0.000002   0.000001  -0.000000
    19  H    0.643706  -0.000270   0.001289   0.000001  -0.000002   0.000000
    20  H   -0.000270   0.639302  -0.051165   0.013192  -0.002623   0.000036
    21  H    0.001289  -0.051165   0.638970  -0.002623   0.013173  -0.000047
    22  H    0.000001   0.013192  -0.002623   0.652208  -0.056313   0.006097
    23  H   -0.000002  -0.002623   0.013173  -0.056313   0.650490  -0.007055
    24  H    0.000000   0.000036  -0.000047   0.006097  -0.007055   0.599907
    25  H   -0.000000  -0.000041   0.000033  -0.006673   0.006075  -0.044129
    26  H    0.000000   0.000000  -0.000000  -0.000004   0.000005  -0.000424
    27  H    0.000000   0.000000  -0.000000   0.000000   0.000003   0.000269
    28  H    0.000000  -0.000000   0.000000  -0.000001   0.000016   0.003835
    29  H    0.000000   0.000000  -0.000000   0.000000  -0.000000  -0.000258
    30  H    0.000000  -0.000000   0.000000   0.000000   0.000000   0.000001
    31  H    0.000000   0.000000  -0.000000   0.000000  -0.000000  -0.000002
    32  H    0.000000   0.000000  -0.000000   0.000000  -0.000000  -0.000000
              25         26         27         28         29         30
     1  C    0.000000  -0.000000  -0.000000  -0.000000   0.000000   0.000000
     2  O    0.000000   0.000000   0.000000   0.000000  -0.000000   0.000000
     3  C    0.000000  -0.000000  -0.000000  -0.000000   0.000000   0.000000
     4  C    0.000011   0.000000  -0.000000   0.000000  -0.000000   0.000000
     5  O   -0.000002  -0.000000  -0.000000  -0.000000  -0.000000  -0.000000
     6  C    0.000088   0.000000  -0.000000   0.000000  -0.000000   0.000000
     7  O    0.002507  -0.000000   0.000000   0.000000  -0.000000  -0.000000
     8  C   -0.025453   0.000030  -0.000026   0.000013  -0.000002   0.000002
     9  C    0.368547  -0.002124  -0.000505   0.000334   0.000118   0.000011
    10  S   -0.045814  -0.046632   0.003022  -0.005079   0.005910   0.003460
    11  C   -0.001772   0.358882  -0.028690  -0.026300  -0.023817  -0.042544
    12  C   -0.000564  -0.055136   0.374653   0.375735   0.360220   0.006347
    13  C    0.000030  -0.036176  -0.003883   0.003695  -0.006039   0.368829
    14  O   -0.000000  -0.001310  -0.000053   0.000224   0.013983  -0.029413
    15  H    0.000000  -0.000000   0.000000   0.000000  -0.000000   0.000000
    16  H   -0.000000   0.000000   0.000000   0.000000   0.000000  -0.000000
    17  H   -0.000000  -0.000000  -0.000000   0.000000   0.000000   0.000000
    18  H    0.000000  -0.000000   0.000000   0.000000  -0.000000   0.000000
    19  H   -0.000000   0.000000   0.000000   0.000000   0.000000   0.000000
    20  H   -0.000041   0.000000   0.000000  -0.000000   0.000000  -0.000000
    21  H    0.000033  -0.000000  -0.000000   0.000000  -0.000000   0.000000
    22  H   -0.006673  -0.000004   0.000000  -0.000001   0.000000   0.000000
    23  H    0.006075   0.000005   0.000003   0.000016  -0.000000   0.000000
    24  H   -0.044129  -0.000424   0.000269   0.003835  -0.000258   0.000001
    25  H    0.608310   0.004349   0.000074   0.000417   0.000005  -0.000006
    26  H    0.004349   0.675828   0.005856  -0.002857  -0.001332  -0.005288
    27  H    0.000074   0.005856   0.575184  -0.030781  -0.029303  -0.000013
    28  H    0.000417  -0.002857  -0.030781   0.594165  -0.031501  -0.000150
    29  H    0.000005  -0.001332  -0.029303  -0.031501   0.583455   0.000350
    30  H   -0.000006  -0.005288  -0.000013  -0.000150   0.000350   0.641692
    31  H    0.000005   0.006041   0.004982  -0.000052  -0.000221  -0.042723
    32  H    0.000000   0.005701   0.000088  -0.000056  -0.000013  -0.004818
              31         32
     1  C    0.000000   0.000000
     2  O    0.000000   0.000000
     3  C    0.000000  -0.000000
     4  C    0.000000   0.000000
     5  O    0.000000  -0.000000
     6  C    0.000000  -0.000000
     7  O   -0.000000  -0.000000
     8  C    0.000002   0.000000
     9  C   -0.000017   0.000002
    10  S   -0.001101  -0.000291
    11  C   -0.026174  -0.001508
    12  C   -0.008609  -0.000288
    13  C    0.361830  -0.064268
    14  O   -0.016977   0.305717
    15  H    0.000000   0.000000
    16  H    0.000000   0.000000
    17  H    0.000000   0.000000
    18  H    0.000000   0.000000
    19  H    0.000000   0.000000
    20  H    0.000000   0.000000
    21  H   -0.000000  -0.000000
    22  H    0.000000   0.000000
    23  H   -0.000000  -0.000000
    24  H   -0.000002  -0.000000
    25  H    0.000005   0.000000
    26  H    0.006041   0.005701
    27  H    0.004982   0.000088
    28  H   -0.000052  -0.000056
    29  H   -0.000221  -0.000013
    30  H   -0.042723  -0.004818
    31  H    0.586973   0.006729
    32  H    0.006729   0.468757
 Mulliken charges:
               1
     1  C   -0.221429
     2  O   -0.229120
     3  C   -0.146125
     4  C    0.327473
     5  O   -0.274628
     6  C   -0.152725
     7  O   -0.254414
     8  C   -0.045440
     9  C   -0.221664
    10  S   -0.165750
    11  C   -0.012398
    12  C   -0.382241
    13  C   -0.066527
    14  O   -0.427721
    15  H    0.137285
    16  H    0.105761
    17  H    0.105661
    18  H    0.111339
    19  H    0.111479
    20  H    0.114031
    21  H    0.114264
    22  H    0.104587
    23  H    0.105673
    24  H    0.140301
    25  H    0.134004
    26  H    0.094591
    27  H    0.129120
    28  H    0.118342
    29  H    0.128445
    30  H    0.104262
    31  H    0.129314
    32  H    0.284247
 Sum of Mulliken charges =  -0.00000
 Mulliken charges with hydrogens summed into heavy atoms:
               1
     1  C    0.127278
     2  O   -0.229120
     3  C    0.076693
     4  C    0.327473
     5  O   -0.274628
     6  C    0.075571
     7  O   -0.254414
     8  C    0.164820
     9  C    0.052642
    10  S   -0.165750
    11  C    0.082193
    12  C   -0.006334
    13  C    0.167050
    14  O   -0.143474
 Electronic spatial extent (au):  <R**2>=           8534.6499
 Charge=             -0.0000 electrons
 Dipole moment (field-independent basis, Debye):
    X=             -1.2772    Y=             -2.9342    Z=             -0.1526  Tot=              3.2037
 Quadrupole moment (field-independent basis, Debye-Ang):
   XX=            -87.1960   YY=            -96.1819   ZZ=            -88.7446
   XY=             19.3273   XZ=            -12.3306   YZ=              0.1511
 Traceless Quadrupole moment (field-independent basis, Debye-Ang):
   XX=              3.5115   YY=             -5.4744   ZZ=              1.9629
   XY=             19.3273   XZ=            -12.3306   YZ=              0.1511
 Octapole moment (field-independent basis, Debye-Ang**2):
  XXX=           -211.4792  YYY=              6.5325  ZZZ=             -6.8659  XYY=              9.4770
  XXY=            -46.3176  XXZ=            -34.7370  XZZ=              8.9710  YZZ=              4.1887
  YYZ=             -1.1640  XYZ=            -13.1637
 Hexadecapole moment (field-independent basis, Debye-Ang**3):
 XXXX=          -9945.9184 YYYY=           -464.9159 ZZZZ=           -184.4052 XXXY=            242.4755
 XXXZ=           -406.2837 YYYX=              4.4372 YYYZ=              0.2100 ZZZX=            -31.3175
 ZZZY=             -7.2570 XXYY=          -1808.6308 XXZZ=          -1605.9607 YYZZ=           -107.5843
 XXYZ=            -33.0577 YYXZ=             -7.0599 ZZXY=             11.9480
 N-N= 9.713697889623D+02 E-N=-4.418477209251D+03  KE= 1.046825504348D+03
 PrsmSu:  requested number of processors reduced to:  13 ShMem   1 Linda.
 Calling FoFJK, ICntrl=      2127 FMM=F ISym2X=0 I1Cent= 0 IOpClX= 0 NMat=1 NMatS=1 NMatT=0.
 ***** Axes restored to original set *****
 -------------------------------------------------------------------
 Center     Atomic                   Forces (Hartrees/Bohr)
 Number     Number              X              Y              Z
 -------------------------------------------------------------------
      1        6           0.009922336    0.000145984   -0.000501389
      2        8           0.008160591   -0.001592821    0.005599705
      3        6          -0.003449537    0.006121387   -0.021265167
      4        6           0.027683728    0.013115032   -0.045728340
      5        8          -0.025307952   -0.011824711    0.041141365
      6        6           0.020640912    0.002136936   -0.007723977
      7        8          -0.007973679    0.000792479   -0.002671406
      8        6          -0.005297562    0.001752918   -0.007922554
      9        6          -0.005286649    0.001978838   -0.005136901
     10       16          -0.000358395   -0.002462153    0.000785777
     11        6           0.003454419    0.007658409    0.004545491
     12        6           0.003685930    0.004933322   -0.004592405
     13        6           0.007273519   -0.009498232   -0.003121221
     14        8           0.000496076    0.000972594   -0.005744324
     15        1           0.002711430   -0.000014482    0.000053190
     16        1          -0.005067584    0.000871901    0.003523639
     17        1          -0.005077760   -0.002619816    0.002522786
     18        1          -0.001962400   -0.003051748    0.006773669
     19        1          -0.001963557   -0.001011250    0.007348853
     20        1          -0.004615448   -0.002167583    0.004842381
     21        1          -0.004515799   -0.000723866    0.005217524
     22        1           0.000906268   -0.002209694    0.004909288
     23        1           0.001272911   -0.001038233    0.005247958
     24        1          -0.000225713   -0.000933019    0.002306262
     25        1          -0.000788307   -0.000725515    0.002031405
     26        1          -0.002064620   -0.002425157    0.000649539
     27        1          -0.001547762   -0.001126919   -0.000522545
     28        1          -0.001432534    0.000495773    0.000720137
     29        1          -0.000526584   -0.002370769    0.001702007
     30        1          -0.007687918   -0.000604453    0.000433442
     31        1           0.001451884    0.000518274   -0.002555937
     32        1          -0.002510243    0.004906574    0.007131748
 -------------------------------------------------------------------
 Cartesian Forces:  Max     0.045728340 RMS     0.009019255

 GradGradGradGradGradGradGradGradGradGradGradGradGradGradGradGradGradGrad
 Berny optimization.
 FormGI is forming the generalized inverse of G from B-inverse, IUseBI=4.
 Internal  Forces:  Max     0.049725960 RMS     0.005355147
 Search for a local minimum.
 Step number   1 out of a maximum of  156
 All quantities printed in internal units (Hartrees-Bohrs-Radians)
 Mixed Optimization -- RFO/linear search
 Second derivative matrix not updated -- first step.
 ITU=  0
     Eigenvalues ---    0.00230   0.00230   0.00230   0.00337   0.00396
     Eigenvalues ---    0.00407   0.00418   0.00426   0.01342   0.01351
     Eigenvalues ---    0.01386   0.01409   0.01490   0.04522   0.04789
     Eigenvalues ---    0.04794   0.05131   0.05214   0.05399   0.05496
     Eigenvalues ---    0.05615   0.05744   0.05886   0.06262   0.06277
     Eigenvalues ---    0.06801   0.07413   0.07429   0.10222   0.10544
     Eigenvalues ---    0.10588   0.11396   0.11410   0.11429   0.11741
     Eigenvalues ---    0.13410   0.13765   0.13919   0.13948   0.13950
     Eigenvalues ---    0.16000   0.16000   0.16000   0.16000   0.16000
     Eigenvalues ---    0.16000   0.16000   0.16183   0.19686   0.21944
     Eigenvalues ---    0.22017   0.22060   0.22160   0.22162   0.23445
     Eigenvalues ---    0.24050   0.25000   0.25000   0.25000   0.25000
     Eigenvalues ---    0.25000   0.28337   0.29200   0.29615   0.29765
     Eigenvalues ---    0.29828   0.34050   0.34065   0.34068   0.34103
     Eigenvalues ---    0.34114   0.34126   0.34134   0.34136   0.34151
     Eigenvalues ---    0.34170   0.34171   0.34197   0.34256   0.34412
     Eigenvalues ---    0.34416   0.34416   0.34481   0.41507   0.41608
     Eigenvalues ---    0.42000   0.42252   0.43184   0.53005   0.89164
 RFO step:  Lambda=-1.08962480D-02 EMin= 2.30000000D-03
 Linear search not attempted -- first point.
 Iteration  1 RMS(Cart)=  0.09660239 RMS(Int)=  0.00193311
 Iteration  2 RMS(Cart)=  0.00416952 RMS(Int)=  0.00021387
 Iteration  3 RMS(Cart)=  0.00000735 RMS(Int)=  0.00021380
 Iteration  4 RMS(Cart)=  0.00000000 RMS(Int)=  0.00021380
 Variable       Old X    -DE/DX   Delta X   Delta X   Delta X     New X
                                 (Linear)    (Quad)   (Total)
    R1        2.67443  -0.00251   0.00000  -0.00566  -0.00566   2.66877
    R2        2.06640  -0.00089   0.00000  -0.00251  -0.00251   2.06389
    R3        2.06634   0.00468   0.00000   0.01318   0.01318   2.07952
    R4        2.06633   0.00469   0.00000   0.01321   0.01321   2.07954
    R5        2.68604  -0.01486   0.00000  -0.03428  -0.03428   2.65176
    R6        2.88738  -0.00310   0.00000  -0.01009  -0.01009   2.87728
    R7        2.07044   0.00505   0.00000   0.01432   0.01432   2.08476
    R8        2.07042   0.00505   0.00000   0.01432   0.01432   2.08473
    R9        2.33321  -0.04973   0.00000  -0.05510  -0.05510   2.27811
   R10        2.88435  -0.00218   0.00000  -0.00705  -0.00705   2.87730
   R11        2.69425  -0.01675   0.00000  -0.03924  -0.03924   2.65501
   R12        2.07104   0.00452   0.00000   0.01284   0.01284   2.08389
   R13        2.07118   0.00447   0.00000   0.01270   0.01270   2.08388
   R14        2.68923  -0.00381   0.00000  -0.00885  -0.00885   2.68038
   R15        2.89588  -0.00568   0.00000  -0.01876  -0.01876   2.87712
   R16        2.07156   0.00314   0.00000   0.00893   0.00893   2.08049
   R17        2.07246   0.00280   0.00000   0.00796   0.00796   2.08041
   R18        3.45386  -0.00063   0.00000  -0.00252  -0.00252   3.45134
   R19        2.06900  -0.00158   0.00000  -0.00447  -0.00447   2.06454
   R20        2.07076  -0.00125   0.00000  -0.00355  -0.00355   2.06721
   R21        3.47036   0.00118   0.00000   0.00480   0.00480   3.47515
   R22        2.88308   0.00260   0.00000   0.00842   0.00842   2.89150
   R23        2.91407  -0.00270   0.00000  -0.00919  -0.00919   2.90488
   R24        2.07216   0.00062   0.00000   0.00176   0.00176   2.07391
   R25        2.06999  -0.00079   0.00000  -0.00225  -0.00225   2.06775
   R26        2.06525   0.00019   0.00000   0.00054   0.00054   2.06579
   R27        2.07139  -0.00097   0.00000  -0.00277  -0.00277   2.06862
   R28        2.69555  -0.00195   0.00000  -0.00458  -0.00458   2.69098
   R29        2.07102   0.00237   0.00000   0.00672   0.00672   2.07774
   R30        2.07221  -0.00191   0.00000  -0.00544  -0.00544   2.06677
   R31        1.83649  -0.00894   0.00000  -0.01652  -0.01652   1.81997
    A1        1.88789  -0.00525   0.00000  -0.03121  -0.03105   1.85684
    A2        1.92631   0.00496   0.00000   0.02925   0.02915   1.95546
    A3        1.92624   0.00497   0.00000   0.02932   0.02922   1.95546
    A4        1.89747   0.00004   0.00000  -0.00025  -0.00009   1.89738
    A5        1.89745   0.00004   0.00000  -0.00024  -0.00008   1.89737
    A6        1.92757  -0.00491   0.00000  -0.02781  -0.02812   1.89945
    A7        1.97003  -0.00537   0.00000  -0.02059  -0.02059   1.94945
    A8        1.92619  -0.00532   0.00000  -0.01595  -0.01587   1.91032
    A9        1.91239   0.00388   0.00000   0.02929   0.02927   1.94167
   A10        1.91261   0.00387   0.00000   0.02909   0.02908   1.94169
   A11        1.89600   0.00095   0.00000   0.00054   0.00056   1.89656
   A12        1.89626   0.00095   0.00000   0.00047   0.00049   1.89675
   A13        1.92027  -0.00445   0.00000  -0.04443  -0.04465   1.87563
   A14        2.13456   0.00251   0.00000   0.00962   0.00962   2.14417
   A15        2.02000  -0.00626   0.00000  -0.02398  -0.02398   1.99602
   A16        2.12862   0.00375   0.00000   0.01437   0.01437   2.14299
   A17        1.92781  -0.00566   0.00000  -0.01805  -0.01797   1.90984
   A18        1.89428   0.00147   0.00000   0.00463   0.00469   1.89897
   A19        1.89456   0.00151   0.00000   0.00461   0.00467   1.89922
   A20        1.91374   0.00353   0.00000   0.02551   0.02553   1.93927
   A21        1.91482   0.00342   0.00000   0.02441   0.02442   1.93924
   A22        1.91844  -0.00437   0.00000  -0.04205  -0.04214   1.87630
   A23        1.95950  -0.00245   0.00000  -0.00938  -0.00938   1.95012
   A24        1.91845  -0.01243   0.00000  -0.05028  -0.05008   1.86837
   A25        1.89563   0.00627   0.00000   0.03850   0.03814   1.93378
   A26        1.89432   0.00650   0.00000   0.04038   0.03999   1.93431
   A27        1.92555   0.00138   0.00000  -0.00281  -0.00249   1.92305
   A28        1.92245   0.00103   0.00000  -0.00499  -0.00467   1.91778
   A29        1.90692  -0.00255   0.00000  -0.01940  -0.02004   1.88688
   A30        1.86994   0.00375   0.00000   0.01429   0.01431   1.88425
   A31        1.90726  -0.00034   0.00000   0.00215   0.00217   1.90943
   A32        1.92449  -0.00176   0.00000  -0.00947  -0.00943   1.91506
   A33        1.94633  -0.00191   0.00000  -0.01087  -0.01090   1.93542
   A34        1.93640  -0.00139   0.00000  -0.00981  -0.00978   1.92662
   A35        1.87971   0.00157   0.00000   0.01338   0.01337   1.89308
   A36        1.79444  -0.00341   0.00000  -0.01306  -0.01306   1.78139
   A37        1.96288   0.00237   0.00000   0.02387   0.02388   1.98677
   A38        1.86505  -0.00288   0.00000  -0.01201  -0.01271   1.85234
   A39        1.90863  -0.00137   0.00000  -0.03026  -0.03065   1.87798
   A40        1.92003   0.00305   0.00000   0.02467   0.02457   1.94460
   A41        1.90534   0.00000   0.00000   0.01039   0.01069   1.91603
   A42        1.90079  -0.00134   0.00000  -0.01871  -0.01913   1.88165
   A43        1.94328  -0.00124   0.00000  -0.01032  -0.01038   1.93290
   A44        1.95402   0.00062   0.00000   0.00431   0.00432   1.95834
   A45        1.93029  -0.00320   0.00000  -0.01636  -0.01639   1.91389
   A46        1.89837  -0.00023   0.00000  -0.00560  -0.00561   1.89276
   A47        1.87381   0.00211   0.00000   0.01092   0.01081   1.88462
   A48        1.86041   0.00218   0.00000   0.01863   0.01867   1.87908
   A49        1.95073   0.00079   0.00000   0.00678   0.00643   1.95715
   A50        1.94705  -0.00427   0.00000  -0.01864  -0.01943   1.92762
   A51        1.93414  -0.00116   0.00000  -0.02525  -0.02570   1.90844
   A52        1.87787   0.00591   0.00000   0.06680   0.06681   1.94468
   A53        1.86791  -0.00201   0.00000  -0.02627  -0.02638   1.84153
   A54        1.88260   0.00103   0.00000  -0.00162  -0.00193   1.88066
   A55        1.88070  -0.00127   0.00000  -0.00744  -0.00744   1.87326
    D1        3.14133  -0.00000   0.00000  -0.00001  -0.00001   3.14132
    D2        1.06748   0.00025   0.00000   0.00223   0.00260   1.07008
    D3       -1.06807  -0.00025   0.00000  -0.00218  -0.00255  -1.07062
    D4        3.14156   0.00000   0.00000   0.00006   0.00006  -3.14157
    D5        1.05448  -0.00032   0.00000  -0.00914  -0.00900   1.04547
    D6       -1.05408   0.00031   0.00000   0.00905   0.00891  -1.04517
    D7       -0.00023  -0.00000   0.00000   0.00021   0.00021  -0.00003
    D8       -3.14118  -0.00001   0.00000  -0.00057  -0.00057   3.14144
    D9        2.09674   0.00214   0.00000   0.02681   0.02677   2.12351
   D10       -1.04420   0.00213   0.00000   0.02604   0.02599  -1.01821
   D11       -2.09764  -0.00212   0.00000  -0.02612  -0.02607  -2.12370
   D12        1.04461  -0.00213   0.00000  -0.02689  -0.02684   1.01776
   D13        3.13984   0.00005   0.00000   0.00109   0.00109   3.14093
   D14        1.04131  -0.00178   0.00000  -0.02220  -0.02218   1.01913
   D15       -1.04332   0.00176   0.00000   0.02300   0.02298  -1.02034
   D16       -0.00110   0.00004   0.00000   0.00032   0.00032  -0.00079
   D17       -2.09964  -0.00179   0.00000  -0.02297  -0.02295  -2.12259
   D18        2.09892   0.00175   0.00000   0.02223   0.02221   2.12113
   D19       -3.14055   0.00000   0.00000   0.00031   0.00031  -3.14023
   D20       -1.05372   0.00053   0.00000   0.01091   0.01081  -1.04291
   D21        1.05480  -0.00049   0.00000  -0.00956  -0.00946   1.04534
   D22       -3.13966   0.00009   0.00000   0.00077   0.00080  -3.13886
   D23        1.03535   0.00205   0.00000   0.01081   0.01167   1.04703
   D24       -1.03609  -0.00212   0.00000  -0.01067  -0.01156  -1.04765
   D25       -3.13819   0.00007   0.00000   0.00060   0.00063  -3.13757
   D26        1.03380   0.00033   0.00000   0.00398   0.00398   1.03778
   D27       -1.02909  -0.00034   0.00000  -0.00802  -0.00801  -1.03710
   D28       -1.04814   0.00082   0.00000   0.01464   0.01472  -1.03343
   D29        3.12385   0.00108   0.00000   0.01802   0.01807  -3.14127
   D30        1.06096   0.00041   0.00000   0.00602   0.00607   1.06704
   D31        1.05850  -0.00081   0.00000  -0.01461  -0.01466   1.04384
   D32       -1.05269  -0.00055   0.00000  -0.01122  -0.01131  -1.06400
   D33       -3.11558  -0.00121   0.00000  -0.02322  -0.02330  -3.13888
   D34       -3.12659  -0.00091   0.00000  -0.03685  -0.03683   3.11976
   D35       -1.04032  -0.00007   0.00000  -0.03154  -0.03158  -1.07190
   D36        1.05505  -0.00030   0.00000  -0.02852  -0.02849   1.02657
   D37        1.05073  -0.00012   0.00000   0.04872   0.04868   1.09941
   D38       -3.12389   0.00317   0.00000   0.08560   0.08532  -3.03858
   D39       -1.06909  -0.00074   0.00000   0.04083   0.04115  -1.02794
   D40        1.01063  -0.00029   0.00000  -0.00292  -0.00279   1.00784
   D41       -1.11874   0.00046   0.00000   0.00867   0.00881  -1.10993
   D42        3.09247  -0.00055   0.00000  -0.00670  -0.00650   3.08597
   D43       -1.06606  -0.00025   0.00000  -0.01983  -0.01998  -1.08603
   D44        3.08776   0.00050   0.00000  -0.00825  -0.00837   3.07938
   D45        1.01579  -0.00051   0.00000  -0.02361  -0.02368   0.99210
   D46        3.13232  -0.00046   0.00000  -0.01825  -0.01832   3.11400
   D47        1.00295   0.00030   0.00000  -0.00666  -0.00671   0.99623
   D48       -1.06903  -0.00072   0.00000  -0.02202  -0.02202  -1.09105
   D49        3.12573   0.00017   0.00000  -0.00423  -0.00419   3.12154
   D50        1.02238  -0.00497   0.00000  -0.08154  -0.08114   0.94125
   D51       -1.07560  -0.00262   0.00000  -0.04987  -0.04980  -1.12540
   D52       -1.02181   0.00307   0.00000   0.03187   0.03174  -0.99007
   D53       -3.12515  -0.00208   0.00000  -0.04543  -0.04520   3.11283
   D54        1.06005   0.00027   0.00000  -0.01377  -0.01387   1.04618
   D55        1.06578   0.00408   0.00000   0.04792   0.04762   1.11340
   D56       -1.03757  -0.00107   0.00000  -0.02938  -0.02932  -1.06689
   D57       -3.13555   0.00128   0.00000   0.00228   0.00201  -3.13354
   D58       -1.05997  -0.00102   0.00000  -0.04580  -0.04626  -1.10623
   D59        1.08328  -0.00185   0.00000  -0.01940  -0.01867   1.06461
   D60        3.10264   0.00125   0.00000  -0.00150  -0.00176   3.10087
         Item               Value     Threshold  Converged?
 Maximum Force            0.049726     0.000450     NO 
 RMS     Force            0.005355     0.000300     NO 
 Maximum Displacement     0.301924     0.001800     NO 
 RMS     Displacement     0.097025     0.001200     NO 
 Predicted change in Energy=-5.869706D-03
 GradGradGradGradGradGradGradGradGradGradGradGradGradGradGradGradGradGrad

                          Input orientation:                          
 ---------------------------------------------------------------------
 Center     Atomic      Atomic             Coordinates (Angstroms)
 Number     Number       Type             X           Y           Z
 ---------------------------------------------------------------------
      1          6           0        1.133895    0.029270    0.022385
      2          8           0        2.545896    0.037629    0.047605
      3          6           0        3.044203   -0.311009    1.312222
      4          6           0        4.566290   -0.285898    1.282053
      5          8           0        5.196212   -0.002395    0.294067
      6          6           0        5.226824   -0.648878    2.605024
      7          8           0        6.623282   -0.594087    2.460618
      8          6           0        7.289586   -0.926514    3.667838
      9          6           0        8.784153   -0.830212    3.393949
     10         16           0        9.667671   -1.260929    4.933271
     11          6           0       11.427490   -1.132339    4.415273
     12          6           0       11.844316    0.275919    3.985953
     13          6           0       12.261185   -1.625056    5.609072
     14          8           0       13.658081   -1.603469    5.333393
     15          1           0        0.842131    0.310354   -0.991860
     16          1           0        0.703986    0.756356    0.727706
     17          1           0        0.722813   -0.967009    0.244679
     18          1           0        2.713542   -1.321170    1.607691
     19          1           0        2.694597    0.391769    2.087408
     20          1           0        4.897478   -1.658681    2.901469
     21          1           0        4.879845    0.054154    3.380521
     22          1           0        7.027553   -1.945799    3.991073
     23          1           0        7.010937   -0.229794    4.473401
     24          1           0        9.029945    0.185313    3.074789
     25          1           0        9.057714   -1.521391    2.591394
     26          1           0       11.581404   -1.834299    3.585817
     27          1           0       11.671001    0.994362    4.792853
     28          1           0       11.302665    0.614689    3.098898
     29          1           0       12.912578    0.287070    3.747237
     30          1           0       11.929163   -2.625208    5.922668
     31          1           0       12.119421   -0.946202    6.454773
[...]
 -0.00035284,0.00020086,-0.00022847,0.00141960,0.00013359,-0.00105219,-
 0.00070809,-0.00771448,-0.00856939,-0.04980987,0.01994816,0.02480795,-
 0.00004629,0.00086106,0.00069631,-0.00017388,0.00021280,-0.00073074,0.
 00000191,-0.00000010,0.00000194,0.00000143,-0.00000048,-0.00000106,0.0
 0000178,0.00000046,-0.00000124,-0.00000069,-0.00000064,0.00000197,-0.0
 0000008,0.00000163,0.00000198,0.00000656,0.00000702,-0.00000198,0.0000
 0437,0.00000089,-0.00000204,-0.00000161,-0.00001007,0.00001595,-0.0000
 4328,0.00000382,0.00002528,-0.00003443,-0.00015114,-0.00005681,0.00010
 068,0.00007333,0.00013916,0.00024209,-0.00249991,0.00055083,0.04941467
 ,0.00000247,-0.00000076,-0.00000032,-0.00000311,0.00000110,-0.00000030
 ,-0.00000009,-0.00000064,-0.00000026,0.00000205,-0.00000210,0.00000045
 ,-0.00000226,0.00000279,0.00000145,0.00000363,-0.00000276,-0.00000903,
 -0.00000791,-0.00001012,0.00000540,-0.00001782,0.00006680,-0.00000851,
 -0.00017194,-0.00006278,0.00000856,0.00095025,0.00191261,-0.00003674,0
 .00343340,-0.02156700,-0.02568026,0.01813698,-0.13884396,-0.12310913,-
 0.00039001,0.00112070,-0.00200705,0.00022652,-0.00007512,0.00049846,-0
 .00000016,-0.00000003,-0.00000016,-0.00000019,0.00000049,0.00000025,-0
 .00000022,-0.00000019,0.00000010,-0.00000001,-0.00000024,-0.00000038,-
 0.00000031,0.00000054,-0.00000022,0.00000084,0.00000047,-0.00000106,-0
 .00000009,0.00000144,0.00000121,-0.00000524,-0.00000453,-0.00000403,-0
 .00001157,-0.00000594,-0.00000450,0.00002470,-0.00002897,0.00000219,0.
 00013364,-0.00005322,0.00012247,-0.00185645,-0.00559573,0.00205012,-0.
 01844615,0.15508046,0.00001119,-0.00000479,-0.00000179,-0.00001433,0.0
 0000531,-0.00000288,-0.00000116,-0.00000421,0.00000103,0.00002375,-0.0
 0000568,-0.00000054,-0.00002019,0.00000511,0.00000423,0.00004106,-0.00
 000359,-0.00001504,-0.00005287,0.00001541,-0.00000066,0.00007807,-0.00
 004660,0.00003271,-0.00012022,-0.00003425,-0.00012317,-0.00070383,0.00
 042294,0.00083694,-0.00075499,0.00483744,0.00595813,0.02360974,-0.1251
 8601,-0.21475040,-0.00004761,0.00025774,0.00123172,0.00008335,-0.00025
 809,0.00005726,-0.00000095,-0.00000006,-0.00000080,-0.00000145,0.00000
 215,0.00000151,-0.00000114,0.00000009,0.00000055,-0.00000060,0.0000007
 5,-0.00000139,-0.00000319,0.00000217,-0.00000014,-0.00000410,-0.000000
 23,0.00000233,-0.00001024,0.00000198,0.00000818,-0.00002074,-0.0000046
 2,0.00000981,-0.00003321,-0.00000315,0.00001704,0.00000611,-0.00018527
 ,-0.00015863,0.00003036,0.00011091,-0.00002045,0.00048179,0.00201126,0
 .00074298,-0.02686096,0.13650699,0.23050256,-0.00002048,0.00000487,0.0
 0000024,0.00003262,-0.00000585,0.00002452,-0.00000759,-0.00000094,-0.0
 0001078,-0.00001841,0.00002379,-0.00008905,0.00000262,-0.00001313,0.00
 005556,-0.00011280,-0.00002310,0.00004048,0.00020234,0.00001523,0.0000
 6897,-0.00019328,0.00004590,0.00001739,-0.00038883,-0.00051294,0.00000
 757,0.00085884,0.00035373,0.00004242,0.00554511,-0.00489194,0.01046689
 ,-0.12028215,0.05314824,-0.10829140,-0.00208940,-0.00227438,0.00066097
 ,0.00077272,0.00104443,-0.00089409,0.00000387,-0.00000008,0.00000302,0
 .00000245,-0.00000139,-0.00000206,0.00000220,-0.00000055,-0.00000116,-
 0.00000211,-0.00000308,0.00000390,0.00000159,0.00000111,0.00000255,0.0
 0001675,0.00001010,-0.00000451,0.00001602,-0.00000097,-0.00000795,0.00
 004017,0.00000982,-0.00000363,0.00001681,-0.00000928,-0.00000076,-0.00
 112249,-0.00026913,-0.00010389,0.00002316,0.00007686,-0.00005044,0.000
 13997,0.00074926,-0.00019755,0.00165521,-0.00215625,0.00415424,0.12937
 823,-0.00002453,0.00000450,0.00000177,0.00003250,-0.00000503,0.0000152
 4,-0.00000235,-0.00000114,-0.00001073,-0.00004837,0.00001272,-0.000026
 25,0.00003223,-0.00000810,0.00001421,-0.00009925,-0.00001057,0.0000126
 2,0.00003212,-0.00002231,0.00000696,-0.00015475,0.00025751,-0.00027863
 ,0.00007081,-0.00009720,0.00021293,0.00089426,0.00054653,-0.00024818,0
 .01751176,-0.01163409,0.02436073,0.05131554,-0.08261400,0.07390079,-0.
 00403074,-0.00555867,0.00014294,0.00009678,0.00052710,-0.00032560,0.00
 000276,-0.00000022,0.00000244,0.00000261,-0.00000210,-0.00000215,0.000
 00303,0.00000076,-0.00000197,0.00000117,-0.00000063,0.00000282,0.00000
 351,-0.00000046,0.00000252,0.00001005,0.00000677,-0.00000419,0.0000152
 5,-0.00000244,-0.00000970,0.00014804,0.00001331,0.00001045,0.00009473,
 -0.00000821,-0.00002765,-0.00059105,0.00039074,-0.00014095,-0.00009982
 ,-0.00021796,-0.00016129,0.00027405,0.00122296,-0.00056997,-0.01114431
 ,0.00776191,-0.01459901,-0.05585442,0.09116100,0.00002798,-0.00000046,
 -0.00000043,-0.00003776,-0.00000021,-0.00002284,0.00000700,0.00001102,
 0.00001711,0.00004381,-0.00000991,0.00004856,-0.00002207,-0.00000263,-
 0.00003100,0.00010337,0.00002343,-0.00001149,-0.00004519,-0.00001758,-
 0.00002862,0.00015011,-0.00038958,0.00022343,-0.00050951,0.00064175,-0
 .00000394,-0.00036018,-0.00005949,-0.00028739,-0.00284701,0.00138498,-
 0.00536603,-0.10743439,0.07544159,-0.20273296,0.00144491,0.00132937,0.
 00063530,-0.00020825,-0.00034649,0.00035725,-0.00000337,0.00000056,-0.
 00000319,-0.00000233,0.00000065,0.00000140,-0.00000381,-0.00000190,0.0
 0000280,-0.00000073,-0.00000084,-0.00000309,-0.00000034,-0.00000249,-0
 .00000482,-0.00001403,-0.00001202,0.00000391,-0.00000989,0.00000212,0.
 00000403,-0.00020291,-0.00002772,-0.00001200,-0.00001239,0.00001812,-0
 .00000839,0.00042677,-0.00046634,0.00046655,0.00004518,-0.00010144,0.0
 0004292,0.00048241,0.00025429,0.00075513,-0.01377765,0.01000677,-0.018
 57883,0.11849636,-0.08395679,0.21725058,0.00003755,-0.00000677,-0.0000
 0072,-0.00005495,0.00000767,-0.00003654,0.00001042,0.00000381,0.000019
 91,0.00004329,-0.00003222,0.00010826,-0.00001787,0.00001393,-0.0000662
 7,0.00015602,0.00003929,-0.00005119,-0.00026239,0.00003889,-0.00012188
 ,0.00020849,-0.00013381,0.00007530,0.00027943,0.00006249,0.00050112,-0
 .00043294,-0.00189362,-0.00008036,-0.00941831,-0.00144185,0.00366743,-
 0.29342930,0.00585820,0.06516936,-0.00161917,0.00017108,-0.00018967,0.
 00037008,0.00216694,-0.00176324,-0.00000558,0.00000040,-0.00000485,-0.
 00000406,0.00000243,0.00000319,-0.00000440,-0.00000032,0.00000273,0.00
 000220,0.00000324,-0.00000575,-0.00000250,-0.00000179,-0.00000479,-0.0
 0001916,-0.00001396,0.00000866,-0.00002305,0.00000043,0.00001206,-0.00
 003785,0.00003699,-0.00002041,-0.00000780,0.00000823,-0.00000347,0.000
 24646,0.00008554,-0.00002268,-0.00004558,-0.00001178,-0.00002146,0.000
 40607,-0.00029172,-0.00028497,-0.00178298,0.00013856,-0.00014966,-0.01
 493406,0.00041006,0.00458160,0.32031088,0.00002405,-0.00000443,-0.0000
 0148,-0.00003677,0.00000556,-0.00002263,0.00000701,0.00000128,0.000007
 88,0.00001978,-0.00002520,0.00008118,-0.00000823,0.00001150,-0.0000468
 7,0.00012422,0.00003309,-0.00005020,-0.00025820,0.00006632,-0.00013212
 ,0.00016750,0.00000214,-0.00003476,0.00057907,-0.00007560,0.00047144,-
 0.00350216,-0.00422810,0.00260060,-0.02899621,0.00014139,0.00807643,0.
 00646194,-0.04669111,-0.00327889,-0.00147109,0.00137665,0.00048517,0.0
 0125549,-0.00004703,-0.00097766,-0.00000366,0.00000045,-0.00000295,-0.
 00000264,0.00000161,0.00000198,-0.00000284,-0.00000030,0.00000196,0.00
 000180,0.00000251,-0.00000346,-0.00000233,-0.00000067,-0.00000275,-0.0
 0001279,-0.00000954,0.00000884,-0.00001936,-0.00000081,0.00001150,0.00
 008640,0.00007395,0.00000485,0.00001847,-0.00001846,0.00000379,-0.0001
 5304,0.00017553,-0.00031378,-0.00006160,0.00004729,-0.00010139,0.00058
 859,0.00094322,-0.00077849,0.01863316,-0.00038336,-0.00342783,0.011089
 00,-0.00102715,-0.00395380,-0.00507773,0.05020827,-0.00001151,0.000001
 57,0.00000076,0.00001567,-0.00000184,0.00000798,-0.00000253,-0.0000012
 5,-0.00000381,-0.00000803,0.00000825,-0.00002060,0.00000571,-0.0000041
 1,0.00000904,-0.00003247,-0.00001733,0.00001902,0.00012881,-0.00002051
 ,0.00003528,-0.00002636,-0.00013782,0.00012898,-0.00026822,0.00031234,
 -0.00015781,0.00102582,0.00206681,0.00004875,0.00670725,-0.00013369,-0
 .00285388,0.06341190,-0.00287531,-0.06385020,0.00178351,-0.00026605,-0
 .00025462,-0.00089346,-0.00050129,0.00013686,0.00000116,-0.00000012,0.
 00000120,0.00000118,-0.00000085,-0.00000092,0.00000141,0.00000050,-0.0
 0000101,-0.00000033,-0.00000033,0.00000123,0.00000071,0.00000024,0.000
 00106,0.00000288,0.00000471,-0.00000177,0.00000581,-0.00000027,-0.0000
 0336,-0.00011829,-0.00001772,-0.00000281,-0.00002130,-0.00000336,0.000
 00551,0.00029262,-0.00025588,0.00013288,0.00006739,-0.00001906,0.00006
 781,-0.00025774,0.00018804,0.00018909,0.02506019,0.00033857,-0.0059373
 4,-0.02481130,-0.00000982,0.00694932,-0.07165984,0.00152579,0.06511065
 ,-0.00000194,0.00000055,0.00000065,0.00000386,-0.00000099,0.00000158,-
 0.00000051,0.00000049,0.00000142,0.00000072,0.00000448,-0.00001270,-0.
 00000062,-0.00000357,0.00000622,-0.00001358,-0.00000300,0.00001197,0.0
 0006765,-0.00000596,0.00002237,-0.00005464,-0.00002056,0.00004620,0.00
 018510,-0.00011852,-0.00007464,0.00047757,0.00078127,-0.00044770,0.006
 45865,0.01715532,-0.00375034,-0.00283187,0.00072432,-0.00298282,-0.069
 51997,-0.06771100,0.01633570,-0.03068895,-0.02988158,0.01380173,0.0000
 0048,-0.00000012,0.00000021,0.00000014,-0.00000019,-0.00000020,0.00000
 017,0.00000005,-0.00000022,-0.00000024,-0.00000028,0.00000028,0.000000
 45,-0.00000020,0.00000024,0.00000239,0.00000143,-0.00000111,0.00000387
 ,-0.00000047,-0.00000207,-0.00001436,-0.00000505,-0.00000213,0.0000027
 3,-0.00000397,-0.00000076,0.00008009,0.00000860,0.00005381,0.00000734,
 0.00002715,0.00001792,0.00022633,-0.00066121,0.00029016,-0.00004564,-0
 .00013507,0.00009014,0.00049843,0.00127834,-0.00050067,-0.00001939,0.0
 0015126,-0.00024651,0.09151527,0.00000001,-0.00000418,0.00000096,-0.00
 000128,0.00000527,-0.00000516,0.00000046,-0.00000788,0.00000339,0.0000
 0039,-0.00000780,0.00002587,0.00000798,0.00000966,-0.00001834,0.000003
 01,-0.00001809,0.00000224,-0.00000437,0.00003068,-0.00003106,0.0000567
 2,-0.00004366,0.00007659,0.00053926,0.00074171,0.00010726,-0.00017974,
 -0.00054795,-0.00004227,-0.00467489,-0.01333557,0.00120152,0.00249745,
 0.00028193,0.00268599,-0.06988673,-0.26370982,0.04507874,-0.00174100,0
 .00922493,0.00070648,-0.00000052,-0.00000030,-0.00000043,-0.00000039,0
 .00000089,0.00000078,0.00000055,0.00000154,-0.00000077,0.00000213,0.00
 000286,-0.00000149,-0.00000044,0.00000065,0.00000036,-0.00000108,0.000
 00539,0.00000052,-0.00000244,-0.00000064,0.00000160,0.00002854,0.00002
 220,0.00000611,-0.00000263,0.00000396,0.00000053,-0.00025623,0.0000886
 8,-0.00029774,-0.00003219,-0.00005072,-0.00001792,0.00004568,0.0010048
 8,0.00030844,0.00004169,0.00046480,-0.00010443,-0.00051644,-0.00085607
 ,0.00040647,-0.00001781,0.00024334,-0.00013964,0.07966830,0.28029019,-
 0.00000113,0.00000200,-0.00000002,0.00000171,-0.00000286,0.00000106,0.
 00000015,0.00000360,-0.00000016,-0.00000170,0.00000434,-0.00000800,-0.
 00000148,-0.00000604,0.00000401,-0.00000363,0.00001129,0.00000373,0.00
 002181,-0.00001237,0.00000462,-0.00002866,-0.00002716,0.00001088,-0.00
 000794,-0.00029884,-0.00012684,0.00040267,-0.00008450,0.00056855,0.004
 93156,0.02545714,-0.00562886,-0.00344767,0.00034201,-0.00297351,0.0142
 8466,0.04248089,-0.06420469,0.01052375,0.00829461,-0.00054647,0.000000
 23,0.00000021,0.00000013,0.00000021,-0.00000068,-0.00000047,-0.0000001
 9,-0.00000044,0.00000031,-0.00000072,-0.00000072,0.00000083,0.00000047
 ,-0.00000083,-0.00000011,-0.00000009,-0.00000172,0.00000120,0.00000160
 ,-0.00000188,-0.00000135,-0.00002156,-0.00000636,0.00000704,0.00000268
 ,-0.00001079,-0.00000238,0.00014422,-0.00006570,0.00011507,0.00001075,
 0.00005339,-0.00004737,0.00096530,-0.00053833,0.00088644,-0.00008400,0
 .00032264,0.00015835,0.00048146,0.00146188,-0.00012061,0.00015830,-0.0
 0032773,0.00010504,-0.02013564,-0.05424675,0.06446653,0.00000209,-0.00
 000053,-0.00000013,-0.00000201,0.00000053,0.00000023,-0.00000063,-0.00
 000055,0.00000098,0.00000801,0.00000048,-0.00000646,-0.00000585,0.0000
 0093,0.00000447,0.00000993,-0.00000575,0.00000055,0.00004777,0.0000040
 8,0.00001510,-0.00004456,-0.00000570,0.00009474,-0.00001425,0.00007649
 ,-0.00016573,0.00062836,-0.00019437,-0.00027080,0.00078090,-0.01078368
 ,-0.01675171,0.00019995,-0.00065773,0.00104008,-0.04578330,-0.00559121
 ,-0.00599306,-0.01282868,0.02428936,0.03485921,-0.00000009,0.00000004,
 -0.00000012,-0.00000015,0.00000035,0.00000015,-0.00000020,-0.00000019,
 0.00000013,-0.00000046,-0.00000034,-0.00000025,-0.00000046,0.00000054,
 -0.00000034,0.00000154,0.00000059,-0.00000029,0.00000039,0.00000147,0.
 00000067,0.00000520,0.00000467,0.00000123,-0.00002427,0.00000271,0.000
 00074,0.00003165,-0.00001414,0.00003800,-0.00001489,0.00006770,0.00019
 383,-0.00205776,0.00223990,-0.00274400,0.00020956,0.00040946,0.0001819
 4,-0.00009525,-0.00010493,0.00017225,0.00002582,0.00017295,-0.00002151
 ,0.00210513,-0.00474391,-0.00823661,0.06346116,0.00000376,-0.00000069,
 -0.00000074,-0.00000437,0.00000083,0.00000062,-0.00000027,0.00000019,-
 0.00000098,0.00000411,0.00000010,-0.00000353,-0.00000486,-0.00000033,0
 .00000520,0.00000649,-0.00000212,-0.00000946,-0.00004033,0.00000061,0.
 00000334,0.00000520,-0.00002364,-0.00010356,-0.00030529,0.00017141,0.0
 0028305,-0.00049872,0.00025095,-0.00052840,0.00054518,0.00744551,0.012
 41477,-0.00024970,0.00169462,0.00054342,0.00072700,-0.13638195,-0.1205
 4597,0.00400361,0.00098885,-0.00181433,-0.00000012,-0.00000005,-0.0000
 0010,-0.00000028,0.00000072,0.00000030,-0.00000038,-0.00000049,0.00000
 021,-0.00000024,-0.00000080,-0.00000044,-0.00000041,0.00000091,-0.0000
 0028,0.00000013,-0.00000091,-0.00000075,-0.00000128,0.00000319,0.00000
 155,0.00000513,0.00000064,-0.00000350,0.00001258,0.00001179,-0.0000051
 0,0.00000428,-0.00000518,0.00001237,0.00010240,-0.00010751,0.00000969,
 0.00152558,-0.00024907,0.00269545,0.00014835,0.00006474,-0.00041439,-0
 .00000704,0.00009685,-0.00019010,-0.00006624,-0.00008525,0.00005616,-0
 .00052620,-0.01567343,-0.02413462,-0.00524807,0.13985926,0.00000746,-0
 .00000262,-0.00000104,-0.00000966,0.00000302,-0.00000237,-0.00000030,-
 0.00000155,0.00000080,0.00001203,-0.00000504,0.00000385,-0.00000959,0.
 00000427,0.00000027,0.00002317,-0.00000662,-0.00001764,-0.00002889,0.0
 0000224,-0.00001165,-0.00003810,0.00008717,0.00004438,-0.00040524,0.00
 041760,0.00008827,0.00011713,-0.00045854,-0.00016808,-0.00233783,-0.01
 347354,-0.02160790,0.00057359,-0.00141032,0.00112270,0.00302949,-0.117
 43576,-0.22226894,0.00738909,-0.00702417,-0.00797437,-0.00000065,-0.00
 000007,-0.00000056,-0.00000086,0.00000134,0.00000089,-0.00000075,-0.00
 000016,0.00000036,-0.00000013,0.00000013,-0.00000106,-0.00000148,0.000
 00123,-0.00000035,-0.00000161,-0.00000042,0.00000035,-0.00000227,0.000
 00240,0.00000446,0.00000551,-0.00000017,-0.00000038,-0.00002397,-0.000
 00497,-0.00000283,-0.00001325,-0.00000124,-0.00001210,0.00023131,-0.00
 003477,0.00026332,-0.00277605,0.00215350,-0.00238939,-0.00002975,0.001
 09134,0.00010150,-0.00005041,0.00012701,0.00049912,0.00006671,0.000027
 14,-0.00007785,-0.00078468,0.00410113,0.00686096,-0.00630828,0.1307656
 5,0.24507004,-0.00005533,0.00000817,0.00000076,0.00007610,-0.00000901,
 0.00004583,-0.00001207,-0.00000683,-0.00002966,-0.00006976,0.00003585,
 -0.00010553,0.00003870,-0.00001460,0.00006051,-0.00017662,-0.00003880,
 0.00006264,0.00031185,-0.00000755,0.00012614,-0.00021713,-0.00003797,-
 0.00005190,0.00007663,-0.00010726,-0.00026027,0.00053895,-0.00026932,-
 0.00017858,0.00025051,0.00115946,0.00161473,0.00019307,0.00005168,-0.0
 0022933,-0.01232720,0.03165835,0.03666403,-0.04295584,-0.00282542,0.00
 709572,0.00000680,-0.00000061,0.00000668,0.00000565,-0.00000356,-0.000
 00429,0.00000656,0.00000153,-0.00000438,-0.00000113,-0.00000240,0.0000
 0749,0.00000386,0.00000169,0.00000673,0.00002164,0.00001588,-0.0000071
 2,0.00002577,-0.00000309,-0.00001631,0.00000711,0.00000116,0.00000948,
 0.00000958,-0.00000288,0.00001415,0.00002647,-0.00001347,0.00004768,-0
 .00006947,0.00000852,-0.00003928,-0.00045747,-0.00033681,-0.00148140,-
 0.00004002,-0.00025766,0.00000971,0.00005777,-0.00007511,0.00001080,0.
 00002465,0.00022798,-0.00013265,0.00155532,-0.00083008,0.00003948,-0.0
 0664465,-0.00013998,0.00136828,0.05978967,0.00003809,-0.00000130,-0.00
 000206,-0.00005251,0.00000081,-0.00002794,0.00000825,0.00001274,0.0000
 1651,0.00004727,-0.00001983,0.00006002,-0.00003250,0.00000162,-0.00003
 209,0.00013556,0.00004507,-0.00004639,-0.00025295,-0.00002135,-0.00008
 396,0.00017928,0.00007444,-0.00000583,-0.00012570,-0.00006140,0.000197
 01,-0.00060779,0.00008077,0.00013072,-0.00011084,-0.00037982,-0.000506
 43,0.00039236,-0.00023491,0.00023691,-0.00468365,-0.00160010,0.0005471
 5,0.03377791,-0.23624584,-0.25776852,-0.00000444,0.00000103,-0.0000042
 5,-0.00000346,0.00000129,0.00000209,-0.00000524,-0.00000260,0.00000410
 ,-0.00000104,-0.00000056,-0.00000339,-0.00000236,-0.00000235,-0.000005
 24,-0.00001873,-0.00001776,0.00000708,-0.00001863,0.00000099,0.0000109
 2,-0.00002424,-0.00001686,-0.00000351,-0.00000309,-0.00000493,-0.00000
 866,0.00002446,-0.00000664,-0.00000983,0.00002210,0.00003784,-0.000019
 32,0.00051735,0.00005887,0.00034699,-0.00027287,0.00015860,0.00010196,
 -0.00003141,0.00006366,0.00001869,-0.00005857,-0.00073709,-0.00009671,
 -0.00072361,0.00183256,0.00133433,0.00007886,0.00194027,0.00107479,-0.
 02818788,0.23504281,-0.00000643,-0.00000114,0.00000120,0.00000503,0.00
 000138,-0.00000319,0.00000150,-0.00000344,-0.00000105,-0.00001932,-0.0
 0000543,0.00003114,0.00001772,0.00000345,-0.00002229,-0.00000568,0.000
 00063,-0.00001255,-0.00004823,0.00000455,-0.00002679,0.00002811,0.0000
 0683,-0.00006958,-0.00017869,0.00011547,0.00020142,-0.00028501,0.00013
 822,-0.00057054,-0.00095188,0.00119218,0.00343077,-0.00028781,0.000009
 91,-0.00049666,-0.00130092,-0.00927769,-0.01201123,0.04522218,-0.24718
 946,-0.27849805,-0.00000032,-0.00000006,0.00000003,0.00000032,-0.00000
 034,-0.00000019,0.00000101,0.00000137,-0.00000098,0.00000218,0.0000021
 9,-0.00000036,0.00000074,-0.00000040,0.00000059,-0.00000125,0.00000210
 ,0.00000091,-0.00000048,-0.00000180,-0.00000078,0.00000801,0.00000605,
 0.00000280,0.00001295,0.00000240,-0.00000249,-0.00004312,0.00001473,-0
 .00004902,-0.00000818,-0.00003739,-0.00002236,0.00014634,-0.00082543,-
 0.00011595,0.00007925,-0.00009503,-0.00007477,-0.00000756,0.00009755,-
 0.00004177,0.00011310,0.00014823,0.00021551,-0.00173839,0.00019100,0.0
 0046610,0.00389498,0.00096450,0.00047526,-0.04465016,0.25453486,0.2871
 9489\\0.00000150,-0.00000051,-0.00000112,-0.00000252,-0.00000037,0.000
 00149,0.00000092,-0.00000016,0.00000016,0.00000071,0.00000004,0.000001
 96,0.00000215,0.00000117,-0.00000420,0.00000006,-0.00000081,-0.0000028
 2,-0.00000638,-0.00000075,-0.00000139,-0.00000033,-0.00000076,0.000001
 62,0.00000678,0.00000035,-0.00000036,-0.00000248,-0.00000115,0.0000001
 8,0.00000406,0.00000086,-0.00000186,0.00000377,0.00000156,-0.00000012,
 -0.00000506,0.00000324,0.00000057,0.00000657,-0.00000221,0.00000178,0.
 00000047,-0.00000027,0.00000047,-0.00000020,-0.00000007,0.00000076,0.0
 0000005,0.,0.00000079,-0.00000207,0.00000014,-0.00000011,-0.00000148,0
 .00000002,-0.00000014,0.00000083,0.00000041,0.00000102,0.00000055,-0.0
 0000017,0.00000219,-0.00000030,0.00000055,0.00000021,-0.00000021,-0.00
 000011,-0.00000074,-0.00000133,-0.00000020,-0.00000052,-0.00000054,0.0
 0000034,0.00000175,-0.00000326,-0.00000029,-0.00000016,-0.00000116,-0.
 00000032,-0.00000030,-0.00000103,-0.00000225,0.00000118,-0.00000104,-0
 .00000125,0.00000116,0.00000142,0.00000239,-0.00000232,-0.00000041,0.0
 0000128,0.00000172,-0.00000003,-0.00000070,-0.00000283\\\@


 In the beginning the Universe was created.
 This has made a lot of people very angry
 and been widely regarded as a bad move.
                               -D.Adams
 Job cpu time:       0 days  5 hours 54 minutes 52.1 seconds.
 Elapsed time:       0 days  1 hours 28 minutes 58.2 seconds.
 File lengths (MBytes):  RWF=    580 Int=      0 D2E=      0 Chk=     20 Scr=      1
 Normal termination of Gaussian 16 at Mon May 22 12:24:21 2023.
### All Done ###
