### Starting Gaussian ###
 Entering Gaussian System, Link 0=g16
 Initial command:
 /cluster/software/gaussian/gaussian-16-A.03/avx2/g16/l1.exe "/local/scratch/cz9n3/Gau-27873.inp" -scrdir="/local/scratch/cz9n3/"
 Entering Link 1 = /cluster/software/gaussian/gaussian-16-A.03/avx2/g16/l1.exe PID=     27874.
  
 Copyright (c) 1988,1990,1992,1993,1995,1998,2003,2009,2016,
            Gaussian, Inc.  All Rights Reserved.
  
 This is part of the Gaussian(R) 16 program.  It is based on
 the Gaussian(R) 09 system (copyright 2009, Gaussian, Inc.),
 the Gaussian(R) 03 system (copyright 2003, Gaussian, Inc.),
 the Gaussian(R) 98 system (copyright 1998, Gaussian, Inc.),
 the Gaussian(R) 94 system (copyright 1995, Gaussian, Inc.),
 the Gaussian 92(TM) system (copyright 1992, Gaussian, Inc.),
 the Gaussian 90(TM) system (copyright 1990, Gaussian, Inc.),
 the Gaussian 88(TM) system (copyright 1988, Gaussian, Inc.),
 the Gaussian 86(TM) system (copyright 1986, Carnegie Mellon
 University), and the Gaussian 82(TM) system (copyright 1983,
 Carnegie Mellon University). Gaussian is a federally registered
 trademark of Gaussian, Inc.
  
 This software contains proprietary and confidential information,
 including trade secrets, belonging to Gaussian, Inc.
  
 This software is provided under written license and may be
 used, copied, transmitted, or stored only in accord with that
 written license.
  
 The following legend is applicable only to US Government
 contracts under FAR:
  
                    RESTRICTED RIGHTS LEGEND
  
 Use, reproduction and disclosure by the US Government is
 subject to restrictions as set forth in subparagraphs (a)
 and (c) of the Commercial Computer Software - Restricted
 Rights clause in FAR 52.227-19.
  
 Gaussian, Inc.
 340 Quinnipiac St., Bldg. 40, Wallingford CT 06492
  
  
 ---------------------------------------------------------------
 Warning -- This program may not be used in any manner that
 competes with the business of Gaussian, Inc. or will provide
 assistance to any competitor of Gaussian, Inc.  The licensee
 of this program is prohibited from giving any competitor of
 Gaussian, Inc. access to this program.  By using this program,
 the user acknowledges that Gaussian, Inc. is engaged in the
 business of creating and licensing software in the field of
 computational chemistry and represents and warrants to the
 licensee that it is not a competitor of Gaussian, Inc. and that
 it will not use this program in any manner prohibited above.
 ---------------------------------------------------------------
  

 Cite this work as:
 Gaussian 16, Revision A.03,
 M. J. Frisch, G. W. Trucks, H. B. Schlegel, G. E. Scuseria, 
 M. A. Robb, J. R. Cheeseman, G. Scalmani, V. Barone, 
 G. A. Petersson, H. Nakatsuji, X. Li, M. Caricato, A. V. Marenich, 
 J. Bloino, B. G. Janesko, R. Gomperts, B. Mennucci, H. P. Hratchian, 
 J. V. Ortiz, A. F. Izmaylov, J. L. Sonnenberg, D. Williams-Young, 
 F. Ding, F. Lipparini, F. Egidi, J. Goings, B. Peng, A. Petrone, 
 T. Henderson, D. Ranasinghe, V. G. Zakrzewski, J. Gao, N. Rega, 
 G. Zheng, W. Liang, M. Hada, M. Ehara, K. Toyota, R. Fukuda, 
 J. Hasegawa, M. Ishida, T. Nakajima, Y. Honda, O. Kitao, H. Nakai, 
 T. Vreven, K. Throssell, J. A. Montgomery, Jr., J. E. Peralta, 
 F. Ogliaro, M. J. Bearpark, J. J. Heyd, E. N. Brothers, K. N. Kudin, 
 V. N. Staroverov, T. A. Keith, R. Kobayashi, J. Normand, 
 K. Raghavachari, A. P. Rendell, J. C. Burant, S. S. Iyengar, 
 J. Tomasi, M. Cossi, J. M. Millam, M. Klene, C. Adamo, R. Cammi, 
 J. W. Ochterski, R. L. Martin, K. Morokuma, O. Farkas, 
 J. B. Foresman, and D. J. Fox, Gaussian, Inc., Wallingford CT, 2016.
 
 ******************************************
 Gaussian 16:  ES64L-G16RevA.03 25-Dec-2016
                24-May-2023 
 ******************************************
 %chk=COCCqCrOCCCOCNqCrCCCO.chk
 %NProcShared=20
 Will use up to   20 processors via shared memory.
 -----------------------------
 # opt freq b3lyp/6-31g(2df,p)
 -----------------------------
 1/18=20,19=15,26=3,38=1/1,3;
 2/9=110,12=2,17=6,18=5,40=1/2;
 3/5=1,6=6,7=104,11=2,25=1,30=1,71=1,74=-5/1,2,3;
 4//1;
 5/5=2,38=5/2;
 6/7=2,8=2,9=2,10=2,28=1/1;
 7//1,2,3,16;
 1/18=20,19=15,26=3/3(2);
 2/9=110/2;
 99//99;
 2/9=110/2;
 3/5=1,6=6,7=104,11=2,25=1,30=1,71=1,74=-5/1,2,3;
 4/5=5,16=3,69=1/1;
 5/5=2,38=5/2;
 7//1,2,3,16;
 1/18=20,19=15,26=3/3(-5);
 2/9=110/2;
 6/7=2,8=2,9=2,10=2,19=2,28=1/1;
 99/9=1/99;
 -------------------
 Title Card Required
 -------------------
 Symbolic Z-matrix:
 Charge =  0 Multiplicity = 1
 C                     0.87993  -0.04878   0.02988 
 O                     2.29817  -0.04913  -0.00436 
 C                     2.81434  -1.30293  -0.45397 
 C                     4.34601  -1.27742  -0.39079 
 C                     4.80599  -1.0049    1.04507 
 O                     4.83804  -2.53917  -0.87047 
 C                     6.25718  -2.5632   -0.95119 
 C                     6.74426  -3.89766  -1.4737 
 C                     8.26242  -3.88759  -1.44715 
 O                     8.74104  -5.14005  -1.90045 
 C                     10.16244  -5.16006  -1.93611 
 N                     10.63859  -6.43184  -2.47586 
 C                     10.09335  -6.62232  -3.82338 
 C                     12.10843  -6.44788  -2.46558 
 C                     12.68074  -7.78476  -2.93679 
 C                     14.19923  -7.77605  -2.91296 
 O                     14.68897  -9.01952  -3.40118 
 H                     0.54768   0.92061   0.41037 
 H                     0.51161  -0.8318    0.69951 
 H                     0.47867  -0.18935  -0.9774 
 H                     2.48331  -1.49185  -1.48228 
 H                     2.42962  -2.11809   0.17216 
 H                     4.70986  -0.47507  -1.04599 
 H                     4.51488  -1.83255   1.70067 
 H                     4.38975  -0.07289   1.43485 
 H                     5.89346  -0.91083   1.11318 
 H                     6.68485  -2.43468   0.04621 
 H                     6.6056   -1.74916  -1.59743 
 H                     6.36761  -4.0889   -2.4855 
 H                     6.3547   -4.71905  -0.85936 
 H                     8.62289  -3.71183  -0.42618 
 H                     8.64082  -3.08736  -2.09495 
 H                     10.53079  -5.02501  -0.91128 
 H                     10.52409  -4.31953  -2.54468 
 H                     8.99831  -6.60125  -3.81958 
 H                     10.35013  -7.60693  -4.22303 
 H                     10.45263  -5.85624  -4.51962 
 H                     12.45834  -6.27547  -1.43813 
 H                     12.50972  -5.63058  -3.07902 
 H                     12.37104  -8.0126   -3.96197 
 H                     12.29847  -8.60259  -2.31318 
 H                     14.58534  -7.62129  -1.90149 
 H                     14.58802  -6.98386  -3.55947 
 H                     14.29428  -9.72118  -2.86193 
 

 GradGradGradGradGradGradGradGradGradGradGradGradGradGradGradGradGradGrad
 Berny optimization.
 Initialization pass.
                           ----------------------------
                           !    Initial Parameters    !
                           ! (Angstroms and Degrees)  !
 --------------------------                            --------------------------
 ! Name  Definition              Value          Derivative Info.                !
 --------------------------------------------------------------------------------
 ! R1    R(1,2)                  1.4187         estimate D2E/DX2                !
 ! R2    R(1,18)                 1.0931         estimate D2E/DX2                !
 ! R3    R(1,19)                 1.0942         estimate D2E/DX2                !
 ! R4    R(1,20)                 1.0933         estimate D2E/DX2                !
 ! R5    R(2,3)                  1.4285         estimate D2E/DX2                !
 ! R6    R(3,4)                  1.5332         estimate D2E/DX2                !
 ! R7    R(3,21)                 1.0967         estimate D2E/DX2                !
 ! R8    R(3,22)                 1.0975         estimate D2E/DX2                !
 ! R9    R(4,5)                  1.5322         estimate D2E/DX2                !
 ! R10   R(4,6)                  1.4367         estimate D2E/DX2                !
 ! R11   R(4,23)                 1.0979         estimate D2E/DX2                !
 ! R12   R(5,24)                 1.0952         estimate D2E/DX2                !
 ! R13   R(5,25)                 1.0926         estimate D2E/DX2                !
 ! R14   R(5,26)                 1.0937         estimate D2E/DX2                !
 ! R15   R(6,7)                  1.4216         estimate D2E/DX2                !
 ! R16   R(7,8)                  1.5136         estimate D2E/DX2                !
 ! R17   R(7,27)                 1.0928         estimate D2E/DX2                !
 ! R18   R(7,28)                 1.0962         estimate D2E/DX2                !
 ! R19   R(8,9)                  1.5184         estimate D2E/DX2                !
 ! R20   R(8,29)                 1.0964         estimate D2E/DX2                !
 ! R21   R(8,30)                 1.0972         estimate D2E/DX2                !
 ! R22   R(9,10)                 1.4153         estimate D2E/DX2                !
 ! R23   R(9,31)                 1.0969         estimate D2E/DX2                !
 ! R24   R(9,32)                 1.0969         estimate D2E/DX2                !
 ! R25   R(10,11)                1.422          estimate D2E/DX2                !
 ! R26   R(11,12)                1.4613         estimate D2E/DX2                !
 ! R27   R(11,33)                1.0974         estimate D2E/DX2                !
 ! R28   R(11,34)                1.0989         estimate D2E/DX2                !
 ! R29   R(12,13)                1.4661         estimate D2E/DX2                !
 ! R30   R(12,14)                1.47           estimate D2E/DX2                !
 ! R31   R(13,35)                1.0952         estimate D2E/DX2                !
 ! R32   R(13,36)                1.0932         estimate D2E/DX2                !
 ! R33   R(13,37)                1.0958         estimate D2E/DX2                !
 ! R34   R(14,15)                1.5287         estimate D2E/DX2                !
 ! R35   R(14,38)                1.099          estimate D2E/DX2                !
 ! R36   R(14,39)                1.0979         estimate D2E/DX2                !
 ! R37   R(15,16)                1.5187         estimate D2E/DX2                !
 ! R38   R(15,40)                1.0949         estimate D2E/DX2                !
 ! R39   R(15,41)                1.0972         estimate D2E/DX2                !
 ! R40   R(16,17)                1.4228         estimate D2E/DX2                !
 ! R41   R(16,42)                1.0937         estimate D2E/DX2                !
 ! R42   R(16,43)                1.0939         estimate D2E/DX2                !
 ! R43   R(17,44)                0.969          estimate D2E/DX2                !
 ! A1    A(2,1,18)             108.2089         estimate D2E/DX2                !
 ! A2    A(2,1,19)             110.5558         estimate D2E/DX2                !
 ! A3    A(2,1,20)             110.1593         estimate D2E/DX2                !
 ! A4    A(18,1,19)            108.6204         estimate D2E/DX2                !
 ! A5    A(18,1,20)            108.8536         estimate D2E/DX2                !
 ! A6    A(19,1,20)            110.3823         estimate D2E/DX2                !
 ! A7    A(1,2,3)              111.6568         estimate D2E/DX2                !
 ! A8    A(2,3,4)              109.4757         estimate D2E/DX2                !
 ! A9    A(2,3,21)             109.7096         estimate D2E/DX2                !
 ! A10   A(2,3,22)             110.2233         estimate D2E/DX2                !
 ! A11   A(4,3,21)             110.0632         estimate D2E/DX2                !
 ! A12   A(4,3,22)             109.8184         estimate D2E/DX2                !
 ! A13   A(21,3,22)            107.5284         estimate D2E/DX2                !
 ! A14   A(3,4,5)              109.968          estimate D2E/DX2                !
 ! A15   A(3,4,6)              108.2857         estimate D2E/DX2                !
 ! A16   A(3,4,23)             108.5806         estimate D2E/DX2                !
 ! A17   A(5,4,6)              111.4859         estimate D2E/DX2                !
 ! A18   A(5,4,23)             109.2553         estimate D2E/DX2                !
 ! A19   A(6,4,23)             109.2112         estimate D2E/DX2                !
 ! A20   A(4,5,24)             110.2891         estimate D2E/DX2                !
 ! A21   A(4,5,25)             111.8183         estimate D2E/DX2                !
 ! A22   A(4,5,26)             111.8501         estimate D2E/DX2                !
 ! A23   A(24,5,25)            109.2565         estimate D2E/DX2                !
 ! A24   A(24,5,26)            106.9785         estimate D2E/DX2                !
 ! A25   A(25,5,26)            106.4521         estimate D2E/DX2                !
 ! A26   A(4,6,7)              112.0654         estimate D2E/DX2                !
 ! A27   A(6,7,8)              110.8385         estimate D2E/DX2                !
 ! A28   A(6,7,27)             109.6852         estimate D2E/DX2                !
 ! A29   A(6,7,28)             109.7674         estimate D2E/DX2                !
 ! A30   A(8,7,27)             107.0267         estimate D2E/DX2                !
 ! A31   A(8,7,28)             110.4206         estimate D2E/DX2                !
 ! A32   A(27,7,28)            109.0464         estimate D2E/DX2                !
 ! A33   A(7,8,9)              108.0507         estimate D2E/DX2                !
 ! A34   A(7,8,29)             111.21           estimate D2E/DX2                !
 ! A35   A(7,8,30)             110.6386         estimate D2E/DX2                !
 ! A36   A(9,8,29)             111.1465         estimate D2E/DX2                !
 ! A37   A(9,8,30)             110.4972         estimate D2E/DX2                !
 ! A38   A(29,8,30)            105.3166         estimate D2E/DX2                !
 ! A39   A(8,9,10)             109.0647         estimate D2E/DX2                !
 ! A40   A(8,9,31)             110.2369         estimate D2E/DX2                !
 ! A41   A(8,9,32)             109.8417         estimate D2E/DX2                !
 ! A42   A(10,9,31)            109.1938         estimate D2E/DX2                !
 ! A43   A(10,9,32)            109.863          estimate D2E/DX2                !
 ! A44   A(31,9,32)            108.6282         estimate D2E/DX2                !
 ! A45   A(9,10,11)            111.0086         estimate D2E/DX2                !
 ! A46   A(10,11,12)           110.3167         estimate D2E/DX2                !
 ! A47   A(10,11,33)           108.0821         estimate D2E/DX2                !
 ! A48   A(10,11,34)           109.3952         estimate D2E/DX2                !
 ! A49   A(12,11,33)           110.04           estimate D2E/DX2                !
 ! A50   A(12,11,34)           110.7249         estimate D2E/DX2                !
 ! A51   A(33,11,34)           108.2152         estimate D2E/DX2                !
 ! A52   A(11,12,13)           109.3526         estimate D2E/DX2                !
 ! A53   A(11,12,14)           109.434          estimate D2E/DX2                !
 ! A54   A(13,12,14)           112.1408         estimate D2E/DX2                !
 ! A55   A(12,13,35)           111.4781         estimate D2E/DX2                !
 ! A56   A(12,13,36)           111.4491         estimate D2E/DX2                !
 ! A57   A(12,13,37)           111.7917         estimate D2E/DX2                !
 ! A58   A(35,13,36)           104.6809         estimate D2E/DX2                !
 ! A59   A(35,13,37)           108.4557         estimate D2E/DX2                !
 ! A60   A(36,13,37)           108.6857         estimate D2E/DX2                !
 ! A61   A(12,14,15)           112.4415         estimate D2E/DX2                !
 ! A62   A(12,14,38)           108.8558         estimate D2E/DX2                !
 ! A63   A(12,14,39)           110.6988         estimate D2E/DX2                !
 ! A64   A(15,14,38)           107.8289         estimate D2E/DX2                !
 ! A65   A(15,14,39)           109.9965         estimate D2E/DX2                !
 ! A66   A(38,14,39)           106.8107         estimate D2E/DX2                !
 ! A67   A(14,15,16)           111.3756         estimate D2E/DX2                !
 ! A68   A(14,15,40)           111.3895         estimate D2E/DX2                !
 ! A69   A(14,15,41)           110.2566         estimate D2E/DX2                !
 ! A70   A(16,15,40)           107.3796         estimate D2E/DX2                !
 ! A71   A(16,15,41)           110.1031         estimate D2E/DX2                !
 ! A72   A(40,15,41)           106.1715         estimate D2E/DX2                !
 ! A73   A(15,16,17)           109.4971         estimate D2E/DX2                !
 ! A74   A(15,16,42)           111.6118         estimate D2E/DX2                !
 ! A75   A(15,16,43)           110.5017         estimate D2E/DX2                !
 ! A76   A(17,16,42)           108.6325         estimate D2E/DX2                !
 ! A77   A(17,16,43)           107.9242         estimate D2E/DX2                !
 ! A78   A(42,16,43)           108.5802         estimate D2E/DX2                !
 ! A79   A(16,17,44)           107.5589         estimate D2E/DX2                !
 ! D1    D(18,1,2,3)           178.2039         estimate D2E/DX2                !
 ! D2    D(19,1,2,3)            59.3653         estimate D2E/DX2                !
 ! D3    D(20,1,2,3)           -62.9046         estimate D2E/DX2                !
 ! D4    D(1,2,3,4)           -176.588          estimate D2E/DX2                !
 ! D5    D(1,2,3,21)            62.5341         estimate D2E/DX2                !
 ! D6    D(1,2,3,22)           -55.6893         estimate D2E/DX2                !
 ! D7    D(2,3,4,5)             58.9944         estimate D2E/DX2                !
 ! D8    D(2,3,4,6)           -178.9672         estimate D2E/DX2                !
 ! D9    D(2,3,4,23)           -60.4978         estimate D2E/DX2                !
 ! D10   D(21,3,4,5)           179.6576         estimate D2E/DX2                !
 ! D11   D(21,3,4,6)           -58.304          estimate D2E/DX2                !
 ! D12   D(21,3,4,23)           60.1653         estimate D2E/DX2                !
 ! D13   D(22,3,4,5)           -62.1495         estimate D2E/DX2                !
 ! D14   D(22,3,4,6)            59.8889         estimate D2E/DX2                !
 ! D15   D(22,3,4,23)          178.3583         estimate D2E/DX2                !
 ! D16   D(3,4,5,24)            65.0511         estimate D2E/DX2                !
 ! D17   D(3,4,5,25)           -56.7351         estimate D2E/DX2                !
 ! D18   D(3,4,5,26)          -176.0237         estimate D2E/DX2                !
 ! D19   D(6,4,5,24)           -55.0664         estimate D2E/DX2                !
 ! D20   D(6,4,5,25)          -176.8526         estimate D2E/DX2                !
 ! D21   D(6,4,5,26)            63.8588         estimate D2E/DX2                !
 ! D22   D(23,4,5,24)         -175.869          estimate D2E/DX2                !
 ! D23   D(23,4,5,25)           62.3448         estimate D2E/DX2                !
 ! D24   D(23,4,5,26)          -56.9438         estimate D2E/DX2                !
 ! D25   D(3,4,6,7)            175.1209         estimate D2E/DX2                !
 ! D26   D(5,4,6,7)            -63.7754         estimate D2E/DX2                !
 ! D27   D(23,4,6,7)            57.053          estimate D2E/DX2                !
 ! D28   D(4,6,7,8)           -179.3576         estimate D2E/DX2                !
 ! D29   D(4,6,7,27)            62.6772         estimate D2E/DX2                !
 ! D30   D(4,6,7,28)           -57.1154         estimate D2E/DX2                !
 ! D31   D(6,7,8,9)           -176.2998         estimate D2E/DX2                !
 ! D32   D(6,7,8,29)            61.4599         estimate D2E/DX2                !
 ! D33   D(6,7,8,30)           -55.216          estimate D2E/DX2                !
 ! D34   D(27,7,8,9)           -56.7278         estimate D2E/DX2                !
 ! D35   D(27,7,8,29)         -178.9681         estimate D2E/DX2                !
 ! D36   D(27,7,8,30)           64.356          estimate D2E/DX2                !
 ! D37   D(28,7,8,9)            61.8397         estimate D2E/DX2                !
 ! D38   D(28,7,8,29)          -60.4006         estimate D2E/DX2                !
 ! D39   D(28,7,8,30)         -177.0765         estimate D2E/DX2                !
 ! D40   D(7,8,9,10)           178.5357         estimate D2E/DX2                !
 ! D41   D(7,8,9,31)            58.659          estimate D2E/DX2                !
 ! D42   D(7,8,9,32)           -61.0078         estimate D2E/DX2                !
 ! D43   D(29,8,9,10)          -59.1851         estimate D2E/DX2                !
 ! D44   D(29,8,9,31)         -179.0617         estimate D2E/DX2                !
 ! D45   D(29,8,9,32)           61.2714         estimate D2E/DX2                !
 ! D46   D(30,8,9,10)           57.364          estimate D2E/DX2                !
 ! D47   D(30,8,9,31)          -62.5127         estimate D2E/DX2                !
 ! D48   D(30,8,9,32)          177.8205         estimate D2E/DX2                !
 ! D49   D(8,9,10,11)          177.9867         estimate D2E/DX2                !
 ! D50   D(31,9,10,11)         -61.4943         estimate D2E/DX2                !
 ! D51   D(32,9,10,11)          57.5433         estimate D2E/DX2                !
 ! D52   D(9,10,11,12)        -176.8598         estimate D2E/DX2                !
 ! D53   D(9,10,11,33)          62.7903         estimate D2E/DX2                !
 ! D54   D(9,10,11,34)         -54.8267         estimate D2E/DX2                !
 ! D55   D(10,11,12,13)         58.5285         estimate D2E/DX2                !
 ! D56   D(10,11,12,14)       -178.2753         estimate D2E/DX2                !
 ! D57   D(33,11,12,13)        177.6951         estimate D2E/DX2                !
 ! D58   D(33,11,12,14)        -59.1087         estimate D2E/DX2                !
 ! D59   D(34,11,12,13)        -62.7165         estimate D2E/DX2                !
 ! D60   D(34,11,12,14)         60.4797         estimate D2E/DX2                !
 ! D61   D(11,12,13,35)        -58.0099         estimate D2E/DX2                !
 ! D62   D(11,12,13,36)       -174.5741         estimate D2E/DX2                !
 ! D63   D(11,12,13,37)         63.57           estimate D2E/DX2                !
 ! D64   D(14,12,13,35)       -179.5859         estimate D2E/DX2                !
 ! D65   D(14,12,13,36)         63.8498         estimate D2E/DX2                !
 ! D66   D(14,12,13,37)        -58.006          estimate D2E/DX2                !
 ! D67   D(11,12,14,15)        176.4449         estimate D2E/DX2                !
 ! D68   D(11,12,14,38)         57.0321         estimate D2E/DX2                !
 ! D69   D(11,12,14,39)        -60.0804         estimate D2E/DX2                !
 ! D70   D(13,12,14,15)        -62.0257         estimate D2E/DX2                !
 ! D71   D(13,12,14,38)        178.5615         estimate D2E/DX2                !
 ! D72   D(13,12,14,39)         61.449          estimate D2E/DX2                !
 ! D73   D(12,14,15,16)       -179.8405         estimate D2E/DX2                !
 ! D74   D(12,14,15,40)         60.3049         estimate D2E/DX2                !
 ! D75   D(12,14,15,41)        -57.3009         estimate D2E/DX2                !
 ! D76   D(38,14,15,16)        -59.831          estimate D2E/DX2                !
 ! D77   D(38,14,15,40)       -179.6856         estimate D2E/DX2                !
 ! D78   D(38,14,15,41)         62.7085         estimate D2E/DX2                !
 ! D79   D(39,14,15,16)         56.2939         estimate D2E/DX2                !
 ! D80   D(39,14,15,40)        -63.5607         estimate D2E/DX2                !
 ! D81   D(39,14,15,41)        178.8334         estimate D2E/DX2                !
 ! D82   D(14,15,16,17)       -178.015          estimate D2E/DX2                !
 ! D83   D(14,15,16,42)         61.6651         estimate D2E/DX2                !
 ! D84   D(14,15,16,43)        -59.2678         estimate D2E/DX2                !
 ! D85   D(40,15,16,17)        -55.8142         estimate D2E/DX2                !
 ! D86   D(40,15,16,42)       -176.1341         estimate D2E/DX2                !
 ! D87   D(40,15,16,43)         62.933          estimate D2E/DX2                !
 ! D88   D(41,15,16,17)         59.3571         estimate D2E/DX2                !
 ! D89   D(41,15,16,42)        -60.9627         estimate D2E/DX2                !
 ! D90   D(41,15,16,43)        178.1044         estimate D2E/DX2                !
 ! D91   D(15,16,17,44)        -55.9371         estimate D2E/DX2                !
 ! D92   D(42,16,17,44)         66.184          estimate D2E/DX2                !
 ! D93   D(43,16,17,44)       -176.2695         estimate D2E/DX2                !
 --------------------------------------------------------------------------------
 Trust Radius=3.00D-01 FncErr=1.00D-07 GrdErr=1.00D-06 EigMax=2.50D+02 EigMin=1.00D-04
 Number of steps in this run=    225 maximum allowed number of steps=    264.
 GradGradGradGradGradGradGradGradGradGradGradGradGradGradGradGradGradGrad

                          Input orientation:                          
 ---------------------------------------------------------------------
 Center     Atomic      Atomic             Coordinates (Angstroms)
 Number     Number       Type             X           Y           Z
 ---------------------------------------------------------------------
      1          6           0        0.879930   -0.048780    0.029880
      2          8           0        2.298170   -0.049130   -0.004360
      3          6           0        2.814340   -1.302930   -0.453970
      4          6           0        4.346010   -1.277420   -0.390790
      5          6           0        4.805990   -1.004900    1.045070
      6          8           0        4.838040   -2.539170   -0.870470
      7          6           0        6.257180   -2.563200   -0.951190
      8          6           0        6.744260   -3.897660   -1.473700
      9          6           0        8.262420   -3.887590   -1.447150
     10          8           0        8.741040   -5.140050   -1.900450
     11          6           0       10.162440   -5.160060   -1.936110
     12          7           0       10.638590   -6.431840   -2.475860
     13          6           0       10.093350   -6.622320   -3.823380
     14          6           0       12.108430   -6.447880   -2.465580
     15          6           0       12.680740   -7.784760   -2.936790
     16          6           0       14.199230   -7.776050   -2.912960
     17          8           0       14.688970   -9.019520   -3.401180
     18          1           0        0.547680    0.920610    0.410370
     19          1           0        0.511610   -0.831800    0.699510
     20          1           0        0.478670   -0.189350   -0.977400
     21          1           0        2.483310   -1.491850   -1.482280
     22          1           0        2.429620   -2.118090    0.172160
     23          1           0        4.709860   -0.475070   -1.045990
     24          1           0        4.514880   -1.832550    1.700670
     25          1           0        4.389750   -0.072890    1.434850
     26          1           0        5.893460   -0.910830    1.113180
     27          1           0        6.684850   -2.434680    0.046210
     28          1           0        6.605600   -1.749160   -1.597430
     29          1           0        6.367610   -4.088900   -2.485500
     30          1           0        6.354700   -4.719050   -0.859360
     31          1           0        8.622890   -3.711830   -0.426180
     32          1           0        8.640820   -3.087360   -2.094950
     33          1           0       10.530790   -5.025010   -0.911280
     34          1           0       10.524090   -4.319530   -2.544680
     35          1           0        8.998310   -6.601250   -3.819580
     36          1           0       10.350130   -7.606930   -4.223030
     37          1           0       10.452630   -5.856240   -4.519620
     38          1           0       12.458340   -6.275470   -1.438130
     39          1           0       12.509720   -5.630580   -3.079020
     40          1           0       12.371040   -8.012600   -3.961970
     41          1           0       12.298470   -8.602590   -2.313180
     42          1           0       14.585340   -7.621290   -1.901490
     43          1           0       14.588020   -6.983860   -3.559470
     44          1           0       14.294280   -9.721180   -2.861930
 ---------------------------------------------------------------------
                    Distance matrix (angstroms):
                    1          2          3          4          5
     1  C    0.000000
     2  O    1.418653   0.000000
     3  C    2.355620   1.428494   0.000000
     4  C    3.701382   2.419023   1.533185   0.000000
     5  C    4.166380   2.881659   2.510500   1.532169   0.000000
     6  O    4.762280   3.660790   2.407722   1.436732   2.454446
     7  C    6.016612   4.784433   3.699818   2.370622   2.918785
     8  C    7.173911   6.061176   4.818376   3.713483   4.297575
     9  C    8.450990   7.237935   6.111338   4.823604   5.144703
    10  O    9.562649   8.427526   7.207050   6.042787   6.423408
    11  C   10.777536   9.576012   8.430229   7.161967   7.405697
    12  N   11.927013  10.789342   9.571449   8.397150   8.710215
    13  C   11.956009  10.888369   9.624595   8.566361   9.122137
    14  C   13.162637  11.968409  10.811901   9.554767   9.760959
    15  C   14.418933  13.275424  12.063348  10.876365  11.128046
    16  C   15.677205  14.484491  13.325301  12.069775  12.237133
    17  O   16.820700  15.669659  14.465084  13.265722  13.478745
    18  H    1.093106   2.043676   3.290739   4.460998   4.716316
    19  H    1.094159   2.073596   2.618214   4.011229   4.311737
    20  H    1.093335   2.068103   2.639961   4.060089   4.845741
    21  H    2.634370   2.073636   1.096674   2.169558   3.466909
    22  H    2.589175   2.080633   1.097513   2.167069   2.765556
    23  H    4.000948   2.661328   2.151473   1.097925   2.159281
    24  H    4.380210   3.316854   2.795498   2.170459   1.095245
    25  H    3.780656   2.539015   2.750010   2.187640   1.092624
    26  H    5.201168   3.862322   3.477166   2.188816   1.093654
    27  H    6.276136   4.993633   4.063482   2.645825   2.563612
    28  H    6.190535   4.897135   3.985006   2.604662   3.282579
    29  H    7.263907   6.247891   4.951209   4.047110   4.941117
    30  H    7.250881   6.244567   4.936433   4.012382   4.451996
    31  H    8.577841   7.320887   6.288309   4.921312   4.905178
    32  H    8.601121   7.336935   6.310695   4.962402   5.376085
    33  H   10.898979   9.662190   8.579430   7.250300   7.263740
    34  H   10.857140   9.610167   8.538805   7.215424   7.521286
    35  H   11.120310  10.118204   8.811414   7.857714   8.518186
    36  H   12.841245  11.821657  10.523039   9.528810  10.103325
    37  H   12.085575  10.982045   9.777812   8.677767   9.294397
    38  H   13.228239  12.002169  10.895020   9.585788   9.617882
    39  H   13.269279  12.036689  10.937085   9.634456   9.886986
    40  H   14.539701  13.436601  12.192467  11.068744  11.463346
    41  H   14.458238  13.360327  12.111582  10.981590  11.186599
    42  H   15.776925  14.557172  13.437761  12.139637  12.169409
    43  H   15.776264  14.552309  13.436392  12.145071  12.354670
    44  H   16.788766  15.672298  14.437944  13.280500  13.463500
                    6          7          8          9         10
     6  O    0.000000
     7  C    1.421637   0.000000
     8  C    2.417241   1.513621   0.000000
     9  C    3.725208   2.453767   1.518426   0.000000
    10  O    4.801963   3.702811   2.390142   1.415349   0.000000
    11  C    6.029419   4.792161   3.673068   2.338448   1.421988
    12  N    7.167743   6.040509   4.753125   3.630101   2.366541
    13  C    7.280802   6.280297   4.915402   4.059251   2.779123
    14  C    8.407197   7.184792   6.021774   4.731181   3.656379
    15  C    9.658873   8.512897   7.245134   6.076883   4.856926
    16  C   10.919183   9.700438   8.525840   7.246684   6.145365
    17  O   12.059861  10.898697   9.647126   8.453135   7.258123
    18  H    5.658429   6.825626   8.072363   9.278275  10.450007
    19  H    4.908966   6.223675   7.277930   8.603549   9.645949
    20  H    4.953503   6.247162   7.297636   8.630435   9.676167
    21  H    2.648763   3.958780   4.893229   6.256110   7.255578
    22  H    2.657983   4.013758   4.948923   6.306731   7.298080
    23  H    2.075511   2.600668   4.004478   4.942358   6.224352
    24  H    2.685983   3.256044   4.394478   5.308109   6.462821
    25  H    3.405584   3.922005   5.350911   6.152677   7.465525
    26  H    2.774936   2.669128   4.041901   4.585669   5.922582
    27  H    2.064444   1.092806   2.110442   2.613388   3.916175
    28  H    2.068056   1.096213   2.156522   2.709339   4.018714
    29  H    2.711009   2.166579   1.096438   2.170023   2.660896
    30  H    2.655609   2.160007   1.097202   2.162457   2.637371
    31  H    3.987181   2.681710   2.158954   1.096909   2.056026
    32  H    4.032493   2.695305   2.153945   1.096904   2.064318
    33  H    6.211962   4.932124   3.990619   2.593527   2.048145
    34  H    6.189008   4.881642   3.951213   2.550744   2.065806
    35  H    6.519631   5.661034   4.230046   3.678846   2.425769
    36  H    8.203962   7.272990   5.858310   5.088962   3.750873
    37  H    7.472809   6.417134   5.183211   4.255899   3.209754
    38  H    8.505948   7.243787   6.189181   4.827815   3.914235
    39  H    8.560910   7.282221   6.230617   4.872430   3.979019
    40  H    9.811315   8.725826   7.401680   6.341986   5.067377
    41  H    9.721342   8.650227   7.327369   6.266652   4.981449
    42  H   11.040870   9.790076   8.690855   7.357055   6.349204
    43  H   11.047538   9.785104   8.683296   7.352687   6.351312
    44  H   12.040251  10.930809   9.635526   8.509742   7.262897
                   11         12         13         14         15
    11  C    0.000000
    12  N    1.461326   0.000000
    13  C    2.388465   1.466076   0.000000
    14  C    2.392843   1.469963   2.436103   0.000000
    15  C    3.772565   2.492634   2.971851   1.528668   0.000000
    16  C    4.908494   3.830942   4.360987   2.517068   1.518702
    17  O    6.126282   4.894679   5.200437   3.761365   2.402765
    18  H   11.615684  12.814652  12.881780  14.007736  15.303532
    19  H   10.900406  11.999964  12.074618  13.268172  14.479436
    20  H   10.927144  12.018238  11.913219  13.290417  14.505860
    21  H    8.522368   9.586412   9.471810  10.870697  12.070787
    22  H    8.572916   9.644047   9.746034  10.926304  12.118671
    23  H    7.243761   8.525109   8.630443   9.613976  10.979145
    24  H    7.496227   8.723342   9.196540   9.814322  11.118278
    25  H    8.400394   9.735394  10.152589  10.743923  12.137738
    26  H    6.751171   8.116589   8.638855   9.060480  10.474748
    27  H    4.842615   6.161995   6.642886   7.199311   8.571601
    28  H    4.939641   6.242126   6.392726   7.287852   8.667738
    29  H    3.981199   4.871420   4.699923   6.206625   7.329301
    30  H    3.981553   4.888603   5.136668   6.218859   7.330285
    31  H    2.597590   3.957612   4.708946   4.877921   6.273601
    32  H    2.576168   3.914297   4.194432   4.843014   6.252617
    33  H    1.097359   2.106823   3.350086   2.632367   4.042424
    34  H    1.098926   2.116530   2.668980   2.654480   4.100330
    35  H    2.641910   2.127158   1.095249   3.395539   3.967405
    36  H    3.354460   2.125241   1.093212   2.742927   2.667917
    37  H    2.691357   2.131397   1.095770   2.703848   3.344998
    38  H    2.600631   2.100673   3.376818   1.099007   2.138551
    39  H    2.652801   2.122957   2.715965   1.097871   2.165634
    40  H    4.137512   2.776456   2.672070   2.180939   1.094906
    41  H    4.068884   2.737485   3.326369   2.168436   1.097208
    42  H    5.061709   4.161914   4.986941   2.798244   2.173953
    43  H    5.054434   4.132425   4.516904   2.762650   2.160298
    44  H    6.223589   4.932837   5.308025   3.955948   2.521674
                   16         17         18         19         20
    16  C    0.000000
    17  O    1.422822   0.000000
    18  H   16.523959  17.700570   0.000000
    19  H   15.767799  16.877558   1.776469   0.000000
    20  H   15.797410  16.905006   1.778392   1.796066   0.000000
    21  H   13.371641  14.468107   3.626121   3.013880   2.443357
    22  H   13.418427  14.515170   3.582198   2.368840   2.974514
    23  H   12.117674  13.346804   4.625219   4.560628   4.241381
    24  H   12.263662  13.460814   4.998344   4.246174   5.114993
    25  H   13.208634  14.474229   4.098549   4.019532   4.596636
    26  H   11.503341  12.786371   5.694337   5.398303   5.849018
    27  H    9.682604  10.922937   7.003959   6.411312   6.678769
    28  H    9.783519  11.020550   6.917899   6.576792   6.352694
    29  H    8.666722   9.715684   8.206878   7.419281   7.222221
    30  H    8.665978   9.716735   8.193867   7.189053   7.420232
    31  H    7.334680   8.591829   9.347103   8.680704   8.890446
    32  H    7.317710   8.571865   9.372266   8.887104   8.733159
    33  H    5.003239   6.280619  11.694428  10.980056  11.154958
    34  H    5.058638   6.337959  11.649899  11.087776  10.973842
    35  H    5.408483   6.197314  12.078245  11.213064  11.035158
    36  H    4.069454   4.636419  13.794033  12.920149  12.767158
    37  H    4.506000   5.404056  12.974534  12.300740  12.005867
    38  H    2.730854   4.044637  14.037961  13.301406  13.444911
    39  H    2.735884   4.042008  14.077796  13.463292  13.370488
    40  H    2.121004   2.588662  15.450289  14.626666  14.544393
    41  H    2.157729   2.659335  15.368478  14.435773  14.569646
    42  H    1.093665   2.053012  16.594115  15.840841  15.971406
    43  H    1.093937   2.044299  16.594319  15.941520  15.871553
    44  H    1.948119   0.968967  17.689676  16.782935  16.890184
                   21         22         23         24         25
    21  H    0.000000
    22  H    1.769811   0.000000
    23  H    2.486306   3.063152   0.000000
    24  H    3.791375   2.601189   3.070002   0.000000
    25  H    3.762660   3.101506   2.533532   1.784018   0.000000
    26  H    4.324710   3.786975   2.500562   1.759317   1.751216
    27  H    4.569261   4.268849   2.988906   2.794382   3.574053
    28  H    4.131918   4.550425   2.349728   3.905833   4.112736
    29  H    4.779007   5.143444   4.228486   5.103699   5.950581
    30  H    5.078436   4.820299   4.555403   4.274409   5.541771
    31  H    6.613479   6.422975   5.115915   4.993088   5.884283
    32  H    6.390301   6.682685   4.834958   5.744968   6.294292
    33  H    8.807451   8.674848   7.389406   7.294193   8.230443
    34  H    8.589448   8.817483   7.129601   7.766510   8.455811
    35  H    8.603149   8.898337   7.975819   8.562406   9.563856
    36  H   10.334059  10.591484   9.631701  10.123430  11.148968
    37  H    9.580365  10.017747   8.602471   9.494154  10.279171
    38  H   11.062829  10.975066   9.686968   9.627573  10.574883
    39  H   10.963921  11.158682   9.568193  10.059221  10.825750
    40  H   12.101085  12.274694  11.136022  11.488157  12.484617
    41  H   12.148678  12.067305  11.191486  11.069269  12.220940
    42  H   13.572211  13.503583  12.219879  12.161383  13.117148
    43  H   13.453657  13.617176  12.093799  12.476907  13.293211
    44  H   14.461131  14.414674  13.440584  13.367291  14.479348
                   26         27         28         29         30
    26  H    0.000000
    27  H    2.021594   0.000000
    28  H    2.925294   1.782630   0.000000
    29  H    4.824463   3.040829   2.513900   0.000000
    30  H    4.313490   2.479396   3.070496   1.744015   0.000000
    31  H    4.202977   2.368599   3.048501   3.077218   2.519290
    32  H    4.751565   2.972604   2.486046   2.514577   3.068459
    33  H    6.521483   4.734749   5.158402   4.548246   4.187605
    34  H    6.814830   5.000513   4.781072   4.163294   4.514835
    35  H    8.145741   6.136508   5.848572   3.874565   4.392522
    36  H    9.652709   7.642830   7.431605   5.590708   5.968047
    37  H    8.773343   6.837400   6.340894   4.893723   5.611037
    38  H    8.853598   7.091412   7.400502   6.555537   6.325491
    39  H    9.144697   7.342340   7.219360   6.360390   6.606213
    40  H   10.869744   8.916920   8.835272   7.322333   7.527948
    41  H   10.579568   8.667327   8.938152   7.455078   7.247336
    42  H   11.387154   9.649466   9.912145   8.963812   8.789338
    43  H   11.589250   9.805920   9.745292   8.781193   8.955865
    44  H   12.806153  10.929492  11.147550   9.731206   9.595234
                   31         32         33         34         35
    31  H    0.000000
    32  H    1.781875   0.000000
    33  H    2.366399   2.954243   0.000000
    34  H    2.910653   2.295039   1.779253   0.000000
    35  H    4.472678   3.930594   3.645715   3.026487   0.000000
    36  H    5.707121   5.279865   4.203170   3.695148   1.732507
    37  H    4.970180   4.102240   3.703670   2.503392   1.777679
    38  H    4.723025   5.016863   2.357259   2.965043   4.212985
    39  H    5.081989   4.733365   2.996994   2.438667   3.717611
    40  H    6.711711   6.454324   4.649615   4.365627   3.658892
    41  H    6.402358   6.621464   4.229550   4.641834   4.143146
    42  H    7.280881   7.478721   4.915339   5.273430   5.994535
    43  H    7.490425   7.259251   5.226004   4.964270   5.608824
    44  H    8.614513   8.749711   6.326366   6.594907   6.220800
                   36         37         38         39         40
    36  H    0.000000
    37  H    1.778591   0.000000
    38  H    3.738048   3.700568   0.000000
    39  H    3.143016   2.521482   1.763815   0.000000
    40  H    2.077690   2.939585   3.065128   2.544180   0.000000
    41  H    2.904289   3.977178   2.491337   3.076358   1.752673
    42  H    4.829778   5.200894   2.559309   3.107684   3.049889
    43  H    4.334540   4.392592   3.088274   2.526169   2.476956
    44  H    4.677496   5.695961   4.155815   4.468198   2.797890
                   41         42         43         44
    41  H    0.000000
    42  H    2.522343   0.000000
    43  H    3.068479   1.776294   0.000000
    44  H    2.352791   2.327380   2.840029   0.000000
 Stoichiometry    C12H27NO4
 Framework group  C1[X(C12H27NO4)]
 Deg. of freedom   126
 Full point group                 C1      NOp   1
 Largest Abelian subgroup         C1      NOp   1
 Largest concise Abelian subgroup C1      NOp   1
                         Standard orientation:                         
 ---------------------------------------------------------------------
 Center     Atomic      Atomic             Coordinates (Angstroms)
 Number     Number       Type             X           Y           Z
 ---------------------------------------------------------------------
      1          6           0        8.274858   -0.653368   -0.157114
      2          8           0        7.126309    0.049344    0.289660
      3          6           0        5.920964   -0.564150   -0.170085
      4          6           0        4.718415    0.280095    0.267844
      5          6           0        4.837590    1.696607   -0.303850
      6          8           0        3.521015   -0.371489   -0.185886
      7          6           0        2.347810    0.287005    0.273490
      8          6           0        1.104584   -0.430456   -0.206806
      9          6           0       -0.104207    0.373044    0.239096
     10          8           0       -1.279506   -0.261874   -0.228628
     11          6           0       -2.441654    0.432848    0.205909
     12          7           0       -3.645997   -0.275672   -0.221913
     13          6           0       -3.630942   -1.634911    0.327288
     14          6           0       -4.834035    0.479616    0.201048
     15          6           0       -6.134944   -0.157208   -0.287742
     16          6           0       -7.345386    0.643858    0.158999
     17          8           0       -8.533001   -0.007254   -0.276945
     18          1           0        9.160843   -0.120421    0.197678
     19          1           0        8.302689   -0.688406   -1.250358
     20          1           0        8.282028   -1.665377    0.256611
     21          1           0        5.840317   -1.576708    0.243334
     22          1           0        5.934141   -0.653769   -1.263853
     23          1           0        4.708140    0.331927    1.364497
     24          1           0        4.775681    1.671400   -1.397053
     25          1           0        5.772919    2.177018   -0.006878
     26          1           0        4.030729    2.346288    0.046820
     27          1           0        2.310493    1.300021   -0.134716
     28          1           0        2.358440    0.342631    1.368240
     29          1           0        1.063263   -1.455240    0.180861
     30          1           0        1.115459   -0.533991   -1.299058
     31          1           0       -0.056146    1.389559   -0.170291
     32          1           0       -0.125582    0.436894    1.333932
     33          1           0       -2.421215    1.438532   -0.232701
     34          1           0       -2.418285    0.534656    1.299860
     35          1           0       -2.738156   -2.185162    0.011490
     36          1           0       -4.469093   -2.227403   -0.048969
     37          1           0       -3.667051   -1.631568    1.422458
     38          1           0       -4.777775    1.494042   -0.217989
     39          1           0       -4.856359    0.588059    1.293322
     40          1           0       -6.253224   -1.173452    0.102230
     41          1           0       -6.125790   -0.248596   -1.381100
     42          1           0       -7.331644    1.657367   -0.251749
     43          1           0       -7.379194    0.710494    1.250381
     44          1           0       -8.470504   -0.116796   -1.237670
 ---------------------------------------------------------------------
 Rotational constants (GHZ):           2.8026528           0.0758323           0.0746239
 Standard basis: 6-31G(2df,p) (6D, 7F)
 There are   662 symmetry adapted cartesian basis functions of A   symmetry.
 There are   611 symmetry adapted basis functions of A   symmetry.
   611 basis functions,   937 primitive gaussians,   662 cartesian basis functions
    69 alpha electrons       69 beta electrons
       nuclear repulsion energy      1203.1408396986 Hartrees.
 NAtoms=   44 NActive=   44 NUniq=   44 SFac= 1.00D+00 NAtFMM=   60 NAOKFM=F Big=F
 Integral buffers will be    131072 words long.
 Raffenetti 2 integral format.
 Two-electron integral symmetry is turned on.
 One-electron integrals computed using PRISM.
 PrsmSu:  requested number of processors reduced to:  12 ShMem   1 Linda.
 NBasis=   611 RedAO= T EigKep=  3.26D-04  NBF=   611
 NBsUse=   611 1.00D-06 EigRej= -1.00D+00 NBFU=   611
 ExpMin= 1.61D-01 ExpMax= 5.48D+03 ExpMxC= 8.25D+02 IAcc=3 IRadAn=         5 AccDes= 0.00D+00
 Harris functional with IExCor=  402 and IRadAn=       5 diagonalized for initial guess.
 HarFok:  IExCor=  402 AccDes= 0.00D+00 IRadAn=         5 IDoV= 1 UseB2=F ITyADJ=14
 ICtDFT=  3500011 ScaDFX=  1.000000  1.000000  1.000000  1.000000
 FoFCou: FMM=F IPFlag=           0 FMFlag=      100000 FMFlg1=           0
         NFxFlg=           0 DoJE=T BraDBF=F KetDBF=T FulRan=T
         wScrn=  0.000000 ICntrl=       500 IOpCl=  0 I1Cent=   200000004 NGrid=           0
         NMat0=    1 NMatS0=      1 NMatT0=    0 NMatD0=    1 NMtDS0=    0 NMtDT0=    0
 Petite list used in FoFCou.
 Requested convergence on RMS density matrix=1.00D-08 within 128 cycles.
 Requested convergence on MAX density matrix=1.00D-06.
 Requested convergence on             energy=1.00D-06.
 No special actions if energy rises.
 Integral accuracy reduced to 1.0D-05 until final iterations.
 Initial convergence to 1.0D-05 achieved.  Increase integral accuracy.
 SCF Done:  E(RB3LYP) =  -829.177922575     A.U. after   12 cycles
            NFock= 12  Conv=0.43D-08     -V/T= 2.0074

 **********************************************************************

            Population analysis using the SCF density.

 **********************************************************************

 Orbital symmetries:
       Occupied  (A) (A) (A) (A) (A) (A) (A) (A) (A) (A) (A) (A)
                 (A) (A) (A) (A) (A) (A) (A) (A) (A) (A) (A) (A)
                 (A) (A) (A) (A) (A) (A) (A) (A) (A) (A) (A) (A)
                 (A) (A) (A) (A) (A) (A) (A) (A) (A) (A) (A) (A)
                 (A) (A) (A) (A) (A) (A) (A) (A) (A) (A) (A) (A)
                 (A) (A) (A) (A) (A) (A) (A) (A) (A)
       Virtual   (A) (A) (A) (A) (A) (A) (A) (A) (A) (A) (A) (A)
                 (A) (A) (A) (A) (A) (A) (A) (A) (A) (A) (A) (A)
                 (A) (A) (A) (A) (A) (A) (A) (A) (A) (A) (A) (A)
                 (A) (A) (A) (A) (A) (A) (A) (A) (A) (A) (A) (A)
                 (A) (A) (A) (A) (A) (A) (A) (A) (A) (A) (A) (A)
                 (A) (A) (A) (A) (A) (A) (A) (A) (A) (A) (A) (A)
                 (A) (A) (A) (A) (A) (A) (A) (A) (A) (A) (A) (A)
                 (A) (A) (A) (A) (A) (A) (A) (A) (A) (A) (A) (A)
                 (A) (A) (A) (A) (A) (A) (A) (A) (A) (A) (A) (A)
                 (A) (A) (A) (A) (A) (A) (A) (A) (A) (A) (A) (A)
                 (A) (A) (A) (A) (A) (A) (A) (A) (A) (A) (A) (A)
                 (A) (A) (A) (A) (A) (A) (A) (A) (A) (A) (A) (A)
                 (A) (A) (A) (A) (A) (A) (A) (A) (A) (A) (A) (A)
                 (A) (A) (A) (A) (A) (A) (A) (A) (A) (A) (A) (A)
                 (A) (A) (A) (A) (A) (A) (A) (A) (A) (A) (A) (A)
                 (A) (A) (A) (A) (A) (A) (A) (A) (A) (A) (A) (A)
                 (A) (A) (A) (A) (A) (A) (A) (A) (A) (A) (A) (A)
                 (A) (A) (A) (A) (A) (A) (A) (A) (A) (A) (A) (A)
                 (A) (A) (A) (A) (A) (A) (A) (A) (A) (A) (A) (A)
                 (A) (A) (A) (A) (A) (A) (A) (A) (A) (A) (A) (A)
                 (A) (A) (A) (A) (A) (A) (A) (A) (A) (A) (A) (A)
                 (A) (A) (A) (A) (A) (A) (A) (A) (A) (A) (A) (A)
                 (A) (A) (A) (A) (A) (A) (A) (A) (A) (A) (A) (A)
                 (A) (A) (A) (A) (A) (A) (A) (A) (A) (A) (A) (A)
                 (A) (A) (A) (A) (A) (A) (A) (A) (A) (A) (A) (A)
                 (A) (A) (A) (A) (A) (A) (A) (A) (A) (A) (A) (A)
                 (A) (A) (A) (A) (A) (A) (A) (A) (A) (A) (A) (A)
                 (A) (A) (A) (A) (A) (A) (A) (A) (A) (A) (A) (A)
                 (A) (A) (A) (A) (A) (A) (A) (A) (A) (A) (A) (A)
                 (A) (A) (A) (A) (A) (A) (A) (A) (A) (A) (A) (A)
                 (A) (A) (A) (A) (A) (A) (A) (A) (A) (A) (A) (A)
                 (A) (A) (A) (A) (A) (A) (A) (A) (A) (A) (A) (A)
                 (A) (A) (A) (A) (A) (A) (A) (A) (A) (A) (A) (A)
                 (A) (A) (A) (A) (A) (A) (A) (A) (A) (A) (A) (A)
                 (A) (A) (A) (A) (A) (A) (A) (A) (A) (A) (A) (A)
                 (A) (A) (A) (A) (A) (A) (A) (A) (A) (A) (A) (A)
                 (A) (A) (A) (A) (A) (A) (A) (A) (A) (A) (A) (A)
                 (A) (A) (A) (A) (A) (A) (A) (A) (A) (A) (A) (A)
                 (A) (A) (A) (A) (A) (A) (A) (A) (A) (A) (A) (A)
                 (A) (A) (A) (A) (A) (A) (A) (A) (A) (A) (A) (A)
                 (A) (A) (A) (A) (A) (A) (A) (A) (A) (A) (A) (A)
                 (A) (A) (A) (A) (A) (A) (A) (A) (A) (A) (A) (A)
                 (A) (A) (A) (A) (A) (A) (A) (A) (A) (A) (A) (A)
                 (A) (A) (A) (A) (A) (A) (A) (A) (A) (A) (A) (A)
                 (A) (A) (A) (A) (A) (A) (A) (A) (A) (A) (A) (A)
                 (A) (A)
 The electronic state is 1-A.
 Alpha  occ. eigenvalues --  -19.13998 -19.13997 -19.13757 -19.12880 -14.32283
 Alpha  occ. eigenvalues --  -10.24893 -10.23200 -10.22986 -10.22548 -10.22449
 Alpha  occ. eigenvalues --  -10.22394 -10.22390 -10.20962 -10.19226 -10.18026
 Alpha  occ. eigenvalues --  -10.17965 -10.16845  -1.03671  -1.03010  -1.02116
 Alpha  occ. eigenvalues --   -1.00971  -0.91504  -0.79660  -0.77457  -0.76026
 Alpha  occ. eigenvalues --   -0.70054  -0.69984  -0.68546  -0.65915  -0.63632
 Alpha  occ. eigenvalues --   -0.60787  -0.59562  -0.57887  -0.57733  -0.50961
 Alpha  occ. eigenvalues --   -0.50398  -0.50155  -0.48902  -0.48379  -0.48123
 Alpha  occ. eigenvalues --   -0.47333  -0.46298  -0.46104  -0.44977  -0.43822
 Alpha  occ. eigenvalues --   -0.42672  -0.42013  -0.41233  -0.40953  -0.40124
 Alpha  occ. eigenvalues --   -0.39039  -0.38659  -0.37628  -0.37228  -0.36259
 Alpha  occ. eigenvalues --   -0.35897  -0.35245  -0.34528  -0.34030  -0.33530
 Alpha  occ. eigenvalues --   -0.32384  -0.31974  -0.31561  -0.30508  -0.26252
 Alpha  occ. eigenvalues --   -0.26041  -0.25550  -0.25072  -0.21952
 Alpha virt. eigenvalues --    0.07539   0.07917   0.08309   0.09110   0.10173
 Alpha virt. eigenvalues --    0.10673   0.11548   0.12100   0.12294   0.13063
 Alpha virt. eigenvalues --    0.13159   0.13881   0.14737   0.14881   0.15613
 Alpha virt. eigenvalues --    0.16270   0.16362   0.16686   0.16928   0.17554
 Alpha virt. eigenvalues --    0.17893   0.18090   0.18640   0.19369   0.19564
 Alpha virt. eigenvalues --    0.19865   0.20288   0.20964   0.21041   0.21583
 Alpha virt. eigenvalues --    0.22108   0.22356   0.22729   0.23697   0.24356
 Alpha virt. eigenvalues --    0.25027   0.25820   0.25860   0.26622   0.28304
 Alpha virt. eigenvalues --    0.30112   0.31314   0.33694   0.39028   0.41310
 Alpha virt. eigenvalues --    0.42849   0.44945   0.46260   0.46406   0.47688
 Alpha virt. eigenvalues --    0.47807   0.48270   0.48819   0.49376   0.49746
 Alpha virt. eigenvalues --    0.50588   0.51526   0.52211   0.52488   0.52855
 Alpha virt. eigenvalues --    0.53924   0.55225   0.56126   0.56626   0.58675
 Alpha virt. eigenvalues --    0.59014   0.59285   0.60082   0.60342   0.61528
 Alpha virt. eigenvalues --    0.61569   0.64948   0.66178   0.66944   0.67764
 Alpha virt. eigenvalues --    0.68434   0.69255   0.69539   0.69829   0.70698
 Alpha virt. eigenvalues --    0.70763   0.71194   0.71510   0.72077   0.72131
 Alpha virt. eigenvalues --    0.72694   0.73039   0.73506   0.73898   0.74037
 Alpha virt. eigenvalues --    0.74885   0.74941   0.75833   0.76412   0.76535
 Alpha virt. eigenvalues --    0.76884   0.77320   0.77444   0.78759   0.79199
 Alpha virt. eigenvalues --    0.79814   0.80558   0.80775   0.81623   0.81695
 Alpha virt. eigenvalues --    0.81892   0.83340   0.84499   0.85781   0.86562
 Alpha virt. eigenvalues --    0.87292   0.88033   0.88168   0.88353   0.88768
 Alpha virt. eigenvalues --    0.89704   0.90709   0.91515   0.91914   0.92783
 Alpha virt. eigenvalues --    0.95758   0.96156   0.97045   0.97606   0.98011
 Alpha virt. eigenvalues --    0.99355   1.00025   1.01966   1.03219   1.06325
 Alpha virt. eigenvalues --    1.06997   1.07633   1.08003   1.12217   1.12939
 Alpha virt. eigenvalues --    1.14463   1.15237   1.16575   1.17516   1.18337
 Alpha virt. eigenvalues --    1.19224   1.19473   1.19796   1.21495   1.22359
 Alpha virt. eigenvalues --    1.23675   1.24510   1.25931   1.26457   1.28033
 Alpha virt. eigenvalues --    1.29698   1.31061   1.32751   1.34579   1.34981
 Alpha virt. eigenvalues --    1.35755   1.36919   1.37411   1.38700   1.39327
 Alpha virt. eigenvalues --    1.39403   1.40632   1.41436   1.41889   1.43082
 Alpha virt. eigenvalues --    1.43540   1.45328   1.45552   1.46735   1.47305
 Alpha virt. eigenvalues --    1.47874   1.48580   1.50178   1.50800   1.52452
 Alpha virt. eigenvalues --    1.53524   1.56273   1.56439   1.58427   1.58972
 Alpha virt. eigenvalues --    1.60451   1.60737   1.61300   1.61951   1.63903
 Alpha virt. eigenvalues --    1.65527   1.66087   1.67069   1.68197   1.70015
 Alpha virt. eigenvalues --    1.71692   1.71882   1.72146   1.73164   1.74349
 Alpha virt. eigenvalues --    1.75144   1.75835   1.77593   1.79341   1.80173
 Alpha virt. eigenvalues --    1.80989   1.81951   1.84500   1.84723   1.85419
 Alpha virt. eigenvalues --    1.86226   1.89137   1.89302   1.91869   1.93186
 Alpha virt. eigenvalues --    1.93488   1.93971   1.94448   1.95439   1.96391
 Alpha virt. eigenvalues --    1.97320   1.98942   2.01165   2.01366   2.01437
 Alpha virt. eigenvalues --    2.05489   2.12853   2.13571   2.15299   2.16380
 Alpha virt. eigenvalues --    2.16744   2.17181   2.18104   2.20984   2.22038
 Alpha virt. eigenvalues --    2.22644   2.25026   2.28308   2.29384   2.30530
 Alpha virt. eigenvalues --    2.31262   2.31720   2.34154   2.34792   2.35510
 Alpha virt. eigenvalues --    2.37470   2.38873   2.39314   2.41368   2.41513
 Alpha virt. eigenvalues --    2.43298   2.45318   2.47787   2.48403   2.50572
 Alpha virt. eigenvalues --    2.53010   2.54908   2.55762   2.56274   2.58649
 Alpha virt. eigenvalues --    2.60608   2.62852   2.65324   2.66277   2.67892
 Alpha virt. eigenvalues --    2.70268   2.71511   2.72200   2.73627   2.73824
 Alpha virt. eigenvalues --    2.74506   2.74800   2.76324   2.76427   2.77327
 Alpha virt. eigenvalues --    2.77810   2.79177   2.79776   2.80198   2.80855
 Alpha virt. eigenvalues --    2.81352   2.81838   2.82785   2.83183   2.83807
 Alpha virt. eigenvalues --    2.84337   2.86227   2.87049   2.87473   2.88504
 Alpha virt. eigenvalues --    2.88724   2.90359   2.90916   2.91857   2.92617
 Alpha virt. eigenvalues --    2.92924   2.93799   2.94175   2.94469   2.95004
 Alpha virt. eigenvalues --    2.95753   2.96294   2.98050   2.98595   2.99484
 Alpha virt. eigenvalues --    3.00481   3.01321   3.02569   3.05094   3.06409
 Alpha virt. eigenvalues --    3.07871   3.09236   3.09455   3.13565   3.14499
 Alpha virt. eigenvalues --    3.15143   3.17012   3.18307   3.19898   3.22399
 Alpha virt. eigenvalues --    3.25332   3.25783   3.26870   3.28334   3.28857
 Alpha virt. eigenvalues --    3.30760   3.32495   3.32894   3.33618   3.35600
 Alpha virt. eigenvalues --    3.36466   3.38726   3.39183   3.39723   3.41030
 Alpha virt. eigenvalues --    3.42270   3.42443   3.43968   3.45338   3.46115
 Alpha virt. eigenvalues --    3.46762   3.47709   3.49197   3.49749   3.52208
 Alpha virt. eigenvalues --    3.52823   3.53409   3.54783   3.55814   3.57385
 Alpha virt. eigenvalues --    3.58416   3.59672   3.60705   3.61801   3.62544
 Alpha virt. eigenvalues --    3.63511   3.64597   3.65060   3.65449   3.67923
 Alpha virt. eigenvalues --    3.68778   3.69003   3.70308   3.71054   3.71863
 Alpha virt. eigenvalues --    3.72620   3.73795   3.74999   3.77326   3.79529
 Alpha virt. eigenvalues --    3.80145   3.80845   3.81729   3.83485   3.86329
 Alpha virt. eigenvalues --    3.87583   3.88425   3.94634   3.95659   3.96272
 Alpha virt. eigenvalues --    3.97850   4.00754   4.02815   4.05937   4.08993
 Alpha virt. eigenvalues --    4.10041   4.12991   4.18767   4.22813   4.25565
 Alpha virt. eigenvalues --    4.27807   4.29517   4.30238   4.31602   4.32922
 Alpha virt. eigenvalues --    4.33743   4.34960   4.36187   4.37716   4.39047
 Alpha virt. eigenvalues --    4.39508   4.40114   4.40686   4.40959   4.41410
 Alpha virt. eigenvalues --    4.42466   4.42890   4.44145   4.44345   4.45277
 Alpha virt. eigenvalues --    4.46084   4.46899   4.48022   4.49614   4.50518
 Alpha virt. eigenvalues --    4.51309   4.52401   4.52683   4.53629   4.54346
 Alpha virt. eigenvalues --    4.54834   4.55350   4.57260   4.57294   4.57506
 Alpha virt. eigenvalues --    4.58306   4.58843   4.60007   4.60752   4.61330
 Alpha virt. eigenvalues --    4.62936   4.63445   4.64202   4.64640   4.65333
 Alpha virt. eigenvalues --    4.65433   4.66491   4.66976   4.67540   4.68938
 Alpha virt. eigenvalues --    4.69728   4.70616   4.71029   4.71685   4.72283
 Alpha virt. eigenvalues --    4.72790   4.73677   4.74300   4.75096   4.77625
 Alpha virt. eigenvalues --    4.78492   4.78667   4.79214   4.80157   4.81273
 Alpha virt. eigenvalues --    4.81610   4.82225   4.83386   4.85550   4.86556
 Alpha virt. eigenvalues --    4.87467   4.87721   4.89012   4.91582   4.91866
 Alpha virt. eigenvalues --    4.92556   4.93745   4.94274   4.95609   4.96428
 Alpha virt. eigenvalues --    4.98947   4.99290   5.01731   5.01916   5.02772
 Alpha virt. eigenvalues --    5.04704   5.08116   5.12825   5.21798   5.22995
 Alpha virt. eigenvalues --    5.26542   5.27351   5.30266   5.31361   5.34758
 Alpha virt. eigenvalues --    5.35596   5.36968   5.38916   5.40324   5.40986
 Alpha virt. eigenvalues --    5.41381   5.42719   5.43948   5.45332   5.45931
 Alpha virt. eigenvalues --    5.49519   5.51501   5.52308   5.55233   5.58391
 Alpha virt. eigenvalues --    5.59299   5.60936   5.63742   5.66876   5.68156
 Alpha virt. eigenvalues --    5.79185   5.83604   5.84783   5.87897   5.88246
 Alpha virt. eigenvalues --    5.90455   5.96122   6.01030   6.02131   6.03099
 Alpha virt. eigenvalues --    6.04220   6.04361   6.08563   6.11883   6.14558
 Alpha virt. eigenvalues --    6.21315   6.25400   6.27025   6.37466   6.40467
 Alpha virt. eigenvalues --    7.02482   7.04184   7.07747   7.14233  11.06938
 Alpha virt. eigenvalues --   11.14529  11.23664  11.33434  11.33893  11.55855
 Alpha virt. eigenvalues --   11.72145  11.84098  11.91962  11.93743  12.15595
 Alpha virt. eigenvalues --   12.21306  12.33431  13.15880  13.36635  13.44144
 Alpha virt. eigenvalues --   13.57473  15.95976
          Condensed to atoms (all electrons):
               1          2          3          4          5          6
     1  C    4.811095   0.368977  -0.080721   0.003792   0.000674  -0.000032
     2  O    0.368977   7.709356   0.331003  -0.029501   0.000330   0.000381
     3  C   -0.080721   0.331003   4.823533   0.425832  -0.035261  -0.023497
     4  C    0.003792  -0.029501   0.425832   4.628548   0.345351   0.343872
     5  C    0.000674   0.000330  -0.035261   0.345351   5.108879  -0.038085
     6  O   -0.000032   0.000381  -0.023497   0.343872  -0.038085   7.745767
     7  C    0.000001  -0.000033   0.002593  -0.068164  -0.004984   0.364732
     8  C   -0.000000   0.000000  -0.000217   0.002276   0.000635  -0.025405
     9  C    0.000000   0.000000   0.000001  -0.000270   0.000041   0.001290
    10  O   -0.000000   0.000000  -0.000000   0.000000   0.000000  -0.000002
    11  C    0.000000   0.000000   0.000000  -0.000000   0.000000   0.000000
    12  N    0.000000   0.000000  -0.000000  -0.000000   0.000000  -0.000000
    13  C   -0.000000   0.000000  -0.000000   0.000000   0.000000  -0.000000
    14  C    0.000000   0.000000   0.000000   0.000000   0.000000   0.000000
    15  C    0.000000   0.000000  -0.000000   0.000000   0.000000  -0.000000
    16  C    0.000000   0.000000   0.000000   0.000000   0.000000   0.000000
    17  O    0.000000   0.000000   0.000000   0.000000   0.000000   0.000000
    18  H    0.384344  -0.019524   0.005240  -0.000248   0.000029   0.000000
    19  H    0.369770  -0.032705  -0.006385   0.000535  -0.000150   0.000005
    20  H    0.371968  -0.032976  -0.006853  -0.000173   0.000039   0.000003
    21  H   -0.003523  -0.027909   0.345257  -0.028224   0.007639   0.004521
    22  H   -0.006091  -0.030916   0.338605  -0.019406  -0.012841   0.003664
    23  H   -0.000010   0.003027  -0.037636   0.348785  -0.069783  -0.033644
    24  H   -0.000069  -0.000106  -0.005598  -0.021430   0.362693   0.000911
    25  H   -0.000143   0.010732  -0.004232  -0.016279   0.360117   0.002244
    26  H   -0.000003   0.000242   0.003517  -0.024204   0.372094  -0.002336
    27  H    0.000000   0.000004   0.000137  -0.006583   0.006130  -0.033126
    28  H    0.000000   0.000003   0.000297  -0.005112  -0.003109  -0.032494
    29  H    0.000000   0.000000   0.000003   0.000059   0.000015   0.001934
    30  H    0.000000   0.000000   0.000013   0.000199  -0.000059   0.002088
    31  H    0.000000   0.000000   0.000000   0.000026  -0.000020  -0.000032
    32  H   -0.000000   0.000000   0.000000   0.000008   0.000001  -0.000026
    33  H   -0.000000  -0.000000   0.000000   0.000000  -0.000000   0.000000
    34  H   -0.000000  -0.000000   0.000000   0.000000   0.000000   0.000000
    35  H    0.000000  -0.000000   0.000000   0.000000  -0.000000   0.000000
    36  H    0.000000   0.000000   0.000000   0.000000  -0.000000  -0.000000
    37  H   -0.000000   0.000000  -0.000000   0.000000  -0.000000   0.000000
    38  H    0.000000   0.000000   0.000000   0.000000  -0.000000   0.000000
    39  H    0.000000   0.000000  -0.000000   0.000000   0.000000  -0.000000
    40  H    0.000000   0.000000  -0.000000   0.000000   0.000000   0.000000
    41  H    0.000000   0.000000  -0.000000   0.000000  -0.000000   0.000000
    42  H    0.000000   0.000000   0.000000   0.000000   0.000000   0.000000
    43  H    0.000000   0.000000   0.000000  -0.000000  -0.000000  -0.000000
    44  H    0.000000   0.000000   0.000000   0.000000   0.000000   0.000000
               7          8          9         10         11         12
     1  C    0.000001  -0.000000   0.000000  -0.000000   0.000000   0.000000
     2  O   -0.000033   0.000000   0.000000   0.000000   0.000000   0.000000
     3  C    0.002593  -0.000217   0.000001  -0.000000   0.000000  -0.000000
     4  C   -0.068164   0.002276  -0.000270   0.000000  -0.000000  -0.000000
     5  C   -0.004984   0.000635   0.000041   0.000000   0.000000   0.000000
     6  O    0.364732  -0.025405   0.001290  -0.000002   0.000000  -0.000000
     7  C    4.744136   0.388059  -0.045669   0.001523  -0.000305  -0.000000
     8  C    0.388059   4.935475   0.394981  -0.027852   0.002688  -0.000110
     9  C   -0.045669   0.394981   4.758279   0.357819  -0.073295   0.003123
    10  O    0.001523  -0.027852   0.357819   7.729905   0.349406  -0.028832
    11  C   -0.000305   0.002688  -0.073295   0.349406   4.761289   0.419276
    12  N   -0.000000  -0.000110   0.003123  -0.028832   0.419276   6.186411
    13  C    0.000000  -0.000001   0.000782  -0.002421  -0.072918   0.394259
    14  C    0.000000   0.000000  -0.000298   0.001525  -0.053260   0.374452
    15  C    0.000000  -0.000000  -0.000001  -0.000017   0.000518  -0.027759
    16  C    0.000000   0.000000  -0.000000  -0.000000  -0.000096   0.001325
    17  O    0.000000  -0.000000   0.000000  -0.000000   0.000000  -0.000025
    18  H   -0.000000   0.000000  -0.000000   0.000000  -0.000000   0.000000
    19  H    0.000000   0.000000   0.000000   0.000000   0.000000   0.000000
    20  H    0.000000   0.000000   0.000000   0.000000   0.000000   0.000000
    21  H    0.000138   0.000011   0.000000   0.000000   0.000000   0.000000
    22  H    0.000188   0.000017   0.000000   0.000000   0.000000   0.000000
    23  H   -0.005864   0.000074   0.000045   0.000000   0.000000   0.000000
    24  H    0.000500  -0.000121   0.000007   0.000000   0.000000   0.000000
    25  H    0.000085  -0.000008  -0.000001   0.000000  -0.000000  -0.000000
    26  H   -0.001356   0.000020  -0.000000  -0.000000  -0.000000  -0.000000
    27  H    0.354855  -0.038925   0.000037  -0.000003   0.000021   0.000000
    28  H    0.350864  -0.037113   0.000233  -0.000027   0.000015   0.000000
    29  H   -0.023593   0.357263  -0.023712   0.002238   0.000129   0.000000
    30  H   -0.022343   0.356790  -0.023428   0.002208   0.000209   0.000002
    31  H   -0.000444  -0.036392   0.351006  -0.031404  -0.005237  -0.000007
    32  H    0.000692  -0.035811   0.349776  -0.032078  -0.004597   0.000015
    33  H    0.000043  -0.000016  -0.005437  -0.023692   0.344233  -0.019223
    34  H    0.000051   0.000219  -0.004971  -0.045500   0.340040  -0.052901
    35  H    0.000004   0.000061  -0.000382   0.013077  -0.006034  -0.019116
    36  H   -0.000000  -0.000001  -0.000015   0.000344   0.003904  -0.023678
    37  H    0.000000   0.000004   0.000042  -0.001447  -0.001097  -0.046334
    38  H    0.000000   0.000000   0.000000   0.000149  -0.003463  -0.019957
    39  H    0.000000   0.000000   0.000039  -0.000199  -0.005428  -0.045035
    40  H   -0.000000  -0.000000   0.000000   0.000001   0.000206  -0.002660
    41  H   -0.000000   0.000000   0.000000  -0.000002   0.000267   0.003527
    42  H    0.000000   0.000000   0.000000  -0.000000   0.000016  -0.000037
    43  H   -0.000000  -0.000000   0.000000  -0.000000   0.000003  -0.000065
    44  H   -0.000000  -0.000000  -0.000000   0.000000  -0.000000  -0.000004
              13         14         15         16         17         18
     1  C   -0.000000   0.000000   0.000000   0.000000   0.000000   0.384344
     2  O    0.000000   0.000000   0.000000   0.000000   0.000000  -0.019524
     3  C   -0.000000   0.000000  -0.000000   0.000000   0.000000   0.005240
     4  C    0.000000   0.000000   0.000000   0.000000   0.000000  -0.000248
     5  C    0.000000   0.000000   0.000000   0.000000   0.000000   0.000029
     6  O   -0.000000   0.000000  -0.000000   0.000000   0.000000   0.000000
     7  C    0.000000   0.000000   0.000000   0.000000   0.000000  -0.000000
     8  C   -0.000001   0.000000  -0.000000   0.000000  -0.000000   0.000000
     9  C    0.000782  -0.000298  -0.000001  -0.000000   0.000000  -0.000000
    10  O   -0.002421   0.001525  -0.000017  -0.000000  -0.000000   0.000000
    11  C   -0.072918  -0.053260   0.000518  -0.000096   0.000000  -0.000000
    12  N    0.394259   0.374452  -0.027759   0.001325  -0.000025   0.000000
    13  C    4.985764  -0.075861  -0.000904   0.000101  -0.000002   0.000000
    14  C   -0.075861   4.933787   0.340492  -0.033060   0.003756   0.000000
    15  C   -0.000904   0.340492   4.990194   0.398638  -0.049663   0.000000
    16  C    0.000101  -0.033060   0.398638   4.735508   0.365509   0.000000
    17  O   -0.000002   0.003756  -0.049663   0.365509   7.839017   0.000000
    18  H    0.000000   0.000000   0.000000   0.000000   0.000000   0.574688
    19  H   -0.000000   0.000000   0.000000   0.000000   0.000000  -0.035559
    20  H    0.000000   0.000000   0.000000   0.000000   0.000000  -0.035811
    21  H   -0.000000   0.000000   0.000000   0.000000   0.000000  -0.000094
    22  H   -0.000000   0.000000   0.000000   0.000000   0.000000  -0.000043
    23  H    0.000000   0.000000   0.000000   0.000000   0.000000   0.000013
    24  H   -0.000000   0.000000   0.000000   0.000000   0.000000   0.000001
    25  H    0.000000  -0.000000  -0.000000   0.000000   0.000000  -0.000042
    26  H    0.000000   0.000000  -0.000000  -0.000000   0.000000  -0.000001
    27  H   -0.000000   0.000000   0.000000   0.000000   0.000000   0.000000
    28  H    0.000000   0.000000   0.000000  -0.000000   0.000000   0.000000
    29  H   -0.000021   0.000000   0.000000   0.000000   0.000000   0.000000
    30  H   -0.000002   0.000000   0.000000  -0.000000   0.000000   0.000000
    31  H    0.000041   0.000003   0.000000   0.000000   0.000000   0.000000
    32  H   -0.000152   0.000044   0.000000   0.000000   0.000000   0.000000
    33  H    0.007788  -0.004662   0.000209  -0.000010  -0.000000   0.000000
    34  H   -0.010785  -0.003148  -0.000293   0.000035  -0.000000   0.000000
    35  H    0.377041   0.004814   0.000254  -0.000008  -0.000000   0.000000
    36  H    0.380638  -0.003996   0.000432  -0.000077  -0.000004   0.000000
    37  H    0.347531  -0.005252  -0.001376   0.000072   0.000000   0.000000
    38  H    0.006173   0.354693  -0.025472  -0.004235  -0.000006   0.000000
    39  H   -0.008067   0.344589  -0.046798  -0.000561   0.000013   0.000000
    40  H    0.000483  -0.025439   0.358716  -0.028386   0.004910   0.000000
    41  H   -0.000071  -0.022845   0.355711  -0.034647  -0.001159   0.000000
    42  H   -0.000007   0.003843  -0.049436   0.362555  -0.030269   0.000000
    43  H    0.000014  -0.004388  -0.023978   0.358961  -0.015290   0.000000
    44  H   -0.000000  -0.000151  -0.001794  -0.067926   0.310074   0.000000
              19         20         21         22         23         24
     1  C    0.369770   0.371968  -0.003523  -0.006091  -0.000010  -0.000069
     2  O   -0.032705  -0.032976  -0.027909  -0.030916   0.003027  -0.000106
     3  C   -0.006385  -0.006853   0.345257   0.338605  -0.037636  -0.005598
     4  C    0.000535  -0.000173  -0.028224  -0.019406   0.348785  -0.021430
     5  C   -0.000150   0.000039   0.007639  -0.012841  -0.069783   0.362693
     6  O    0.000005   0.000003   0.004521   0.003664  -0.033644   0.000911
     7  C    0.000000   0.000000   0.000138   0.000188  -0.005864   0.000500
     8  C    0.000000   0.000000   0.000011   0.000017   0.000074  -0.000121
     9  C    0.000000   0.000000   0.000000   0.000000   0.000045   0.000007
    10  O    0.000000   0.000000   0.000000   0.000000   0.000000   0.000000
    11  C    0.000000   0.000000   0.000000   0.000000   0.000000   0.000000
    12  N    0.000000   0.000000   0.000000   0.000000   0.000000   0.000000
    13  C   -0.000000   0.000000  -0.000000  -0.000000   0.000000  -0.000000
    14  C    0.000000   0.000000   0.000000   0.000000   0.000000   0.000000
    15  C    0.000000   0.000000   0.000000   0.000000   0.000000   0.000000
    16  C    0.000000   0.000000   0.000000   0.000000   0.000000   0.000000
    17  O    0.000000   0.000000   0.000000   0.000000   0.000000   0.000000
    18  H   -0.035559  -0.035811  -0.000094  -0.000043   0.000013   0.000001
    19  H    0.633272  -0.048368  -0.002402   0.013927   0.000039   0.000023
    20  H   -0.048368   0.634725   0.012076  -0.002558  -0.000045  -0.000000
    21  H   -0.002402   0.012076   0.663093  -0.057295  -0.007269  -0.000081
    22  H    0.013927  -0.002558  -0.057295   0.663924   0.007546   0.005765
    23  H    0.000039  -0.000045  -0.007269   0.007546   0.700952   0.006418
    24  H    0.000023  -0.000000  -0.000081   0.005765   0.006418   0.595447
    25  H    0.000019   0.000043   0.000266   0.000406   0.001663  -0.026252
    26  H   -0.000001   0.000000  -0.000149  -0.000128  -0.003750  -0.035530
    27  H    0.000000  -0.000000   0.000025  -0.000023  -0.002128   0.000541
    28  H   -0.000000   0.000000  -0.000055   0.000035   0.015311   0.000292
    29  H    0.000000  -0.000000   0.000006   0.000000  -0.000036  -0.000000
    30  H   -0.000000   0.000000  -0.000001   0.000003   0.000040   0.000033
    31  H    0.000000  -0.000000   0.000000   0.000000   0.000001  -0.000000
    32  H   -0.000000  -0.000000   0.000000  -0.000000  -0.000003  -0.000000
    33  H   -0.000000   0.000000  -0.000000   0.000000   0.000000   0.000000
    34  H    0.000000  -0.000000   0.000000   0.000000  -0.000000  -0.000000
    35  H    0.000000  -0.000000   0.000000   0.000000  -0.000000  -0.000000
    36  H    0.000000   0.000000  -0.000000  -0.000000   0.000000   0.000000
    37  H   -0.000000   0.000000   0.000000   0.000000   0.000000   0.000000
    38  H    0.000000   0.000000   0.000000  -0.000000  -0.000000  -0.000000
    39  H    0.000000   0.000000  -0.000000   0.000000   0.000000   0.000000
    40  H    0.000000   0.000000   0.000000   0.000000  -0.000000   0.000000
    41  H    0.000000   0.000000   0.000000   0.000000   0.000000   0.000000
    42  H    0.000000   0.000000   0.000000   0.000000  -0.000000  -0.000000
    43  H    0.000000   0.000000   0.000000   0.000000   0.000000   0.000000
    44  H    0.000000   0.000000   0.000000   0.000000   0.000000   0.000000
              25         26         27         28         29         30
     1  C   -0.000143  -0.000003   0.000000   0.000000   0.000000   0.000000
     2  O    0.010732   0.000242   0.000004   0.000003   0.000000   0.000000
     3  C   -0.004232   0.003517   0.000137   0.000297   0.000003   0.000013
     4  C   -0.016279  -0.024204  -0.006583  -0.005112   0.000059   0.000199
     5  C    0.360117   0.372094   0.006130  -0.003109   0.000015  -0.000059
     6  O    0.002244  -0.002336  -0.033126  -0.032494   0.001934   0.002088
     7  C    0.000085  -0.001356   0.354855   0.350864  -0.023593  -0.022343
     8  C   -0.000008   0.000020  -0.038925  -0.037113   0.357263   0.356790
     9  C   -0.000001  -0.000000   0.000037   0.000233  -0.023712  -0.023428
    10  O    0.000000  -0.000000  -0.000003  -0.000027   0.002238   0.002208
    11  C   -0.000000  -0.000000   0.000021   0.000015   0.000129   0.000209
    12  N   -0.000000  -0.000000   0.000000   0.000000   0.000000   0.000002
    13  C    0.000000   0.000000  -0.000000   0.000000  -0.000021  -0.000002
    14  C   -0.000000   0.000000   0.000000   0.000000   0.000000   0.000000
    15  C   -0.000000  -0.000000   0.000000   0.000000   0.000000   0.000000
    16  C    0.000000  -0.000000   0.000000  -0.000000   0.000000  -0.000000
    17  O    0.000000   0.000000   0.000000   0.000000   0.000000   0.000000
    18  H   -0.000042  -0.000001   0.000000   0.000000   0.000000   0.000000
    19  H    0.000019  -0.000001   0.000000  -0.000000   0.000000  -0.000000
    20  H    0.000043   0.000000  -0.000000   0.000000  -0.000000   0.000000
    21  H    0.000266  -0.000149   0.000025  -0.000055   0.000006  -0.000001
    22  H    0.000406  -0.000128  -0.000023   0.000035   0.000000   0.000003
    23  H    0.001663  -0.003750  -0.002128   0.015311  -0.000036   0.000040
    24  H   -0.026252  -0.035530   0.000541   0.000292  -0.000000   0.000033
    25  H    0.565594  -0.029264  -0.000545   0.000042   0.000000  -0.000000
    26  H   -0.029264   0.604263   0.002344   0.000881  -0.000001   0.000024
    27  H   -0.000545   0.002344   0.681181  -0.062176   0.006799  -0.007608
    28  H    0.000042   0.000881  -0.062176   0.683207  -0.007524   0.006528
    29  H    0.000000  -0.000001   0.006799  -0.007524   0.617523  -0.043015
    30  H   -0.000000   0.000024  -0.007608   0.006528  -0.043015   0.610409
    31  H    0.000000  -0.000010   0.007111  -0.000620   0.006363  -0.007008
    32  H    0.000000   0.000005  -0.000987   0.005129  -0.007152   0.006404
    33  H   -0.000000   0.000000  -0.000003   0.000001   0.000029  -0.000037
    34  H    0.000000   0.000000   0.000001  -0.000006  -0.000031   0.000033
    35  H    0.000000   0.000000   0.000000   0.000000   0.000150   0.000004
    36  H   -0.000000  -0.000000   0.000000   0.000000   0.000000  -0.000000
    37  H   -0.000000  -0.000000   0.000000  -0.000000   0.000001  -0.000000
    38  H   -0.000000  -0.000000   0.000000   0.000000  -0.000000   0.000000
    39  H   -0.000000  -0.000000   0.000000  -0.000000   0.000000  -0.000000
    40  H   -0.000000  -0.000000   0.000000  -0.000000  -0.000000   0.000000
    41  H   -0.000000  -0.000000   0.000000  -0.000000   0.000000  -0.000000
    42  H    0.000000  -0.000000  -0.000000  -0.000000  -0.000000   0.000000
    43  H    0.000000  -0.000000   0.000000  -0.000000   0.000000  -0.000000
    44  H    0.000000   0.000000   0.000000   0.000000   0.000000   0.000000
              31         32         33         34         35         36
     1  C    0.000000  -0.000000  -0.000000  -0.000000   0.000000   0.000000
     2  O    0.000000   0.000000  -0.000000  -0.000000  -0.000000   0.000000
     3  C    0.000000   0.000000   0.000000   0.000000   0.000000   0.000000
     4  C    0.000026   0.000008   0.000000   0.000000   0.000000   0.000000
     5  C   -0.000020   0.000001  -0.000000   0.000000  -0.000000  -0.000000
     6  O   -0.000032  -0.000026   0.000000   0.000000   0.000000  -0.000000
     7  C   -0.000444   0.000692   0.000043   0.000051   0.000004  -0.000000
     8  C   -0.036392  -0.035811  -0.000016   0.000219   0.000061  -0.000001
     9  C    0.351006   0.349776  -0.005437  -0.004971  -0.000382  -0.000015
[...]
 044422,0.00098959,0.05812584,0.06102996,0.30645742,-0.00000327,-0.0000
 0127,0.00000040,0.00000521,-0.00000023,-0.00000084,-0.00000286,-0.0000
 0097,0.00000137,-0.00000407,0.00000704,0.00000445,0.00000024,-0.000002
 26,-0.00000032,0.00001584,-0.00000803,-0.00000785,-0.00000636,0.000008
 24,0.00000684,-0.00000257,-0.00001753,-0.00000102,0.00000717,0.0000314
 1,0.00002785,0.00006004,-0.00015067,-0.00004947,0.00013593,0.00050594,
 0.00011044,0.00127114,-0.00011770,-0.00050376,0.00005755,-0.00005593,-
 0.00033026,0.00283771,0.00451244,-0.00373887,-0.12941556,-0.08200522,0
 .08557108,-0.02178132,-0.02014225,0.02045549,0.00322609,-0.00036875,-0
 .00117322,0.00000037,-0.00000017,0.00000007,0.00000046,0.00000065,-0.0
 0000046,0.00000023,0.00000011,0.,-0.00000029,-0.00000020,-0.00000055,0
 .00000066,0.00000042,-0.00000073,0.00000046,-0.00000026,-0.00000099,0.
 00000034,0.00000091,-0.00000048,0.00000023,-0.00000036,-0.00000065,0.0
 0000019,0.00000048,0.00000070,0.00000034,-0.00000130,-0.00000123,0.000
 00020,0.00000142,-0.00000131,-0.00000156,0.00000103,-0.00000093,0.0000
 0186,0.00000231,-0.00000107,-0.00000269,-0.00000986,-0.00000876,0.0000
 0460,-0.00000846,-0.00000620,-0.00001147,-0.00003428,-0.00004067,-0.00
 010681,-0.00008072,0.00006489,-0.00001280,-0.00003698,0.00003346,0.000
 03479,-0.00002997,0.00000979,-0.00001686,-0.00006436,0.00010688,-0.000
 00786,-0.00048127,0.00001041,-0.00004678,0.00158276,0.00017065,0.00397
 444,0.00432100,-0.00451987,0.14408884,0.00000092,-0.00000126,0.0000012
 6,-0.00000209,0.00000480,-0.00000108,0.00000100,-0.00000528,0.00000197
 ,0.00000160,-0.00000576,0.00000207,-0.00000130,-0.00000068,0.00000097,
 0.00000353,0.00000734,-0.00000424,0.00000135,-0.00000427,0.00000294,-0
 .00000420,-0.00001511,0.00000812,-0.00001398,0.00002139,0.00001808,0.0
 0021740,0.00004357,-0.00012790,-0.00010715,-0.00006287,-0.00024412,-0.
 00074452,0.00367541,-0.00029639,0.00024338,-0.00018134,0.00037690,-0.0
 1945861,-0.02267999,0.02097220,-0.08025567,-0.12360906,0.08201175,0.00
 527410,0.00232248,-0.00467997,-0.00030735,0.00260751,-0.00031049,-0.00
 000049,0.00000056,0.00000020,0.00000012,0.00000033,-0.00000074,-0.0000
 0014,-0.00000043,-0.00000028,-0.00000005,-0.00000009,0.00000017,0.0000
 0105,0.00000103,-0.00000159,0.00000058,0.00000181,-0.00000177,0.000001
 12,0.00000081,-0.00000116,-0.00000041,0.00000061,0.00000015,0.00000047
 ,-0.00000061,0.00000033,-0.00000040,-0.00000015,0.00000069,-0.00000191
 ,0.00000625,-0.00000299,0.00000026,-0.00000079,0.00000032,0.00000601,0
 .00000161,-0.00000776,-0.00000312,-0.00000596,0.00000002,-0.00000513,0
 .00000850,-0.00000513,-0.00001099,-0.00001217,0.00006045,-0.00008250,0
 .00046556,-0.00003524,0.00007124,0.00003518,0.00004289,0.00000212,-0.0
 0010718,0.00013473,-0.00009473,0.00009739,-0.00025779,-0.00011173,0.00
 127025,-0.00025854,0.00155016,-0.00621631,-0.00184453,0.00421455,0.003
 88227,-0.00396592,0.08902469,0.13834787,0.00000344,0.00000170,0.000000
 14,-0.00000518,-0.00000179,-0.00000032,0.00000298,0.00000266,-0.000000
 05,0.00000386,-0.00000414,-0.00000178,-0.00000021,0.00000157,-0.000000
 12,-0.00001639,0.00000368,0.00000398,0.00000734,-0.00000425,-0.0000025
 3,0.00000350,0.00001412,0.00000146,-0.00000510,-0.00003104,-0.00000432
 ,-0.00009055,0.00010379,0.00002747,-0.00015648,-0.00016176,0.00003944,
 -0.00043041,-0.00000470,0.00036882,-0.00007553,0.00026323,-0.00006030,
 -0.00290115,-0.00356493,0.00295461,0.08524832,0.08392583,-0.14075127,-
 0.00499643,-0.00359164,0.00388164,0.00016812,-0.00160480,-0.00003958,-
 0.00000030,-0.00000011,-0.00000012,-0.00000043,-0.00000054,0.00000067,
 -0.00000022,-0.00000003,-0.00000054,-0.00000019,0.00000037,-0.00000071
 ,-0.00000090,-0.00000051,0.00000127,-0.00000048,-0.00000021,0.00000060
 ,0.00000007,-0.00000052,0.00000051,0.00000008,0.00000041,0.00000058,-0
 .00000084,-0.00000071,-0.00000058,-0.00000062,-0.00000130,-0.00000155,
 -0.00000026,-0.00000238,0.00000079,-0.00000150,0.00000201,-0.00000319,
 -0.00000031,-0.00000022,0.00000474,-0.00000083,0.00000130,-0.00000069,
 -0.00000198,0.00000180,-0.00000001,-0.00003874,-0.00002313,-0.00004003
 ,0.00004899,-0.00002541,-0.00007093,-0.00005523,0.00001282,0.00002993,
 0.00011546,0.00009461,-0.00028493,-0.00000736,-0.00016719,-0.00001262,
 -0.00038524,0.00041067,0.00080337,0.00022576,-0.00118128,0.00125292,0.
 01781039,0.01767892,-0.01796082,-0.09440191,-0.09174221,0.14752736,0.0
 0000511,0.00000092,-0.00000087,-0.00000850,0.00000339,0.00000189,0.000
 00473,-0.00000177,-0.00000263,0.00000692,-0.00001338,-0.00000739,-0.00
 000089,0.00000307,0.00000111,-0.00002092,0.00001462,0.00001156,0.00001
 091,-0.00001212,-0.00000965,0.,0.00001357,-0.00000107,0.00001321,-0.00
 005982,-0.00003459,-0.00004578,0.00009232,0.00009970,-0.00001186,-0.00
 008475,-0.00013318,0.00012911,0.00007155,0.00049712,-0.00024561,-0.000
 30920,-0.00016638,0.00051578,-0.00203332,-0.00131085,-0.00987580,-0.00
 259540,-0.03270380,-0.06562534,-0.00955576,-0.05275087,0.00508661,0.00
 468857,0.00937268,-0.00000082,0.00000069,0.00000003,-0.00000064,-0.000
 00089,0.00000038,-0.00000033,-0.00000031,0.00000023,0.00000076,0.00000
 042,0.00000159,-0.00000068,-0.00000023,0.00000056,-0.00000042,0.000000
 85,0.00000095,-0.00000023,-0.00000105,0.00000035,-0.00000071,0.0000007
 6,0.00000105,0.00000022,-0.00000080,-0.00000093,-0.00000060,0.00000261
 ,0.00000319,-0.00000090,-0.00000098,0.00000105,0.00000470,-0.00000143,
 0.00000261,-0.00000254,-0.00000199,0.00000076,0.00000319,0.00001490,0.
 00001502,-0.00000071,0.00000399,0.00000317,-0.00000524,0.00004709,0.00
 005367,-0.00000248,0.00002722,0.00000391,0.00001235,0.00014811,0.00006
 908,0.00015848,0.00024261,0.00012711,0.00002344,0.00001275,0.00003542,
 0.00020520,0.00079564,0.00080578,0.00002058,0.00013327,0.00010591,-0.0
 0610496,0.00164840,-0.00133104,0.00173425,-0.00067711,0.00062401,0.069
 03058,-0.00000405,-0.00000077,-0.00000061,0.00000576,-0.00000166,0.000
 00035,-0.00000272,0.00000168,-0.00000028,-0.00000431,0.00000623,0.0000
 0140,0.00000058,-0.00000094,-0.00000056,0.00000947,-0.00000566,-0.0000
 0200,-0.00000683,0.00000292,0.00000125,-0.00000031,0.00000071,-0.00000
 076,-0.00000941,0.00000732,0.00000756,-0.00000548,-0.00000147,-0.00000
 420,-0.00004334,0.00003682,0.00001155,0.00003492,0.00019006,-0.0000558
 6,0.00011373,-0.00001810,0.00009300,-0.00043342,0.00078219,0.00082130,
 0.00058954,0.00303513,0.00543705,-0.01109597,-0.05388799,-0.02455724,-
 0.00231933,-0.02433581,-0.03867769,0.00000048,-0.00000037,-0.00000007,
 0.00000039,0.00000040,-0.00000014,0.00000033,0.00000033,0.00000044,-0.
 00000001,-0.00000019,0.00000009,0.00000014,-0.00000029,-0.00000004,0.0
 0000007,-0.00000063,0.00000005,-0.00000044,0.00000004,0.00000019,0.000
 00026,-0.00000055,-0.00000045,0.00000043,0.00000073,0.00000037,0.00000
 066,0.00000011,0.00000005,0.00000072,-0.00000047,0.00000021,-0.0000006
 0,-0.00000005,0.00000030,-0.00000059,-0.00000018,0.00000016,0.00000086
 ,-0.00000099,-0.00000174,0.00000067,-0.00000172,0.00000011,0.00000601,
 -0.00001004,-0.00001575,0.00000225,-0.00000996,0.00000165,0.00001230,-
 0.00004749,-0.00000968,-0.00003446,-0.00007376,-0.00004794,-0.00000884
 ,0.00000587,-0.00000559,0.00011868,-0.00005260,-0.00022903,0.00009718,
 0.00004699,-0.00000295,0.00187978,-0.00000050,-0.00018280,0.00018851,0
 .00012052,-0.00064234,0.00613093,0.06729746,-0.00000302,-0.00000114,-0
 .00000274,0.00000272,0.00000209,0.00000368,-0.00000082,-0.00000053,-0.
 00000379,-0.00000046,-0.00000402,-0.00000689,-0.00000093,0.00000110,0.
 00000098,0.00000078,0.00000705,0.00000865,-0.00000517,-0.00000757,-0.0
 0001010,-0.00000165,0.00001015,0.00000139,-0.00001051,-0.00003885,-0.0
 0003935,0.00000038,0.00008635,0.00008739,-0.00011492,-0.00009954,-0.00
 025250,-0.00013186,0.00055688,0.00069062,0.00012783,-0.00021382,-0.000
 12031,0.00002504,-0.00065615,-0.00060494,-0.00092176,-0.00022591,-0.00
 648948,-0.05310665,-0.02787211,-0.26695891,0.00104879,-0.01346366,-0.0
 0349649,0.00000004,0.00000019,-0.00000010,0.00000020,-0.00000007,-0.00
 000002,0.00000040,0.00000041,0.00000152,0.00000129,0.00000023,0.000002
 48,-0.00000018,-0.00000056,0.00000020,-0.00000029,-0.00000022,0.000001
 07,-0.00000089,-0.00000087,0.00000048,-0.00000050,-0.00000019,0.000000
 04,0.00000177,0.00000074,-0.00000022,0.00000108,0.00000343,0.00000571,
 -0.00000002,-0.00000090,0.00000105,0.00000596,-0.00000071,0.00000390,-
 0.00000266,-0.00000217,-0.00000081,0.00000517,0.00001167,0.00001871,-0
 .00000036,0.00000137,0.00000455,0.00000445,0.00003575,0.00007598,0.000
 00149,0.00004848,0.00001766,0.00003047,0.00001876,0.00006418,0.0000476
 5,0.00008504,0.00004132,-0.00000427,0.00000630,0.00002176,-0.00031293,
 0.00084674,0.00061603,0.00002508,-0.00004920,0.00013752,-0.00120108,0.
 00000685,0.00142489,-0.00023939,-0.00019513,0.00107461,0.05909983,0.04
 268360,0.29084435,0.00000321,-0.00000030,0.00000070,-0.00000523,0.0000
 0437,-0.00000038,0.00000252,-0.00000399,0.00000117,0.00000404,-0.00000
 948,-0.00000107,-0.00000102,0.00000074,0.00000105,-0.00000725,0.000010
 62,0.00000138,0.00000542,-0.00000782,-0.00000089,-0.00000258,-0.000001
 94,0.00000396,0.00001107,-0.00003272,-0.00000325,0.00002893,0.00000665
 ,-0.00001933,0.00000852,0.00009204,-0.00005361,0.00046210,0.00061788,-
 0.00047302,-0.00004057,-0.00021656,0.00009080,0.00024263,-0.00202808,0
 .00070176,-0.02095356,-0.01706358,0.02005550,-0.13924961,-0.08688637,0
 .08799981,0.00701316,0.00571768,-0.00500174,-0.00000072,0.00000059,0.0
 0000016,-0.00000027,-0.00000014,-0.00000035,-0.00000028,-0.00000047,-0
 .00000023,0.00000016,0.00000001,0.00000041,0.00000048,0.00000068,-0.00
 000105,0.00000030,0.00000169,-0.00000091,0.00000062,0.00000022,-0.0000
 0069,-0.00000055,0.00000073,0.00000059,0.00000016,-0.00000078,-0.00000
 025,-0.00000051,0.00000074,0.00000101,-0.00000141,0.00000352,-0.000001
 48,0.00000118,-0.00000117,0.00000109,0.00000236,0.00000059,-0.00000413
 ,0.00000053,0.00000218,0.00000337,0.00000005,0.00000615,-0.00000398,-0
 .00000034,-0.00000645,0.00000643,-0.00001730,0.00008108,0.00000174,0.0
 0001594,0.00004061,-0.00000326,0.00004712,-0.00000917,0.00011565,0.000
 00615,0.00007847,-0.00003643,-0.00002367,0.00022208,0.00001674,0.00018
 679,0.00125951,-0.00047325,0.00164117,-0.00026429,-0.00032685,-0.00560
 075,0.00179960,-0.00175722,0.00528445,0.00425600,-0.00509490,0.1501406
 1,0.00000117,-0.00000020,0.00000040,-0.00000140,0.00000131,-0.00000047
 ,0.00000040,-0.00000118,0.00000116,0.00000061,-0.00000223,0.00000039,-
 0.00000007,-0.00000020,0.00000029,-0.00000161,0.00000287,0.,0.00000076
 ,-0.00000248,0.00000043,-0.00000039,0.00000117,0.00000162,-0.00000005,
 -0.00000957,0.00000248,-0.00001307,0.00001599,0.00000656,-0.00003646,0
 .00003689,-0.00002518,-0.00008058,-0.00006722,0.00000834,-0.00003776,-
 0.00000105,0.00001115,0.00010955,0.00067929,-0.00022270,0.00339624,0.0
 0512798,-0.00383853,-0.07925456,-0.12061004,0.07721350,-0.01864067,-0.
 03535129,0.01850110,-0.00000028,0.00000017,0.00000007,-0.00000014,-0.0
 0000002,-0.00000015,-0.00000012,-0.00000019,-0.00000016,-0.00000005,-0
 .00000010,-0.00000008,0.00000034,0.00000034,-0.00000065,0.00000018,0.0
 0000061,-0.00000054,0.00000024,0.00000027,-0.00000033,-0.00000019,0.00
 000021,0.00000016,-0.00000004,-0.00000027,-0.00000006,-0.00000018,-0.0
 0000002,0.,-0.00000025,0.00000100,-0.00000062,-0.00000007,-0.00000036,
 -0.00000005,0.00000037,0.00000035,-0.00000074,0.00000011,0.00000060,0.
 00000037,0.00000065,0.00000104,-0.00000172,-0.00000020,-0.00000264,-0.
 00000120,0.00000680,-0.00000890,0.00000093,-0.00000372,0.00000208,-0.0
 0001254,0.00000470,0.00000542,-0.00000671,-0.00000132,0.00001924,-0.00
 000349,-0.00007547,-0.00000855,-0.00004793,0.00002006,0.00017319,0.000
 20066,-0.00037889,0.00008261,0.00007776,0.00190668,0.00003358,0.000364
 71,0.00205526,0.00479418,-0.00135235,0.08966263,0.15152150,-0.00000160
 ,0.00000037,-0.00000057,0.00000208,-0.00000242,0.00000028,-0.00000053,
 0.00000230,-0.00000064,-0.00000162,0.00000458,0.00000037,0.00000061,-0
 .00000005,-0.00000078,0.00000153,-0.00000582,-0.00000022,-0.00000056,0
 .00000446,-0.00000028,0.00000198,-0.00000077,-0.00000216,0.00000135,0.
 00001978,-0.00000580,-0.00000905,-0.00003737,-0.00000010,0.00008111,0.
 00001643,-0.00004532,-0.00025994,-0.00022112,0.00001864,0.00004929,0.0
 0004361,0.00004744,0.00029396,0.00018609,0.00005548,-0.00426021,-0.003
 42054,0.00390466,0.08902755,0.08622045,-0.14246309,-0.00594662,-0.0060
 7562,0.00821683,0.00000030,-0.00000034,-0.00000010,0.00000013,0.000000
 02,0.00000029,0.00000022,0.00000024,0.00000005,-0.00000012,0.00000010,
 -0.00000025,-0.00000057,-0.00000058,0.00000076,-0.00000013,-0.00000093
 ,0.00000068,-0.00000065,-0.00000037,0.00000052,0.00000050,-0.00000029,
 0.,-0.00000024,0.00000059,-0.00000007,0.00000034,0.00000002,-0.0000009
 4,0.00000090,-0.00000219,0.00000142,-0.00000090,0.00000003,-0.00000022
 ,-0.00000242,-0.00000095,0.00000165,0.00000042,0.00000033,-0.00000251,
 0.00000003,-0.00000317,0.00000580,0.00000674,0.00001077,-0.00000360,0.
 00000396,-0.00000355,0.00002084,0.00000331,-0.00000928,-0.00001176,-0.
 00002653,-0.00003117,-0.00000717,0.00000353,0.00000406,-0.00001343,0.0
 0007439,0.00015290,-0.00009252,0.00009486,-0.00032118,0.00027795,0.000
 38070,-0.00057000,0.00097790,-0.00156197,-0.00009022,0.00130254,0.0182
 7803,0.01650651,-0.01817607,-0.09554914,-0.08905039,0.14479690,-0.0000
 1651,-0.00000157,-0.00000016,0.00002629,-0.00001266,-0.00000239,-0.000
 01370,0.00001002,0.00000299,-0.00002077,0.00003774,0.00001511,0.000002
 95,-0.00000693,-0.00000406,0.00005244,-0.00003976,-0.00002118,-0.00003
 130,0.00002711,0.00001752,0.00000002,-0.00001587,-0.00000524,-0.000039
 33,0.00011938,0.00005337,0.00012340,-0.00013128,-0.00007601,-0.0001110
 3,0.00017609,0.00014537,-0.00000117,-0.00018123,0.00000663,0.00000154,
 0.00010838,-0.00004276,-0.00070947,0.00047618,0.00030770,0.00296261,0.
 00233039,-0.00175540,0.00308427,0.01042094,-0.00458428,-0.17364020,-0.
 17411107,0.17410797,0.00000258,-0.00000241,-0.00000024,0.00000168,0.00
 000206,-0.00000021,0.00000131,0.00000136,0.00000018,-0.00000126,-0.000
 00096,-0.00000302,0.00000066,-0.00000074,0.00000027,0.00000056,-0.0000
 0367,-0.00000083,-0.00000101,0.00000179,0.00000049,0.00000216,-0.00000
 265,-0.00000238,-0.00000019,0.00000322,0.00000222,0.00000210,-0.000002
 79,-0.00000425,0.00000368,-0.00000251,-0.00000026,-0.00000403,0.000002
 07,-0.00000307,-0.00000027,0.00000192,0.00000336,-0.00000434,-0.000016
 13,-0.00001733,0.00000035,-0.00001548,0.00000015,0.00000384,-0.0000064
 1,-0.00001312,0.00001198,-0.00005991,0.00000507,0.00001033,-0.00002008
 ,0.00000186,-0.00003582,-0.00002208,-0.00005547,-0.00001714,-0.0000343
 0,0.00001315,0.00003857,-0.00018067,-0.00014328,-0.00009819,-0.0003470
 7,0.00000105,-0.00015481,0.00002879,-0.00014143,-0.00043530,-0.0005316
 4,0.00106965,-0.00029463,0.00051946,0.00072478,0.00079595,0.00136079,-
 0.00068500,0.16850119,0.00002690,0.00000520,0.00000240,-0.00004186,0.0
 0001265,0.00000020,0.00002233,-0.00000918,-0.00000183,0.00003199,-0.00
 005290,-0.00001723,-0.00000372,0.00001035,0.00000407,-0.00009005,0.000
 05298,0.00002743,0.00005370,-0.00003836,-0.00002039,0.00000656,0.00003
 351,0.00000936,0.00006261,-0.00018193,-0.00006094,-0.00027189,0.000222
 54,0.00011590,0.00014624,-0.00026520,-0.00022777,-0.00023926,0.0005120
 2,-0.00000238,-0.00001535,-0.00001669,0.00019255,-0.00008944,-0.000347
 69,-0.00050063,-0.00022229,0.00225689,0.00116400,-0.02553719,-0.033717
 21,0.02589432,-0.13741061,-0.20203668,0.13915630,-0.00000368,0.0000028
 1,0.00000024,-0.00000280,-0.00000327,0.00000116,-0.00000220,-0.0000021
 0,-0.00000205,0.00000057,0.00000163,0.00000151,-0.00000215,0.00000068,
 0.00000141,-0.00000083,0.00000493,0.00000105,0.00000180,-0.00000227,-0
 .00000020,-0.00000240,0.00000414,0.00000412,-0.00000198,-0.00000534,-0
 .00000347,-0.00000427,0.00000095,0.00000076,-0.00000515,0.00000159,0.0
 0000073,0.00000100,-0.00000152,-0.00000102,0.00000051,-0.00000205,0.00
 000043,0.00000185,0.00002173,0.00001593,-0.00000193,0.00002257,-0.0000
 0010,-0.00001304,-0.00001254,-0.00001449,-0.00001476,0.00008621,-0.000
 01520,-0.00004058,0.00003404,-0.00002577,0.00006692,0.00001991,0.00002
 756,0.00002026,0.00002593,-0.00004855,-0.00004433,-0.00007417,0.000021
 35,-0.00007748,0.00051887,-0.00007130,0.00018780,-0.00000187,-0.000092
 90,0.00152294,-0.00004736,-0.00012704,-0.00080323,0.00212251,-0.000227
 47,0.00266625,-0.00643539,-0.00332532,0.16012223,0.23727908,-0.0000028
 2,-0.00000023,0.00000257,0.00000629,-0.00000455,-0.00000379,-0.0000042
 2,0.00000257,0.00000463,-0.00000621,0.00001492,0.00000968,0.00000085,-
 0.00000347,-0.00000142,0.00001969,-0.00001614,-0.00001372,-0.00000884,
 0.00001345,0.00001217,-0.00000076,-0.00001485,0.00000117,-0.00001324,0
 .00006847,0.00004221,0.00007966,-0.00008707,-0.00007348,-0.00004382,0.
 00011097,0.00015706,0.00012026,-0.00019888,-0.00014661,0.00001565,0.00
 007663,-0.00000224,0.00007364,0.00022496,0.00017632,-0.00023537,-0.000
 89409,0.00021022,-0.00484358,-0.01332024,0.00406112,0.17480381,0.17846
 712,-0.18206937,0.00000069,-0.00000080,0.00000004,0.00000051,0.0000009
 3,-0.00000037,0.00000012,0.00000003,-0.00000117,-0.00000123,-0.0000005
 8,-0.00000274,0.00000088,0.00000037,-0.00000067,0.00000023,-0.00000096
 ,-0.00000132,0.00000065,0.00000139,-0.00000053,0.00000110,-0.00000075,
 -0.00000096,-0.00000089,0.00000046,0.00000097,-0.00000021,-0.00000326,
 -0.00000445,0.00000089,0.00000099,-0.00000129,-0.00000412,0.00000131,-
 0.00000354,0.00000290,0.00000241,-0.00000010,-0.00000560,-0.00001299,-
 0.00001431,0.00000061,-0.00000526,-0.00000414,-0.00000410,-0.00001257,
 -0.00002040,0.00000019,-0.00003430,-0.00000385,0.00000676,-0.00001660,
 0.00000447,-0.00002475,-0.00002183,-0.00002276,-0.00000950,-0.00001627
 ,-0.00000197,-0.00002435,-0.00016223,-0.00010602,0.00003359,-0.0001256
 1,-0.00006837,-0.00007546,0.00033925,-0.00042797,0.00001803,0.00043898
 ,-0.00004045,-0.00076450,-0.00112949,0.00101200,-0.00019590,-0.0018254
 7,0.00119662,-0.16891754,-0.16185672,0.17614678\\0.00000266,-0.0000006
 1,0.00000011,0.00000075,-0.00000195,-0.00000063,-0.00000158,0.00000474
 ,0.00000302,0.00000097,-0.00000108,-0.00000044,-0.00000123,0.00000045,
 0.00000134,-0.00000090,0.00000134,-0.00000119,0.00000204,-0.00000071,0
 .00000081,0.00000209,0.00000312,0.00000031,-0.00000297,0.00000136,-0.0
 0000085,0.00000847,-0.00000136,-0.00000031,-0.00001045,0.00000509,0.00
 000158,-0.00000020,-0.00000479,0.00000019,0.00000261,0.00000338,-0.000
 00241,0.00000181,0.00000091,-0.00000130,0.00000007,0.00000004,0.000000
 09,0.00000155,-0.00000634,-0.00000071,-0.00000326,0.00000348,-0.000000
 99,0.00000036,0.00000035,0.00000066,-0.00000031,0.00000024,0.00000060,
 -0.00000016,0.00000057,0.,-0.00000009,-0.00000123,-0.00000066,-0.00000
 068,-0.00000085,-0.00000003,-0.00000091,-0.00000059,0.00000012,0.00000
 056,-0.00000080,-0.00000087,0.00000076,0.00000050,0.00000016,-0.000000
 27,0.00000129,0.00000134,0.00000023,-0.00000073,-0.00000056,-0.0000002
 5,-0.00000027,-0.00000010,-0.00000004,-0.00000171,-0.00000018,-0.00000
 147,-0.00000095,-0.00000008,-0.00000007,-0.00000042,0.00000026,0.00000
 061,-0.00000005,0.00000006,0.00000118,-0.00000110,0.00000026,0.0000008
 1,0.00000032,0.00000061,-0.00000067,-0.00000080,0.00000040,-0.00000123
 ,-0.00000129,0.00000013,0.00000010,-0.00000069,0.00000071,0.00000002,0
 .00000047,-0.00000040,-0.00000144,-0.00000019,0.00000011,-0.00000083,0
 .00000053,-0.00000094,-0.00000018,-0.00000071,-0.00000092,-0.00000080,
 0.00000103,0.00000054,0.00000075,-0.00000091,-0.00000033,0.00000160,0.
 00000090,0.00000052\\\@


 LEARN FROM YESTERDAY,
 LIVE FOR TODAY,
 LOOK TO TOMORROW,
 REST THIS AFTERNOON.

           -- SNOOPY
 Job cpu time:       0 days 14 hours 12 minutes 33.6 seconds.
 Elapsed time:       0 days  3 hours 33 minutes 11.5 seconds.
 File lengths (MBytes):  RWF=   1156 Int=      0 D2E=      0 Chk=     31 Scr=      1
 Normal termination of Gaussian 16 at Thu May 25 01:29:07 2023.
### All Done ###
