### Starting Gaussian ###
 Entering Gaussian System, Link 0=g16
 Initial command:
 /cluster/software/gaussian/gaussian-16-A.03/avx2/g16/l1.exe "/local/scratch/cz9n3/Gau-10286.inp" -scrdir="/local/scratch/cz9n3/"
 Entering Link 1 = /cluster/software/gaussian/gaussian-16-A.03/avx2/g16/l1.exe PID=     10287.
  
 Copyright (c) 1988,1990,1992,1993,1995,1998,2003,2009,2016,
            Gaussian, Inc.  All Rights Reserved.
  
 This is part of the Gaussian(R) 16 program.  It is based on
 the Gaussian(R) 09 system (copyright 2009, Gaussian, Inc.),
 the Gaussian(R) 03 system (copyright 2003, Gaussian, Inc.),
 the Gaussian(R) 98 system (copyright 1998, Gaussian, Inc.),
 the Gaussian(R) 94 system (copyright 1995, Gaussian, Inc.),
 the Gaussian 92(TM) system (copyright 1992, Gaussian, Inc.),
 the Gaussian 90(TM) system (copyright 1990, Gaussian, Inc.),
 the Gaussian 88(TM) system (copyright 1988, Gaussian, Inc.),
 the Gaussian 86(TM) system (copyright 1986, Carnegie Mellon
 University), and the Gaussian 82(TM) system (copyright 1983,
 Carnegie Mellon University). Gaussian is a federally registered
 trademark of Gaussian, Inc.
  
 This software contains proprietary and confidential information,
 including trade secrets, belonging to Gaussian, Inc.
  
 This software is provided under written license and may be
 used, copied, transmitted, or stored only in accord with that
 written license.
  
 The following legend is applicable only to US Government
 contracts under FAR:
  
                    RESTRICTED RIGHTS LEGEND
  
 Use, reproduction and disclosure by the US Government is
 subject to restrictions as set forth in subparagraphs (a)
 and (c) of the Commercial Computer Software - Restricted
 Rights clause in FAR 52.227-19.
  
 Gaussian, Inc.
 340 Quinnipiac St., Bldg. 40, Wallingford CT 06492
  
  
 ---------------------------------------------------------------
 Warning -- This program may not be used in any manner that
 competes with the business of Gaussian, Inc. or will provide
 assistance to any competitor of Gaussian, Inc.  The licensee
 of this program is prohibited from giving any competitor of
 Gaussian, Inc. access to this program.  By using this program,
 the user acknowledges that Gaussian, Inc. is engaged in the
 business of creating and licensing software in the field of
 computational chemistry and represents and warrants to the
 licensee that it is not a competitor of Gaussian, Inc. and that
 it will not use this program in any manner prohibited above.
 ---------------------------------------------------------------
  

 Cite this work as:
 Gaussian 16, Revision A.03,
 M. J. Frisch, G. W. Trucks, H. B. Schlegel, G. E. Scuseria, 
 M. A. Robb, J. R. Cheeseman, G. Scalmani, V. Barone, 
 G. A. Petersson, H. Nakatsuji, X. Li, M. Caricato, A. V. Marenich, 
 J. Bloino, B. G. Janesko, R. Gomperts, B. Mennucci, H. P. Hratchian, 
 J. V. Ortiz, A. F. Izmaylov, J. L. Sonnenberg, D. Williams-Young, 
 F. Ding, F. Lipparini, F. Egidi, J. Goings, B. Peng, A. Petrone, 
 T. Henderson, D. Ranasinghe, V. G. Zakrzewski, J. Gao, N. Rega, 
 G. Zheng, W. Liang, M. Hada, M. Ehara, K. Toyota, R. Fukuda, 
 J. Hasegawa, M. Ishida, T. Nakajima, Y. Honda, O. Kitao, H. Nakai, 
 T. Vreven, K. Throssell, J. A. Montgomery, Jr., J. E. Peralta, 
 F. Ogliaro, M. J. Bearpark, J. J. Heyd, E. N. Brothers, K. N. Kudin, 
 V. N. Staroverov, T. A. Keith, R. Kobayashi, J. Normand, 
 K. Raghavachari, A. P. Rendell, J. C. Burant, S. S. Iyengar, 
 J. Tomasi, M. Cossi, J. M. Millam, M. Klene, C. Adamo, R. Cammi, 
 J. W. Ochterski, R. L. Martin, K. Morokuma, O. Farkas, 
 J. B. Foresman, and D. J. Fox, Gaussian, Inc., Wallingford CT, 2016.
 
 ******************************************
 Gaussian 16:  ES64L-G16RevA.03 25-Dec-2016
                22-May-2023 
 ******************************************
 %chk=COCCCOCCCOC1dCCO1.chk
 %NProcShared=20
 Will use up to   20 processors via shared memory.
 -----------------------------
 # opt freq b3lyp/6-31g(2df,p)
 -----------------------------
 1/18=20,19=15,26=3,38=1/1,3;
 2/9=110,12=2,17=6,18=5,40=1/2;
 3/5=1,6=6,7=104,11=2,25=1,30=1,71=1,74=-5/1,2,3;
 4//1;
 5/5=2,38=5/2;
 6/7=2,8=2,9=2,10=2,28=1/1;
 7//1,2,3,16;
 1/18=20,19=15,26=3/3(2);
 2/9=110/2;
 99//99;
 2/9=110/2;
 3/5=1,6=6,7=104,11=2,25=1,30=1,71=1,74=-5/1,2,3;
 4/5=5,16=3,69=1/1;
 5/5=2,38=5/2;
 7//1,2,3,16;
 1/18=20,19=15,26=3/3(-5);
 2/9=110/2;
 6/7=2,8=2,9=2,10=2,19=2,28=1/1;
 99/9=1/99;
 -------------------
 Title Card Required
 -------------------
 Symbolic Z-matrix:
 Charge =  0 Multiplicity = 1
 C                     1.00661   0.09016   0.02145 
 O                     2.42971   0.09601   0.03876 
 C                     2.91518   0.50819   1.3133 
 C                     4.43754   0.50823   1.31316 
 C                     4.95322   0.94915   2.67575 
 O                     6.38354   0.95654   2.69773 
 C                     6.86459   1.36851   3.98319 
 C                     8.39179   1.37226   4.0149 
 C                     8.93073   1.80481   5.39322 
 O                     10.35828   1.82528   5.36006 
 C                     10.93366   2.23578   6.4275 
 C                     11.98617   3.06918   6.63119 
 C                     11.86504   2.82472   8.08953 
 O                     10.78243   1.94946   7.68344 
 H                     0.66842  -0.22973  -0.96699 
 H                     0.621     1.09568   0.21754 
 H                     0.62119  -0.60995   0.76947 
 H                     2.54129  -0.18055   2.08025 
 H                     2.54128   1.51561   1.53158 
 H                     4.81886   1.16849   0.52462 
 H                     4.8189   -0.48884   1.06098 
 H                     4.58402   0.26238   3.44702 
 H                     4.58383   1.9574    2.89887 
 H                     6.47901   0.67719   4.74064 
 H                     6.48514   2.37513   4.19251 
 H                     8.77577   2.03427   3.22723 
 H                     8.77215   0.37751   3.7493 
 H                     8.56655   1.11137   6.16085 
 H                     8.55525   2.81277   5.61304 
 H                     12.63894   3.66058   6.01128 
 H                     11.52482   3.656     8.71634 
 H                     12.70055   2.30967   8.57992 
 

 GradGradGradGradGradGradGradGradGradGradGradGradGradGradGradGradGradGrad
 Berny optimization.
 Initialization pass.
                           ----------------------------
                           !    Initial Parameters    !
                           ! (Angstroms and Degrees)  !
 --------------------------                            --------------------------
 ! Name  Definition              Value          Derivative Info.                !
 --------------------------------------------------------------------------------
 ! R1    R(1,2)                  1.4232         estimate D2E/DX2                !
 ! R2    R(1,15)                 1.0926         estimate D2E/DX2                !
 ! R3    R(1,16)                 1.0946         estimate D2E/DX2                !
 ! R4    R(1,17)                 1.0946         estimate D2E/DX2                !
 ! R5    R(2,3)                  1.4248         estimate D2E/DX2                !
 ! R6    R(3,4)                  1.5224         estimate D2E/DX2                !
 ! R7    R(3,18)                 1.0965         estimate D2E/DX2                !
 ! R8    R(3,19)                 1.0965         estimate D2E/DX2                !
 ! R9    R(4,5)                  1.5222         estimate D2E/DX2                !
 ! R10   R(4,20)                 1.0969         estimate D2E/DX2                !
 ! R11   R(4,21)                 1.0969         estimate D2E/DX2                !
 ! R12   R(5,6)                  1.4305         estimate D2E/DX2                !
 ! R13   R(5,22)                 1.0967         estimate D2E/DX2                !
 ! R14   R(5,23)                 1.0967         estimate D2E/DX2                !
 ! R15   R(6,7)                  1.433          estimate D2E/DX2                !
 ! R16   R(7,8)                  1.5275         estimate D2E/DX2                !
 ! R17   R(7,24)                 1.0956         estimate D2E/DX2                !
 ! R18   R(7,25)                 1.0959         estimate D2E/DX2                !
 ! R19   R(8,9)                  1.5419         estimate D2E/DX2                !
 ! R20   R(8,26)                 1.0982         estimate D2E/DX2                !
 ! R21   R(8,27)                 1.0976         estimate D2E/DX2                !
 ! R22   R(9,10)                 1.4281         estimate D2E/DX2                !
 ! R23   R(9,28)                 1.0967         estimate D2E/DX2                !
 ! R24   R(9,29)                 1.0979         estimate D2E/DX2                !
 ! R25   R(10,11)                1.2802         estimate D2E/DX2                !
 ! R26   R(11,12)                1.3579         estimate D2E/DX2                !
 ! R27   R(11,14)                1.297          estimate D2E/DX2                !
 ! R28   R(12,13)                1.4836         estimate D2E/DX2                !
 ! R29   R(12,30)                1.0771         estimate D2E/DX2                !
 ! R30   R(13,14)                1.4502         estimate D2E/DX2                !
 ! R31   R(13,31)                1.0953         estimate D2E/DX2                !
 ! R32   R(13,32)                1.0972         estimate D2E/DX2                !
 ! A1    A(2,1,15)             108.7668         estimate D2E/DX2                !
 ! A2    A(2,1,16)             110.2606         estimate D2E/DX2                !
 ! A3    A(2,1,17)             110.2664         estimate D2E/DX2                !
 ! A4    A(15,1,16)            108.7824         estimate D2E/DX2                !
 ! A5    A(15,1,17)            108.7822         estimate D2E/DX2                !
 ! A6    A(16,1,17)            109.9418         estimate D2E/DX2                !
 ! A7    A(1,2,3)              110.657          estimate D2E/DX2                !
 ! A8    A(2,3,4)              109.9169         estimate D2E/DX2                !
 ! A9    A(2,3,18)             109.1346         estimate D2E/DX2                !
 ! A10   A(2,3,19)             109.1277         estimate D2E/DX2                !
 ! A11   A(4,3,18)             109.9413         estimate D2E/DX2                !
 ! A12   A(4,3,19)             109.9368         estimate D2E/DX2                !
 ! A13   A(18,3,19)            108.758          estimate D2E/DX2                !
 ! A14   A(3,4,5)              109.798          estimate D2E/DX2                !
 ! A15   A(3,4,20)             110.3481         estimate D2E/DX2                !
 ! A16   A(3,4,21)             110.3448         estimate D2E/DX2                !
 ! A17   A(5,4,20)             110.5725         estimate D2E/DX2                !
 ! A18   A(5,4,21)             110.5682         estimate D2E/DX2                !
 ! A19   A(20,4,21)            105.1307         estimate D2E/DX2                !
 ! A20   A(4,5,6)              110.7314         estimate D2E/DX2                !
 ! A21   A(4,5,22)             109.517          estimate D2E/DX2                !
 ! A22   A(4,5,23)             109.5305         estimate D2E/DX2                !
 ! A23   A(6,5,22)             109.2094         estimate D2E/DX2                !
 ! A24   A(6,5,23)             109.2016         estimate D2E/DX2                !
 ! A25   A(22,5,23)            108.6163         estimate D2E/DX2                !
 ! A26   A(5,6,7)              110.5433         estimate D2E/DX2                !
 ! A27   A(6,7,8)              110.79           estimate D2E/DX2                !
 ! A28   A(6,7,24)             108.7008         estimate D2E/DX2                !
 ! A29   A(6,7,25)             108.612          estimate D2E/DX2                !
 ! A30   A(8,7,24)             109.8194         estimate D2E/DX2                !
 ! A31   A(8,7,25)             109.8731         estimate D2E/DX2                !
 ! A32   A(24,7,25)            109.0065         estimate D2E/DX2                !
 ! A33   A(7,8,9)              111.636          estimate D2E/DX2                !
 ! A34   A(7,8,26)             109.6424         estimate D2E/DX2                !
 ! A35   A(7,8,27)             109.8288         estimate D2E/DX2                !
 ! A36   A(9,8,26)             110.4766         estimate D2E/DX2                !
 ! A37   A(9,8,27)             110.4528         estimate D2E/DX2                !
 ! A38   A(26,8,27)            104.5718         estimate D2E/DX2                !
 ! A39   A(8,9,10)             109.4311         estimate D2E/DX2                !
 ! A40   A(8,9,28)             109.4055         estimate D2E/DX2                !
 ! A41   A(8,9,29)             108.4822         estimate D2E/DX2                !
 ! A42   A(10,9,28)            110.9322         estimate D2E/DX2                !
 ! A43   A(10,9,29)            109.4737         estimate D2E/DX2                !
 ! A44   A(28,9,29)            109.0749         estimate D2E/DX2                !
 ! A45   A(9,10,11)            115.7536         estimate D2E/DX2                !
 ! A46   A(10,11,12)           132.085          estimate D2E/DX2                !
 ! A47   A(10,11,14)           133.1724         estimate D2E/DX2                !
 ! A48   A(12,11,14)            94.6236         estimate D2E/DX2                !
 ! A49   A(11,12,13)            89.028          estimate D2E/DX2                !
 ! A50   A(11,12,30)           136.0883         estimate D2E/DX2                !
 ! A51   A(13,12,30)           134.8836         estimate D2E/DX2                !
 ! A52   A(12,13,14)            83.4048         estimate D2E/DX2                !
 ! A53   A(12,13,31)           117.5695         estimate D2E/DX2                !
 ! A54   A(12,13,32)           117.033          estimate D2E/DX2                !
 ! A55   A(14,13,31)           112.7328         estimate D2E/DX2                !
 ! A56   A(14,13,32)           114.2248         estimate D2E/DX2                !
 ! A57   A(31,13,32)           109.6961         estimate D2E/DX2                !
 ! A58   A(11,14,13)            92.9164         estimate D2E/DX2                !
 ! D1    D(15,1,2,3)          -179.9873         estimate D2E/DX2                !
 ! D2    D(16,1,2,3)            60.8098         estimate D2E/DX2                !
 ! D3    D(17,1,2,3)           -60.7812         estimate D2E/DX2                !
 ! D4    D(1,2,3,4)            179.9929         estimate D2E/DX2                !
 ! D5    D(1,2,3,18)            59.3503         estimate D2E/DX2                !
 ! D6    D(1,2,3,19)           -59.3743         estimate D2E/DX2                !
 ! D7    D(2,3,4,5)            179.9899         estimate D2E/DX2                !
 ! D8    D(2,3,4,20)            57.8608         estimate D2E/DX2                !
 ! D9    D(2,3,4,21)           -57.8885         estimate D2E/DX2                !
 ! D10   D(18,3,4,5)           -59.8554         estimate D2E/DX2                !
 ! D11   D(18,3,4,20)          178.0154         estimate D2E/DX2                !
 ! D12   D(18,3,4,21)           62.2661         estimate D2E/DX2                !
 ! D13   D(19,3,4,5)            59.8466         estimate D2E/DX2                !
 ! D14   D(19,3,4,20)          -62.2825         estimate D2E/DX2                !
 ! D15   D(19,3,4,21)         -178.0318         estimate D2E/DX2                !
 ! D16   D(3,4,5,6)           -179.9919         estimate D2E/DX2                !
 ! D17   D(3,4,5,22)            59.517          estimate D2E/DX2                !
 ! D18   D(3,4,5,23)           -59.5018         estimate D2E/DX2                !
 ! D19   D(20,4,5,6)           -57.9965         estimate D2E/DX2                !
 ! D20   D(20,4,5,22)         -178.4876         estimate D2E/DX2                !
 ! D21   D(20,4,5,23)           62.4937         estimate D2E/DX2                !
 ! D22   D(21,4,5,6)            58.0195         estimate D2E/DX2                !
 ! D23   D(21,4,5,22)          -62.4716         estimate D2E/DX2                !
 ! D24   D(21,4,5,23)          178.5097         estimate D2E/DX2                !
 ! D25   D(4,5,6,7)           -179.8379         estimate D2E/DX2                !
 ! D26   D(22,5,6,7)           -59.1639         estimate D2E/DX2                !
 ! D27   D(23,5,6,7)            59.4764         estimate D2E/DX2                !
 ! D28   D(5,6,7,8)            179.7409         estimate D2E/DX2                !
 ! D29   D(5,6,7,24)            58.9837         estimate D2E/DX2                !
 ! D30   D(5,6,7,25)           -59.4927         estimate D2E/DX2                !
 ! D31   D(6,7,8,9)           -179.6544         estimate D2E/DX2                !
 ! D32   D(6,7,8,26)            57.5825         estimate D2E/DX2                !
 ! D33   D(6,7,8,27)           -56.7905         estimate D2E/DX2                !
 ! D34   D(24,7,8,9)           -59.5627         estimate D2E/DX2                !
 ! D35   D(24,7,8,26)          177.6742         estimate D2E/DX2                !
 ! D36   D(24,7,8,27)           63.3012         estimate D2E/DX2                !
 ! D37   D(25,7,8,9)            60.3298         estimate D2E/DX2                !
 ! D38   D(25,7,8,26)          -62.4332         estimate D2E/DX2                !
 ! D39   D(25,7,8,27)         -176.8063         estimate D2E/DX2                !
 ! D40   D(7,8,9,10)          -178.5078         estimate D2E/DX2                !
 ! D41   D(7,8,9,28)            59.7616         estimate D2E/DX2                !
 ! D42   D(7,8,9,29)           -59.1248         estimate D2E/DX2                !
 ! D43   D(26,8,9,10)          -56.2225         estimate D2E/DX2                !
 ! D44   D(26,8,9,28)         -177.953          estimate D2E/DX2                !
 ! D45   D(26,8,9,29)           63.1606         estimate D2E/DX2                !
 ! D46   D(27,8,9,10)           58.985          estimate D2E/DX2                !
 ! D47   D(27,8,9,28)          -62.7456         estimate D2E/DX2                !
 ! D48   D(27,8,9,29)          178.368          estimate D2E/DX2                !
 ! D49   D(8,9,10,11)          176.5711         estimate D2E/DX2                !
 ! D50   D(28,9,10,11)         -62.6218         estimate D2E/DX2                !
 ! D51   D(29,9,10,11)          57.8013         estimate D2E/DX2                !
 ! D52   D(9,10,11,12)        -137.0079         estimate D2E/DX2                !
 ! D53   D(9,10,11,14)          48.0041         estimate D2E/DX2                !
 ! D54   D(10,11,12,13)       -177.6299         estimate D2E/DX2                !
 ! D55   D(10,11,12,30)          2.3531         estimate D2E/DX2                !
 ! D56   D(14,11,12,13)         -1.2949         estimate D2E/DX2                !
 ! D57   D(14,11,12,30)        178.6881         estimate D2E/DX2                !
 ! D58   D(10,11,14,13)        177.5966         estimate D2E/DX2                !
 ! D59   D(12,11,14,13)          1.3263         estimate D2E/DX2                !
 ! D60   D(11,12,13,14)          1.162          estimate D2E/DX2                !
 ! D61   D(11,12,13,31)       -111.077          estimate D2E/DX2                !
 ! D62   D(11,12,13,32)        115.0356         estimate D2E/DX2                !
 ! D63   D(30,12,13,14)       -178.8213         estimate D2E/DX2                !
 ! D64   D(30,12,13,31)         68.9396         estimate D2E/DX2                !
 ! D65   D(30,12,13,32)        -64.9477         estimate D2E/DX2                !
 ! D66   D(12,13,14,11)         -1.218          estimate D2E/DX2                !
 ! D67   D(31,13,14,11)        115.9568         estimate D2E/DX2                !
 ! D68   D(32,13,14,11)       -117.9417         estimate D2E/DX2                !
 --------------------------------------------------------------------------------
 Trust Radius=3.00D-01 FncErr=1.00D-07 GrdErr=1.00D-06 EigMax=2.50D+02 EigMin=1.00D-04
 Number of steps in this run=    168 maximum allowed number of steps=    192.
 GradGradGradGradGradGradGradGradGradGradGradGradGradGradGradGradGradGrad

                          Input orientation:                          
 ---------------------------------------------------------------------
 Center     Atomic      Atomic             Coordinates (Angstroms)
 Number     Number       Type             X           Y           Z
 ---------------------------------------------------------------------
      1          6           0        1.006610    0.090160    0.021450
      2          8           0        2.429710    0.096010    0.038760
      3          6           0        2.915180    0.508190    1.313300
      4          6           0        4.437540    0.508230    1.313160
      5          6           0        4.953220    0.949150    2.675750
      6          8           0        6.383540    0.956540    2.697730
      7          6           0        6.864590    1.368510    3.983190
      8          6           0        8.391790    1.372260    4.014900
      9          6           0        8.930730    1.804810    5.393220
     10          8           0       10.358280    1.825280    5.360060
     11          6           0       10.933660    2.235780    6.427500
     12          6           0       11.986170    3.069180    6.631190
     13          6           0       11.865040    2.824720    8.089530
     14          8           0       10.782430    1.949460    7.683440
     15          1           0        0.668420   -0.229730   -0.966990
     16          1           0        0.621000    1.095680    0.217540
     17          1           0        0.621190   -0.609950    0.769470
     18          1           0        2.541290   -0.180550    2.080250
     19          1           0        2.541280    1.515610    1.531580
     20          1           0        4.818860    1.168490    0.524620
     21          1           0        4.818900   -0.488840    1.060980
     22          1           0        4.584020    0.262380    3.447020
     23          1           0        4.583830    1.957400    2.898870
     24          1           0        6.479010    0.677190    4.740640
     25          1           0        6.485140    2.375130    4.192510
     26          1           0        8.775770    2.034270    3.227230
     27          1           0        8.772150    0.377510    3.749300
     28          1           0        8.566550    1.111370    6.160850
     29          1           0        8.555250    2.812770    5.613040
     30          1           0       12.638940    3.660580    6.011280
     31          1           0       11.524820    3.656000    8.716340
     32          1           0       12.700550    2.309670    8.579920
 ---------------------------------------------------------------------
                    Distance matrix (angstroms):
                    1          2          3          4          5
     1  C    0.000000
     2  O    1.423217   0.000000
     3  C    2.342278   1.424790   0.000000
     4  C    3.689794   2.413587   1.522360   0.000000
     5  C    4.833105   3.748289   2.490848   1.522166   0.000000
     6  O    6.068317   4.841839   3.761274   2.430007   1.430508
     7  C    7.186480   6.070086   4.844203   3.709409   2.353422
     8  C    8.493074   7.279073   6.167537   4.866420   3.714311
     9  C    9.725616   8.593806   7.383347   6.206188   4.892584
    10  O   10.907114   9.704063   8.573840   7.291583   6.098180
    11  C   12.007809  10.849506   9.666211   8.446329   7.176121
    12  C   13.157278  11.984398  10.822268   9.582365   8.342806
    13  C   13.801349  12.699851  11.462268  10.317610   8.977752
    14  O   12.559050  11.473637  10.224948   9.105781   7.749662
    15  H    1.092573   2.054211   3.285145   4.466535   5.746201
    16  H    1.094631   2.074303   2.609425   4.013908   4.983212
    17  H    1.094640   2.074382   2.609287   4.013783   4.983089
    18  H    2.582089   2.063157   1.096526   2.158381   2.729148
    19  H    2.582172   2.063062   1.096514   2.158315   2.729003
    20  H    3.993648   2.663515   2.163795   1.096879   2.166454
    21  H    3.993672   2.663684   2.163766   1.096895   2.166412
    22  H    4.956012   4.035464   2.719965   2.152965   1.096731
    23  H    4.956070   4.035497   2.720043   2.153130   1.096722
    24  H    7.250001   6.232357   4.947333   3.992965   2.581815
    25  H    7.254869   6.236549   4.951760   3.996078   2.584716
    26  H    8.626496   7.361771   6.351265   4.981235   4.011671
    27  H    8.618761   7.353495   6.344704   4.974003   4.007931
    28  H    9.792231   8.727643   7.469977   6.396296   5.022787
    29  H    9.780616   8.716400   7.457160   6.383996   5.007532
    30  H   13.562340  12.353361  11.249893   9.963564   8.806129
    31  H   14.104931  13.065028  11.783022  10.721244   9.327470
    32  H   14.660214  13.540379  12.320818  11.150261   9.835210
                    6          7          8          9         10
     6  O    0.000000
     7  C    1.433016   0.000000
     8  C    2.437381   1.527534   0.000000
     9  C    3.804393   2.539188   1.541857   0.000000
    10  O    4.862229   3.782893   2.425235   1.428082   0.000000
    11  C    6.020900   4.825364   3.609350   2.295038   1.280235
    12  C    7.164134   6.011220   4.758579   3.530852   2.411034
    13  C    7.912550   6.632275   5.547586   4.113451   3.274021
    14  O    6.722606   5.420224   4.416617   2.948699   2.365041
    15  H    6.892025   8.090190   9.329311  10.623436  11.753638
    16  H    6.275155   7.296367   8.653416   9.815403  11.035962
    17  H    6.275090   7.295365   8.651254   9.811146  11.036973
    18  H    4.054274   4.971085   6.354718   7.466081   8.711248
    19  H    4.054063   4.972227   6.357350   7.471343   8.709687
    20  H    2.686178   4.023273   4.998940   6.404346   7.382278
    21  H    2.686293   4.021680   4.995486   6.398147   7.383899
    22  H    2.069194   2.590753   4.006674   5.006064   6.280482
    23  H    2.069090   2.593146   4.011044   5.014041   6.278470
    24  H    2.064130   1.095594   2.160682   2.776386   4.092741
    25  H    2.063271   1.095938   2.161622   2.783501   4.082490
    26  H    2.676684   2.160398   1.098236   2.183616   2.664015
    27  H    2.673300   2.162307   1.097609   2.182844   2.684473
    28  H    4.096670   2.775787   2.168803   1.096696   2.088355
    29  H    4.081782   2.756924   2.157739   1.097857   2.071244
    30  H    7.577696   6.535277   5.221133   4.192458   2.998970
    31  H    8.363224   7.025174   6.093840   4.604273   3.997120
    32  H    8.737032   7.488267   6.346933   4.962004   4.011030
                   11         12         13         14         15
    11  C    0.000000
    12  C    1.357874   0.000000
    13  C    1.994157   1.483640   0.000000
    14  O    1.297010   1.951920   1.450184   0.000000
    15  H   12.889235  14.025213  14.721227  13.485993   0.000000
    16  H   12.091914  13.198360  13.834242  12.638167   1.778221
    17  H   12.102005  13.306334  13.849347  12.554057   1.778227
    18  H    9.755466  10.976227  11.492407  10.190636   3.577112
    19  H    9.742726  10.845531  11.474013  10.293209   3.577243
    20  H    8.565855   9.605892  10.469939   9.350015   4.626670
    21  H    8.579824   9.749693  10.489437   9.239371   4.626693
    22  H    7.286666   8.532813   9.007316   7.695049   5.920944
    23  H    7.269736   8.364264   8.983942   7.830378   5.921051
    24  H    5.011847   6.294808   6.695989   5.366392   8.195273
    25  H    4.980354   6.057243   6.658245   5.552881   8.199998
    26  H    3.865077   4.792145   5.814668   4.887912   9.404589
    27  H    3.911272   5.087269   5.864504   4.689319   9.395881
    28  H    2.634124   3.968380   4.187530   2.816167  10.723111
    29  H    2.579360   3.587978   4.133746   3.161043  10.712408
    30  H    2.260813   1.077103   2.369959   3.028313  14.391807
    31  H    2.757768   2.214735   1.095293   2.128451  15.057463
    32  H    2.785726   2.210145   1.097195   2.147699  15.568050
                   16         17         18         19         20
    16  H    0.000000
    17  H    1.792708   0.000000
    18  H    2.964113   2.364173   0.000000
    19  H    2.364428   2.964045   1.782694   0.000000
    20  H    4.209706   4.565439   3.070378   2.514325   0.000000
    21  H    4.565573   4.209562   2.514252   3.070315   1.741960
    22  H    5.179716   4.861508   2.497397   3.067944   3.068649
    23  H    4.861699   5.179589   3.068051   2.497333   2.512903
    24  H    7.412817   7.193120   4.828978   5.148469   4.557664
    25  H    7.198994   7.417130   5.152387   4.834600   4.205459
    26  H    8.742966   8.917940   6.714889   6.481752   4.869375
    27  H    8.912370   8.734564   6.474625   6.710983   5.162626
    28  H    9.922447   9.754930   7.390813   7.609036   6.768717
    29  H    9.747417   9.905781   7.590012   7.383006   6.523518
    30  H   13.585912  13.789138  11.496513  11.253059   9.872568
    31  H   14.059805  14.150626  11.809345  11.700685  10.874828
    32  H   14.741733  14.677815  12.314929  12.390335  11.327453
                   21         22         23         24         25
    21  H    0.000000
    22  H    2.512506   0.000000
    23  H    3.068744   1.781449   0.000000
    24  H    4.201844   2.331632   2.936454   0.000000
    25  H    4.559074   2.938320   2.337302   1.784232   0.000000
    26  H    5.168708   4.556168   4.205483   3.067113   2.508971
    27  H    4.858581   4.200602   4.556458   2.516159   3.068768
    28  H    6.527957   4.893486   5.217120   2.561900   3.131089
    29  H    6.751458   5.192957   4.885750   3.103636   2.548488
    30  H   10.142790   9.110704   8.801859   6.961313   6.544430
    31  H   10.988794   9.351850   9.214420   7.080939   6.892317
    32  H   11.246623   9.819171   9.913605   7.490836   7.608217
                   26         27         28         29         30
    26  H    0.000000
    27  H    1.737073   0.000000
    28  H    3.082474   2.529110   0.000000
    29  H    2.519282   3.074258   1.787452   0.000000
    30  H    5.031888   5.554023   4.806787   4.189738   0.000000
    31  H    6.349615   6.557223   4.664443   4.377197   2.925514
    32  H    6.643119   6.519238   4.937386   5.122402   2.902872
                   31         32
    31  H    0.000000
    32  H    1.792639   0.000000
 Stoichiometry    C10H18O4
 Framework group  C1[X(C10H18O4)]
 Deg. of freedom    90
 Full point group                 C1      NOp   1
 Largest Abelian subgroup         C1      NOp   1
 Largest concise Abelian subgroup C1      NOp   1
                         Standard orientation:                         
 ---------------------------------------------------------------------
 Center     Atomic      Atomic             Coordinates (Angstroms)
 Number     Number       Type             X           Y           Z
 ---------------------------------------------------------------------
      1          6           0        7.335003    0.446721    0.156772
      2          8           0        6.192644   -0.372255   -0.066483
      3          6           0        4.994128    0.375959    0.117255
      4          6           0        3.784022   -0.515252   -0.125577
      5          6           0        2.505301    0.286599    0.071645
      6          8           0        1.354220   -0.532820   -0.151776
      7          6           0        0.152985    0.226835    0.031236
      8          6           0       -1.079990   -0.641394   -0.212304
      9          6           0       -2.384604    0.159616   -0.028768
     10          8           0       -3.504358   -0.702920   -0.232729
     11          6           0       -4.655045   -0.175244   -0.041737
     12          6           0       -5.771304   -0.628190    0.584864
     13          6           0       -6.465116    0.625705    0.200726
     14          8           0       -5.200489    0.932268   -0.439408
     15          1           0        8.234080   -0.155961    0.007938
     16          1           0        7.332749    0.828983    1.182485
     17          1           0        7.348229    1.280502   -0.552361
     18          1           0        4.985096    1.218312   -0.584692
     19          1           0        4.969447    0.769354    1.140472
     20          1           0        3.805106   -1.379390    0.549675
     21          1           0        3.820228   -0.940524   -1.136028
     22          1           0        2.489675    1.129705   -0.629602
     23          1           0        2.474093    0.681276    1.094414
     24          1           0        0.159206    1.068335   -0.670310
     25          1           0        0.138019    0.616216    1.055559
     26          1           0       -1.061861   -1.506388    0.464141
     27          1           0       -1.035731   -1.076967   -1.218814
     28          1           0       -2.400829    0.996848   -0.736950
     29          1           0       -2.409019    0.555183    0.995058
     30          1           0       -6.049448   -1.514329    1.130341
     31          1           0       -6.716904    1.331042    0.999956
     32          1           0       -7.310545    0.535497   -0.492778
 ---------------------------------------------------------------------
 Rotational constants (GHZ):           5.2510826           0.1218110           0.1204220
 Standard basis: 6-31G(2df,p) (6D, 7F)
 There are   524 symmetry adapted cartesian basis functions of A   symmetry.
 There are   482 symmetry adapted basis functions of A   symmetry.
   482 basis functions,   742 primitive gaussians,   524 cartesian basis functions
    55 alpha electrons       55 beta electrons
       nuclear repulsion energy       847.5594934627 Hartrees.
 NAtoms=   32 NActive=   32 NUniq=   32 SFac= 1.00D+00 NAtFMM=   60 NAOKFM=F Big=F
 Integral buffers will be    131072 words long.
 Raffenetti 2 integral format.
 Two-electron integral symmetry is turned on.
 One-electron integrals computed using PRISM.
 PrsmSu:  requested number of processors reduced to:  12 ShMem   1 Linda.
 NBasis=   482 RedAO= T EigKep=  6.63D-04  NBF=   482
 NBsUse=   482 1.00D-06 EigRej= -1.00D+00 NBFU=   482
 ExpMin= 1.61D-01 ExpMax= 5.48D+03 ExpMxC= 8.25D+02 IAcc=3 IRadAn=         5 AccDes= 0.00D+00
 Harris functional with IExCor=  402 and IRadAn=       5 diagonalized for initial guess.
 HarFok:  IExCor=  402 AccDes= 0.00D+00 IRadAn=         5 IDoV= 1 UseB2=F ITyADJ=14
 ICtDFT=  3500011 ScaDFX=  1.000000  1.000000  1.000000  1.000000
 FoFCou: FMM=F IPFlag=           0 FMFlag=      100000 FMFlg1=           0
         NFxFlg=           0 DoJE=T BraDBF=F KetDBF=T FulRan=T
         wScrn=  0.000000 ICntrl=       500 IOpCl=  0 I1Cent=   200000004 NGrid=           0
         NMat0=    1 NMatS0=      1 NMatT0=    0 NMatD0=    1 NMtDS0=    0 NMtDT0=    0
 Petite list used in FoFCou.
 Requested convergence on RMS density matrix=1.00D-08 within 128 cycles.
 Requested convergence on MAX density matrix=1.00D-06.
 Requested convergence on             energy=1.00D-06.
 No special actions if energy rises.
 Integral accuracy reduced to 1.0D-05 until final iterations.
 Initial convergence to 1.0D-05 achieved.  Increase integral accuracy.
 SCF Done:  E(RB3LYP) =  -692.717310410     A.U. after   13 cycles
            NFock= 13  Conv=0.34D-08     -V/T= 2.0067

 **********************************************************************

            Population analysis using the SCF density.

 **********************************************************************

 Orbital symmetries:
       Occupied  (A) (A) (A) (A) (A) (A) (A) (A) (A) (A) (A) (A)
                 (A) (A) (A) (A) (A) (A) (A) (A) (A) (A) (A) (A)
                 (A) (A) (A) (A) (A) (A) (A) (A) (A) (A) (A) (A)
                 (A) (A) (A) (A) (A) (A) (A) (A) (A) (A) (A) (A)
                 (A) (A) (A) (A) (A) (A) (A)
       Virtual   (A) (A) (A) (A) (A) (A) (A) (A) (A) (A) (A) (A)
                 (A) (A) (A) (A) (A) (A) (A) (A) (A) (A) (A) (A)
                 (A) (A) (A) (A) (A) (A) (A) (A) (A) (A) (A) (A)
                 (A) (A) (A) (A) (A) (A) (A) (A) (A) (A) (A) (A)
                 (A) (A) (A) (A) (A) (A) (A) (A) (A) (A) (A) (A)
                 (A) (A) (A) (A) (A) (A) (A) (A) (A) (A) (A) (A)
                 (A) (A) (A) (A) (A) (A) (A) (A) (A) (A) (A) (A)
                 (A) (A) (A) (A) (A) (A) (A) (A) (A) (A) (A) (A)
                 (A) (A) (A) (A) (A) (A) (A) (A) (A) (A) (A) (A)
                 (A) (A) (A) (A) (A) (A) (A) (A) (A) (A) (A) (A)
                 (A) (A) (A) (A) (A) (A) (A) (A) (A) (A) (A) (A)
                 (A) (A) (A) (A) (A) (A) (A) (A) (A) (A) (A) (A)
                 (A) (A) (A) (A) (A) (A) (A) (A) (A) (A) (A) (A)
                 (A) (A) (A) (A) (A) (A) (A) (A) (A) (A) (A) (A)
                 (A) (A) (A) (A) (A) (A) (A) (A) (A) (A) (A) (A)
                 (A) (A) (A) (A) (A) (A) (A) (A) (A) (A) (A) (A)
                 (A) (A) (A) (A) (A) (A) (A) (A) (A) (A) (A) (A)
                 (A) (A) (A) (A) (A) (A) (A) (A) (A) (A) (A) (A)
                 (A) (A) (A) (A) (A) (A) (A) (A) (A) (A) (A) (A)
                 (A) (A) (A) (A) (A) (A) (A) (A) (A) (A) (A) (A)
                 (A) (A) (A) (A) (A) (A) (A) (A) (A) (A) (A) (A)
                 (A) (A) (A) (A) (A) (A) (A) (A) (A) (A) (A) (A)
                 (A) (A) (A) (A) (A) (A) (A) (A) (A) (A) (A) (A)
                 (A) (A) (A) (A) (A) (A) (A) (A) (A) (A) (A) (A)
                 (A) (A) (A) (A) (A) (A) (A) (A) (A) (A) (A) (A)
                 (A) (A) (A) (A) (A) (A) (A) (A) (A) (A) (A) (A)
                 (A) (A) (A) (A) (A) (A) (A) (A) (A) (A) (A) (A)
                 (A) (A) (A) (A) (A) (A) (A) (A) (A) (A) (A) (A)
                 (A) (A) (A) (A) (A) (A) (A) (A) (A) (A) (A) (A)
                 (A) (A) (A) (A) (A) (A) (A) (A) (A) (A) (A) (A)
                 (A) (A) (A) (A) (A) (A) (A) (A) (A) (A) (A) (A)
                 (A) (A) (A) (A) (A) (A) (A) (A) (A) (A) (A) (A)
                 (A) (A) (A) (A) (A) (A) (A) (A) (A) (A) (A) (A)
                 (A) (A) (A) (A) (A) (A) (A) (A) (A) (A) (A) (A)
                 (A) (A) (A) (A) (A) (A) (A) (A) (A) (A) (A) (A)
                 (A) (A) (A) (A) (A) (A) (A)
 The electronic state is 1-A.
 Alpha  occ. eigenvalues --  -19.18710 -19.15837 -19.14249 -19.13796 -10.26921
 Alpha  occ. eigenvalues --  -10.25251 -10.23648 -10.23386 -10.23193 -10.22942
 Alpha  occ. eigenvalues --  -10.22359 -10.19396 -10.18246 -10.13964  -1.12883
 Alpha  occ. eigenvalues --   -1.07775  -1.02767  -1.02477  -0.80580  -0.78259
 Alpha  occ. eigenvalues --   -0.73444  -0.71779  -0.68994  -0.65723  -0.63245
 Alpha  occ. eigenvalues --   -0.60727  -0.59380  -0.56426  -0.51733  -0.50773
 Alpha  occ. eigenvalues --   -0.49919  -0.49013  -0.48535  -0.48296  -0.47239
 Alpha  occ. eigenvalues --   -0.46435  -0.44902  -0.43792  -0.42708  -0.41942
 Alpha  occ. eigenvalues --   -0.40345  -0.38590  -0.36747  -0.36400  -0.35635
 Alpha  occ. eigenvalues --   -0.34659  -0.34294  -0.33811  -0.32168  -0.31977
 Alpha  occ. eigenvalues --   -0.31698  -0.29833  -0.26176  -0.25350  -0.18442
 Alpha virt. eigenvalues --    0.05376   0.07593   0.08701   0.09375   0.09896
 Alpha virt. eigenvalues --    0.10238   0.11718   0.12322   0.12805   0.13515
 Alpha virt. eigenvalues --    0.13675   0.14681   0.15728   0.16121   0.16838
 Alpha virt. eigenvalues --    0.17600   0.18503   0.18877   0.19240   0.19335
 Alpha virt. eigenvalues --    0.19832   0.20346   0.20479   0.21304   0.21334
 Alpha virt. eigenvalues --    0.22665   0.23616   0.25081   0.26355   0.28840
 Alpha virt. eigenvalues --    0.30419   0.35629   0.39550   0.40142   0.41562
 Alpha virt. eigenvalues --    0.42965   0.43858   0.45381   0.46413   0.47558
 Alpha virt. eigenvalues --    0.48567   0.49114   0.50333   0.50466   0.51114
 Alpha virt. eigenvalues --    0.51452   0.52581   0.54958   0.56136   0.57245
 Alpha virt. eigenvalues --    0.57750   0.58297   0.58586   0.59599   0.59824
 Alpha virt. eigenvalues --    0.60040   0.61533   0.62364   0.63526   0.66526
 Alpha virt. eigenvalues --    0.68004   0.69001   0.69522   0.70023   0.70276
 Alpha virt. eigenvalues --    0.71439   0.71847   0.72628   0.73185   0.73576
 Alpha virt. eigenvalues --    0.74080   0.74427   0.74545   0.75906   0.76785
 Alpha virt. eigenvalues --    0.78484   0.78554   0.79130   0.79557   0.80303
 Alpha virt. eigenvalues --    0.81414   0.81967   0.82676   0.84453   0.85166
 Alpha virt. eigenvalues --    0.86112   0.86612   0.87591   0.89019   0.89303
 Alpha virt. eigenvalues --    0.90305   0.91545   0.94246   0.94887   0.95979
 Alpha virt. eigenvalues --    0.96773   0.98653   1.00816   1.01864   1.02873
 Alpha virt. eigenvalues --    1.03853   1.04153   1.06019   1.08099   1.11417
 Alpha virt. eigenvalues --    1.13701   1.15147   1.16578   1.18511   1.19569
 Alpha virt. eigenvalues --    1.19768   1.21304   1.23736   1.23943   1.24976
 Alpha virt. eigenvalues --    1.26786   1.28206   1.29561   1.31511   1.33147
 Alpha virt. eigenvalues --    1.33803   1.34653   1.36054   1.36228   1.36579
 Alpha virt. eigenvalues --    1.37172   1.37564   1.38167   1.39271   1.39405
 Alpha virt. eigenvalues --    1.41177   1.43538   1.44349   1.44986   1.47010
 Alpha virt. eigenvalues --    1.48395   1.51238   1.52598   1.53938   1.55013
 Alpha virt. eigenvalues --    1.57078   1.58710   1.59674   1.60729   1.61625
 Alpha virt. eigenvalues --    1.63284   1.64690   1.67264   1.67880   1.69590
 Alpha virt. eigenvalues --    1.70075   1.71505   1.72261   1.73374   1.73937
 Alpha virt. eigenvalues --    1.76064   1.77317   1.77753   1.78646   1.79547
 Alpha virt. eigenvalues --    1.81370   1.83724   1.86293   1.86701   1.88101
 Alpha virt. eigenvalues --    1.91114   1.92073   1.92525   1.93017   1.95205
 Alpha virt. eigenvalues --    1.98936   2.02734   2.09678   2.12775   2.14152
 Alpha virt. eigenvalues --    2.16003   2.16098   2.17571   2.19687   2.21095
 Alpha virt. eigenvalues --    2.25569   2.26809   2.28566   2.29226   2.30076
 Alpha virt. eigenvalues --    2.32270   2.34299   2.35425   2.36214   2.40861
 Alpha virt. eigenvalues --    2.42188   2.43507   2.46816   2.48269   2.48729
 Alpha virt. eigenvalues --    2.51074   2.55349   2.58375   2.60103   2.63096
 Alpha virt. eigenvalues --    2.64755   2.65435   2.66822   2.68331   2.70428
 Alpha virt. eigenvalues --    2.71923   2.72668   2.73169   2.76030   2.76301
 Alpha virt. eigenvalues --    2.76787   2.77376   2.78647   2.79381   2.80674
 Alpha virt. eigenvalues --    2.80918   2.81322   2.83366   2.84504   2.86005
 Alpha virt. eigenvalues --    2.87041   2.88807   2.89905   2.90949   2.91362
 Alpha virt. eigenvalues --    2.91906   2.93331   2.94021   2.94230   2.94563
 Alpha virt. eigenvalues --    2.95803   2.98712   2.99213   3.02698   3.05081
 Alpha virt. eigenvalues --    3.05821   3.08364   3.09903   3.10594   3.12650
 Alpha virt. eigenvalues --    3.15161   3.16483   3.17936   3.19008   3.21138
 Alpha virt. eigenvalues --    3.24972   3.26027   3.28992   3.29856   3.30786
 Alpha virt. eigenvalues --    3.31327   3.32775   3.34349   3.35461   3.38016
 Alpha virt. eigenvalues --    3.39279   3.39953   3.40096   3.40862   3.42624
 Alpha virt. eigenvalues --    3.45718   3.46437   3.47807   3.48493   3.49609
 Alpha virt. eigenvalues --    3.52751   3.53558   3.54694   3.57234   3.57602
 Alpha virt. eigenvalues --    3.58379   3.59880   3.64390   3.64554   3.66060
 Alpha virt. eigenvalues --    3.67897   3.68197   3.68917   3.71341   3.72204
 Alpha virt. eigenvalues --    3.73027   3.73303   3.75245   3.77541   3.79620
 Alpha virt. eigenvalues --    3.81890   3.86978   3.87047   3.88928   3.94388
 Alpha virt. eigenvalues --    3.96526   3.96784   4.02136   4.03240   4.13352
 Alpha virt. eigenvalues --    4.17212   4.23070   4.25220   4.26899   4.29723
 Alpha virt. eigenvalues --    4.30763   4.32043   4.33154   4.36074   4.36292
 Alpha virt. eigenvalues --    4.37421   4.37716   4.38590   4.39205   4.41456
 Alpha virt. eigenvalues --    4.42619   4.43383   4.43698   4.44135   4.44998
 Alpha virt. eigenvalues --    4.45684   4.46002   4.46301   4.48283   4.48893
 Alpha virt. eigenvalues --    4.49126   4.50982   4.51194   4.51496   4.51931
 Alpha virt. eigenvalues --    4.53487   4.53746   4.55745   4.56561   4.57392
 Alpha virt. eigenvalues --    4.59780   4.60541   4.60740   4.61796   4.62268
 Alpha virt. eigenvalues --    4.63950   4.64142   4.66244   4.66597   4.66966
 Alpha virt. eigenvalues --    4.68238   4.68391   4.71086   4.71950   4.72735
 Alpha virt. eigenvalues --    4.73350   4.74067   4.76082   4.78763   4.80501
 Alpha virt. eigenvalues --    4.80831   4.81736   4.82939   4.85005   4.86037
 Alpha virt. eigenvalues --    4.86493   4.87934   4.89957   4.90601   4.92008
 Alpha virt. eigenvalues --    4.92810   4.93093   4.93418   4.94510   4.97576
 Alpha virt. eigenvalues --    5.02017   5.11386   5.16920   5.18481   5.24667
 Alpha virt. eigenvalues --    5.25571   5.31838   5.33400   5.34878   5.38249
 Alpha virt. eigenvalues --    5.40169   5.41310   5.43378   5.44610   5.48207
 Alpha virt. eigenvalues --    5.50932   5.51599   5.53671   5.56061   5.56398
 Alpha virt. eigenvalues --    5.60214   5.65624   5.74485   5.77859   5.83648
 Alpha virt. eigenvalues --    5.84215   5.85053   5.92035   5.92311   5.94448
 Alpha virt. eigenvalues --    5.98078   5.99566   6.01263   6.01515   6.07143
 Alpha virt. eigenvalues --    6.13335   6.15422   6.18431   6.23481   6.28084
 Alpha virt. eigenvalues --    6.32825   6.50857   6.61026   6.69710   6.99439
 Alpha virt. eigenvalues --    7.05419   7.15487   7.20145  10.44568  11.14224
 Alpha virt. eigenvalues --   11.23035  11.27734  11.42650  11.74964  11.78797
 Alpha virt. eigenvalues --   11.91234  12.10001  12.20892  13.33315  13.41740
 Alpha virt. eigenvalues --   13.45038  13.68573
          Condensed to atoms (all electrons):
               1          2          3          4          5          6
     1  C    4.823850   0.366202  -0.081391   0.004085  -0.000281   0.000000
     2  O    0.366202   7.687265   0.365170  -0.025542   0.001341  -0.000002
     3  C   -0.081391   0.365170   4.756993   0.390490  -0.041920   0.001310
     4  C    0.004085  -0.025542   0.390490   4.928127   0.388131  -0.024852
     5  C   -0.000281   0.001341  -0.041920   0.388131   4.756400   0.357206
     6  O    0.000000  -0.000002   0.001310  -0.024852   0.357206   7.724425
     7  C   -0.000000   0.000000  -0.000265   0.002707  -0.068139   0.354347
     8  C    0.000000  -0.000000   0.000001  -0.000224   0.002723  -0.023976
     9  C    0.000000   0.000000   0.000000   0.000001  -0.000220   0.001250
    10  O    0.000000  -0.000000   0.000000  -0.000000   0.000000  -0.000001
    11  C    0.000000   0.000000   0.000000   0.000000  -0.000000   0.000000
    12  C    0.000000   0.000000   0.000000  -0.000000   0.000000  -0.000000
    13  C    0.000000   0.000000  -0.000000   0.000000  -0.000000   0.000000
    14  O    0.000000   0.000000  -0.000000  -0.000000   0.000000   0.000000
    15  H    0.384759  -0.018586   0.005139  -0.000290  -0.000001  -0.000000
    16  H    0.369466  -0.033125  -0.006676   0.000139   0.000038   0.000000
    17  H    0.369477  -0.033113  -0.006680   0.000139   0.000038   0.000000
    18  H   -0.004887  -0.032869   0.350424  -0.035953   0.000190  -0.000025
    19  H   -0.004880  -0.032881   0.350400  -0.035984   0.000201  -0.000025
    20  H    0.000138   0.002105  -0.024177   0.358168  -0.024014   0.001959
    21  H    0.000138   0.002103  -0.024157   0.358139  -0.023999   0.001973
    22  H    0.000012  -0.000027   0.000007  -0.036469   0.350933  -0.031598
    23  H    0.000013  -0.000028   0.000037  -0.036588   0.350873  -0.031613
    24  H    0.000000   0.000000   0.000039   0.000171  -0.005289  -0.031827
    25  H    0.000000   0.000000   0.000039   0.000161  -0.005170  -0.031898
    26  H    0.000000   0.000000   0.000000   0.000011   0.000130   0.002242
    27  H    0.000000   0.000000   0.000000   0.000011   0.000130   0.002257
    28  H    0.000000  -0.000000   0.000000   0.000000   0.000009  -0.000035
    29  H    0.000000   0.000000   0.000000   0.000000   0.000010  -0.000031
    30  H    0.000000   0.000000  -0.000000   0.000000   0.000000   0.000000
    31  H    0.000000   0.000000   0.000000  -0.000000  -0.000000  -0.000000
    32  H    0.000000   0.000000  -0.000000   0.000000   0.000000   0.000000
               7          8          9         10         11         12
     1  C   -0.000000   0.000000   0.000000   0.000000   0.000000   0.000000
     2  O    0.000000  -0.000000   0.000000  -0.000000   0.000000   0.000000
     3  C   -0.000265   0.000001   0.000000   0.000000   0.000000   0.000000
     4  C    0.002707  -0.000224   0.000001  -0.000000   0.000000  -0.000000
     5  C   -0.068139   0.002723  -0.000220   0.000000  -0.000000   0.000000
     6  O    0.354347  -0.023976   0.001250  -0.000001   0.000000  -0.000000
     7  C    4.750519   0.396137  -0.038632   0.001329   0.000077   0.000006
     8  C    0.396137   4.938267   0.381857  -0.025736  -0.001298  -0.000169
     9  C   -0.038632   0.381857   4.824259   0.342597  -0.083114   0.001292
    10  O    0.001329  -0.025736   0.342597   7.542882   0.471158  -0.035160
    11  C    0.000077  -0.001298  -0.083114   0.471158   4.283780   0.605628
    12  C    0.000006  -0.000169   0.001292  -0.035160   0.605628   5.240699
    13  C   -0.000000  -0.000001  -0.000280   0.001550  -0.068039   0.338789
    14  O    0.000001   0.000184   0.001390  -0.011022   0.347957  -0.103997
    15  H    0.000000  -0.000000   0.000000   0.000000   0.000000   0.000000
    16  H    0.000000   0.000000  -0.000000   0.000000   0.000000   0.000000
    17  H    0.000000   0.000000  -0.000000   0.000000   0.000000   0.000000
    18  H    0.000014   0.000000   0.000000   0.000000   0.000000  -0.000000
    19  H    0.000014   0.000000   0.000000   0.000000   0.000000   0.000000
    20  H    0.000133   0.000011   0.000000   0.000000   0.000000   0.000000
    21  H    0.000134   0.000011   0.000000   0.000000   0.000000   0.000000
    22  H   -0.005721   0.000186   0.000034   0.000000   0.000000   0.000000
    23  H   -0.005619   0.000188   0.000033   0.000000   0.000000   0.000000
    24  H    0.351229  -0.036497   0.000393  -0.000016   0.000018  -0.000000
    25  H    0.351011  -0.035772  -0.000051  -0.000019   0.000016   0.000000
    26  H   -0.024271   0.358188  -0.024376   0.001965   0.000461  -0.000010
    27  H   -0.024224   0.358912  -0.025422   0.001795   0.000519   0.000001
    28  H   -0.000159  -0.034274   0.364538  -0.024065  -0.000079  -0.000712
    29  H    0.000335  -0.037490   0.347404  -0.031167   0.012777   0.004191
    30  H    0.000000  -0.000007  -0.000292  -0.000963  -0.027256   0.357850
    31  H   -0.000000  -0.000001   0.000089   0.000078  -0.008652  -0.014940
    32  H    0.000000   0.000000  -0.000013  -0.000045  -0.007805  -0.012287
              13         14         15         16         17         18
     1  C    0.000000   0.000000   0.384759   0.369466   0.369477  -0.004887
     2  O    0.000000   0.000000  -0.018586  -0.033125  -0.033113  -0.032869
     3  C   -0.000000  -0.000000   0.005139  -0.006676  -0.006680   0.350424
     4  C    0.000000  -0.000000  -0.000290   0.000139   0.000139  -0.035953
     5  C   -0.000000   0.000000  -0.000001   0.000038   0.000038   0.000190
     6  O    0.000000   0.000000  -0.000000   0.000000   0.000000  -0.000025
     7  C   -0.000000   0.000001   0.000000   0.000000   0.000000   0.000014
     8  C   -0.000001   0.000184  -0.000000   0.000000   0.000000   0.000000
     9  C   -0.000280   0.001390   0.000000  -0.000000  -0.000000   0.000000
    10  O    0.001550  -0.011022   0.000000   0.000000   0.000000   0.000000
    11  C   -0.068039   0.347957   0.000000   0.000000   0.000000   0.000000
    12  C    0.338789  -0.103997   0.000000   0.000000   0.000000  -0.000000
    13  C    4.856245   0.311849   0.000000   0.000000   0.000000  -0.000000
    14  O    0.311849   7.706942   0.000000   0.000000   0.000000  -0.000000
    15  H    0.000000   0.000000   0.572463  -0.035730  -0.035722  -0.000078
    16  H    0.000000   0.000000  -0.035730   0.637877  -0.049024  -0.002811
    17  H    0.000000   0.000000  -0.035722  -0.049024   0.637805   0.014490
    18  H   -0.000000  -0.000000  -0.000078  -0.002811   0.014490   0.682455
    19  H    0.000000  -0.000000  -0.000079   0.014486  -0.002811  -0.061450
    20  H   -0.000000  -0.000000   0.000007  -0.000044   0.000036   0.006466
    21  H   -0.000000  -0.000000   0.000007   0.000036  -0.000044  -0.007118
    22  H   -0.000000  -0.000000   0.000000   0.000001  -0.000001   0.005548
    23  H   -0.000000  -0.000000   0.000000  -0.000001   0.000001  -0.000686
    24  H    0.000000  -0.000000   0.000000   0.000000  -0.000000  -0.000002
    25  H    0.000000  -0.000000   0.000000  -0.000000   0.000000   0.000001
    26  H    0.000001   0.000003   0.000000   0.000000  -0.000000  -0.000000
    27  H    0.000000  -0.000009   0.000000   0.000000   0.000000   0.000000
    28  H    0.000036   0.003907  -0.000000  -0.000000   0.000000  -0.000000
    29  H   -0.000063  -0.001862  -0.000000   0.000000  -0.000000  -0.000000
    30  H   -0.048576   0.010168   0.000000   0.000000   0.000000   0.000000
    31  H    0.362786  -0.010853   0.000000   0.000000   0.000000  -0.000000
    32  H    0.359289  -0.011839   0.000000   0.000000   0.000000  -0.000000
              19         20         21         22         23         24
     1  C   -0.004880   0.000138   0.000138   0.000012   0.000013   0.000000
     2  O   -0.032881   0.002105   0.002103  -0.000027  -0.000028   0.000000
     3  C    0.350400  -0.024177  -0.024157   0.000007   0.000037   0.000039
     4  C   -0.035984   0.358168   0.358139  -0.036469  -0.036588   0.000171
     5  C    0.000201  -0.024014  -0.023999   0.350933   0.350873  -0.005289
     6  O   -0.000025   0.001959   0.001973  -0.031598  -0.031613  -0.031827
     7  C    0.000014   0.000133   0.000134  -0.005721  -0.005619   0.351229
     8  C    0.000000   0.000011   0.000011   0.000186   0.000188  -0.036497
     9  C    0.000000   0.000000   0.000000   0.000034   0.000033   0.000393
    10  O    0.000000   0.000000   0.000000   0.000000   0.000000  -0.000016
    11  C    0.000000   0.000000   0.000000   0.000000   0.000000   0.000018
    12  C    0.000000   0.000000   0.000000   0.000000   0.000000  -0.000000
    13  C    0.000000  -0.000000  -0.000000  -0.000000  -0.000000   0.000000
    14  O   -0.000000  -0.000000  -0.000000  -0.000000  -0.000000  -0.000000
    15  H   -0.000079   0.000007   0.000007   0.000000   0.000000   0.000000
    16  H    0.014486  -0.000044   0.000036   0.000001  -0.000001   0.000000
    17  H   -0.002811   0.000036  -0.000044  -0.000001   0.000001  -0.000000
    18  H   -0.061450   0.006466  -0.007118   0.005548  -0.000686  -0.000002
    19  H    0.682576  -0.007118   0.006467  -0.000687   0.005554   0.000001
    20  H   -0.007118   0.610806  -0.042100   0.006458  -0.007059   0.000035
    21  H    0.006467  -0.042100   0.610756  -0.007065   0.006461  -0.000043
    22  H   -0.000687   0.006458  -0.007065   0.678457  -0.060479   0.014769
    23  H    0.005554  -0.007059   0.006461  -0.060479   0.678812  -0.002941
    24  H    0.000001   0.000035  -0.000043   0.014769  -0.002941   0.674694
    25  H   -0.000002  -0.000042   0.000035  -0.002932   0.014660  -0.059458
    26  H    0.000000   0.000002  -0.000000   0.000037  -0.000043   0.006415
    27  H   -0.000000  -0.000000   0.000002  -0.000044   0.000038  -0.006866
    28  H   -0.000000  -0.000000   0.000000  -0.000001   0.000000   0.004745
    29  H   -0.000000   0.000000  -0.000000   0.000000  -0.000001  -0.000679
    30  H    0.000000   0.000000   0.000000  -0.000000   0.000000   0.000000
    31  H   -0.000000   0.000000  -0.000000  -0.000000   0.000000  -0.000000
    32  H    0.000000   0.000000   0.000000   0.000000  -0.000000   0.000000
              25         26         27         28         29         30
     1  C    0.000000   0.000000   0.000000   0.000000   0.000000   0.000000
     2  O    0.000000   0.000000   0.000000  -0.000000   0.000000   0.000000
     3  C    0.000039   0.000000   0.000000   0.000000   0.000000  -0.000000
     4  C    0.000161   0.000011   0.000011   0.000000   0.000000   0.000000
     5  C   -0.005170   0.000130   0.000130   0.000009   0.000010   0.000000
     6  O   -0.031898   0.002242   0.002257  -0.000035  -0.000031   0.000000
     7  C    0.351011  -0.024271  -0.024224  -0.000159   0.000335   0.000000
     8  C   -0.035772   0.358188   0.358912  -0.034274  -0.037490  -0.000007
     9  C   -0.000051  -0.024376  -0.025422   0.364538   0.347404  -0.000292
    10  O   -0.000019   0.001965   0.001795  -0.024065  -0.031167  -0.000963
    11  C    0.000016   0.000461   0.000519  -0.000079   0.012777  -0.027256
    12  C    0.000000  -0.000010   0.000001  -0.000712   0.004191   0.357850
    13  C    0.000000   0.000001   0.000000   0.000036  -0.000063  -0.048576
    14  O   -0.000000   0.000003  -0.000009   0.003907  -0.001862   0.010168
    15  H    0.000000   0.000000   0.000000  -0.000000  -0.000000   0.000000
    16  H   -0.000000   0.000000   0.000000  -0.000000   0.000000   0.000000
    17  H    0.000000  -0.000000   0.000000   0.000000  -0.000000   0.000000
    18  H    0.000001  -0.000000   0.000000  -0.000000  -0.000000   0.000000
    19  H   -0.000002   0.000000  -0.000000  -0.000000  -0.000000   0.000000
    20  H   -0.000042   0.000002  -0.000000  -0.000000   0.000000   0.000000
    21  H    0.000035  -0.000000   0.000002   0.000000  -0.000000   0.000000
    22  H   -0.002932   0.000037  -0.000044  -0.000001   0.000000  -0.000000
    23  H    0.014660  -0.000043   0.000038   0.000000  -0.000001   0.000000
    24  H   -0.059458   0.006415  -0.006866   0.004745  -0.000679   0.000000
    25  H    0.674761  -0.007024   0.006385  -0.000627   0.004945   0.000000
    26  H   -0.007024   0.603164  -0.041160   0.005580  -0.006174   0.000002
    27  H    0.006385  -0.041160   0.603136  -0.005946   0.005857  -0.000000
    28  H   -0.000627   0.005580  -0.005946   0.610818  -0.050792  -0.000008
    29  H    0.004945  -0.006174   0.005857  -0.050792   0.639057  -0.000004
    30  H    0.000000   0.000002  -0.000000  -0.000008  -0.000004   0.621571
    31  H    0.000000   0.000000  -0.000000   0.000016  -0.000073   0.001534
    32  H   -0.000000  -0.000000   0.000000  -0.000007   0.000013   0.001473
              31         32
     1  C    0.000000   0.000000
     2  O    0.000000   0.000000
     3  C    0.000000  -0.000000
     4  C   -0.000000   0.000000
     5  C   -0.000000   0.000000
     6  O   -0.000000   0.000000
     7  C   -0.000000   0.000000
     8  C   -0.000001   0.000000
     9  C    0.000089  -0.000013
    10  O    0.000078  -0.000045
    11  C   -0.008652  -0.007805
    12  C   -0.014940  -0.012287
    13  C    0.362786   0.359289
    14  O   -0.010853  -0.011839
    15  H    0.000000   0.000000
    16  H    0.000000   0.000000
    17  H    0.000000   0.000000
    18  H   -0.000000  -0.000000
    19  H   -0.000000   0.000000
    20  H    0.000000   0.000000
    21  H   -0.000000   0.000000
    22  H   -0.000000   0.000000
    23  H    0.000000  -0.000000
    24  H   -0.000000   0.000000
    25  H    0.000000  -0.000000
    26  H    0.000000  -0.000000
    27  H   -0.000000   0.000000
    28  H    0.000016  -0.000007
    29  H   -0.000073   0.000013
    30  H    0.001534   0.001473
    31  H    0.601163  -0.053620
    32  H   -0.053620   0.600766
 Mulliken charges:
               1
     1  C   -0.226702
     2  O   -0.248014
     3  C   -0.034783
     4  C   -0.234579
     5  C   -0.039320
     6  O   -0.271085
     7  C   -0.040960
     8  C   -0.241222
     9  C   -0.092739
    10  O   -0.235161
    11  C    0.473853
    12  C   -0.381182
    13  C   -0.113588
    14  O   -0.242820
    15  H    0.128110
    16  H    0.105368
    17  H    0.105411
    18  H    0.086293
    19  H    0.086218
    20  H    0.118230
    21  H    0.118265
    22  H    0.088582
    23  H    0.088390
    24  H    0.091110
    25  H    0.090981
    26  H    0.124858
    27  H    0.124627
    28  H    0.127056
    29  H    0.113750
    30  H    0.084508
    31  H    0.122472
    32  H    0.124074
 Sum of Mulliken charges =  -0.00000
 Mulliken charges with hydrogens summed into heavy atoms:
               1
     1  C    0.112187
     2  O   -0.248014
     3  C    0.137728
     4  C    0.001916
     5  C    0.137653
     6  O   -0.271085
     7  C    0.141131
     8  C    0.008263
     9  C    0.148067
    10  O   -0.235161
    11  C    0.473853
    12  C   -0.296675
    13  C    0.132958
    14  O   -0.242820
 Electronic spatial extent (au):  <R**2>=           8522.5317
 Charge=             -0.0000 electrons
 Dipole moment (field-independent basis, Debye):
    X=              1.1156    Y=              2.6300    Z=              1.0019  Tot=              3.0274
 Quadrupole moment (field-independent basis, Debye-Ang):
   XX=            -79.6969   YY=            -87.0855   ZZ=            -84.3017
   XY=              5.1754   XZ=             -0.5351   YZ=              0.0656
 Traceless Quadrupole moment (field-independent basis, Debye-Ang):
   XX=              3.9978   YY=             -3.3908   ZZ=             -0.6070
   XY=              5.1754   XZ=             -0.5351   YZ=              0.0656
 Octapole moment (field-independent basis, Debye-Ang**2):
  XXX=             17.2434  YYY=             -4.5177  ZZZ=             -4.8723  XYY=              3.1348
  XXY=             61.1621  XXZ=             24.9492  XZZ=              4.6826  YZZ=             -0.4511
  YYZ=              0.9911  XYZ=             -4.4528
 Hexadecapole moment (field-independent basis, Debye-Ang**3):
 XXXX=          -9313.9671 YYYY=           -288.7949 ZZZZ=           -165.4611 XXXY=             94.2325
 XXXZ=              3.4729 YYYX=            -22.1111 YYYZ=             -3.8258 ZZZX=             19.7105
 ZZZY=              2.3919 XXYY=          -1852.5969 XXZZ=          -1799.7300 YYZZ=            -71.6834
 XXYZ=             13.5602 YYXZ=            -15.5124 ZZXY=             -6.1054
 N-N= 8.475594934627D+02 E-N=-3.312345399910D+03  KE= 6.880766670811D+02
 PrsmSu:  requested number of processors reduced to:  13 ShMem   1 Linda.
 Calling FoFJK, ICntrl=      2127 FMM=F ISym2X=0 I1Cent= 0 IOpClX= 0 NMat=1 NMatS=1 NMatT=0.
 ***** Axes restored to original set *****
 -------------------------------------------------------------------
 Center     Atomic                   Forces (Hartrees/Bohr)
 Number     Number              X              Y              Z
 -------------------------------------------------------------------
      1        6           0.012686717   -0.000828115   -0.002580307
      2        8          -0.004032151    0.001381590    0.004341125
      3        6           0.001204905   -0.004633859   -0.014392775
      4        6           0.004658236   -0.001498868   -0.004623138
      5        6           0.013502111   -0.001578358   -0.004951955
      6        8          -0.002009595    0.002330427    0.007905253
      7        6           0.000646793   -0.004147900   -0.012713251
      8        6           0.006648675   -0.001882293   -0.004358605
      9        6          -0.019122589   -0.004975820   -0.014561385
     10        8          -0.032299164   -0.027135055   -0.023158041
     11        6           0.093636530    0.074601525   -0.020337317
     12        6           0.015865141    0.022381100   -0.038412400
     13        6           0.008085942    0.005261665   -0.013355001
     14        8          -0.066122246   -0.063792802    0.095429109
     15        1           0.002545788   -0.000219472   -0.000680808
     16        1          -0.004053295    0.002155736    0.001839450
     17        1          -0.004041951   -0.000668223    0.002748714
     18        1          -0.002222256   -0.000308398    0.004566805
     19        1          -0.002226895    0.002933084    0.003533055
     20        1          -0.001821606    0.002079094    0.002118025
     21        1          -0.001817564   -0.000429041    0.002939961
     22        1          -0.002353381   -0.000305486    0.003852342
     23        1          -0.002386782    0.002519219    0.002944878
     24        1          -0.002312994   -0.000098436    0.004970793
     25        1          -0.002045294    0.002812339    0.004089242
     26        1          -0.001168613    0.002302365    0.003504516
     27        1          -0.001498055   -0.000407888    0.003734829
     28        1           0.002423057    0.001510392    0.001918673
     29        1           0.002118146    0.000347919    0.003657539
     30        1          -0.000358955    0.000352851   -0.000159015
     31        1          -0.004760772   -0.003456027   -0.000293733
     32        1          -0.007367885   -0.006603266    0.000483421
 -------------------------------------------------------------------
 Cartesian Forces:  Max     0.095429109 RMS     0.020194704

 GradGradGradGradGradGradGradGradGradGradGradGradGradGradGradGradGradGrad
 Berny optimization.
 FormGI is forming the generalized inverse of G from B-inverse, IUseBI=4.
 Internal  Forces:  Max     0.075715659 RMS     0.010892940
 Search for a local minimum.
 Step number   1 out of a maximum of  168
 All quantities printed in internal units (Hartrees-Bohrs-Radians)
 Mixed Optimization -- RFO/linear search
 Second derivative matrix not updated -- first step.
 ITU=  0
     Eigenvalues ---    0.00230   0.00402   0.00470   0.00473   0.01255
     Eigenvalues ---    0.01288   0.01320   0.01364   0.01385   0.01565
     Eigenvalues ---    0.01718   0.02913   0.03276   0.03498   0.03806
     Eigenvalues ---    0.04754   0.04921   0.05056   0.05099   0.05131
     Eigenvalues ---    0.05190   0.05826   0.05888   0.05917   0.05933
     Eigenvalues ---    0.06253   0.06782   0.07994   0.08233   0.09086
     Eigenvalues ---    0.10212   0.10433   0.10693   0.11160   0.11374
     Eigenvalues ---    0.11399   0.11444   0.11933   0.12132   0.13702
     Eigenvalues ---    0.13769   0.13814   0.13817   0.16000   0.16000
     Eigenvalues ---    0.16000   0.16000   0.21780   0.21803   0.22045
     Eigenvalues ---    0.22059   0.22062   0.22070   0.23375   0.24898
     Eigenvalues ---    0.25000   0.25000   0.25000   0.28355   0.29652
     Eigenvalues ---    0.30140   0.30159   0.32310   0.33878   0.33920
     Eigenvalues ---    0.33948   0.33994   0.34028   0.34030   0.34046
     Eigenvalues ---    0.34047   0.34050   0.34069   0.34071   0.34135
     Eigenvalues ---    0.34174   0.34208   0.34282   0.34283   0.34517
     Eigenvalues ---    0.35503   0.36347   0.40559   0.40916   0.41266
     Eigenvalues ---    0.41747   0.41980   0.49708   0.62172   0.72995
 RFO step:  Lambda=-4.76697465D-02 EMin= 2.30000000D-03
 Linear search not attempted -- first point.
 Maximum step size (   0.300) exceeded in Quadratic search.
    -- Step size scaled by   0.811
 Iteration  1 RMS(Cart)=  0.11685268 RMS(Int)=  0.00268470
 Iteration  2 RMS(Cart)=  0.00684626 RMS(Int)=  0.00047821
 Iteration  3 RMS(Cart)=  0.00001757 RMS(Int)=  0.00047813
 Iteration  4 RMS(Cart)=  0.00000002 RMS(Int)=  0.00047813
 Variable       Old X    -DE/DX   Delta X   Delta X   Delta X     New X
                                 (Linear)    (Quad)   (Total)
    R1        2.68949  -0.00715   0.00000  -0.01242  -0.01242   2.67707
    R2        2.06466  -0.00011   0.00000  -0.00022  -0.00022   2.06444
    R3        2.06855   0.00374   0.00000   0.00776   0.00776   2.07632
    R4        2.06857   0.00373   0.00000   0.00775   0.00775   2.07632
    R5        2.69246  -0.00666   0.00000  -0.01161  -0.01161   2.68085
    R6        2.87684   0.00014   0.00000   0.00032   0.00032   2.87717
    R7        2.07213   0.00415   0.00000   0.00866   0.00866   2.08079
    R8        2.07211   0.00416   0.00000   0.00868   0.00868   2.08080
    R9        2.87648  -0.00012   0.00000  -0.00027  -0.00027   2.87620
   R10        2.07280  -0.00090   0.00000  -0.00189  -0.00189   2.07091
   R11        2.07283  -0.00092   0.00000  -0.00192  -0.00192   2.07091
   R12        2.70327  -0.00967   0.00000  -0.01717  -0.01717   2.68610
   R13        2.07252   0.00369   0.00000   0.00772   0.00772   2.08024
   R14        2.07250   0.00372   0.00000   0.00777   0.00777   2.08028
   R15        2.70801  -0.01198   0.00000  -0.02145  -0.02145   2.68656
   R16        2.88662  -0.00405   0.00000  -0.00954  -0.00954   2.87708
   R17        2.07037   0.00431   0.00000   0.00899   0.00899   2.07936
   R18        2.07102   0.00407   0.00000   0.00849   0.00849   2.07952
   R19        2.91369  -0.01104   0.00000  -0.02705  -0.02705   2.88664
   R20        2.07536  -0.00153   0.00000  -0.00322  -0.00322   2.07214
   R21        2.07418  -0.00105   0.00000  -0.00221  -0.00221   2.07197
   R22        2.69868   0.00669   0.00000   0.01180   0.01180   2.71048
   R23        2.07245  -0.00042   0.00000  -0.00087  -0.00087   2.07158
   R24        2.07465   0.00033   0.00000   0.00069   0.00069   2.07533
   R25        2.41929   0.04621   0.00000   0.04821   0.04821   2.46750
   R26        2.56601  -0.00617   0.00000  -0.00667  -0.00732   2.55869
   R27        2.45099   0.07572   0.00000   0.09160   0.09211   2.54311
   R28        2.80367   0.02560   0.00000   0.04003   0.03945   2.84313
   R29        2.03543   0.00007   0.00000   0.00013   0.00013   2.03556
   R30        2.74045   0.01327   0.00000   0.02401   0.02473   2.76518
   R31        2.06980  -0.00131   0.00000  -0.00273  -0.00273   2.06707
   R32        2.07340  -0.00229   0.00000  -0.00480  -0.00480   2.06859
    A1        1.89834  -0.00521   0.00000  -0.02074  -0.02069   1.87765
    A2        1.92441   0.00417   0.00000   0.01650   0.01647   1.94088
    A3        1.92451   0.00415   0.00000   0.01643   0.01640   1.94091
    A4        1.89861   0.00025   0.00000   0.00057   0.00062   1.89923
    A5        1.89861   0.00025   0.00000   0.00056   0.00062   1.89923
    A6        1.91885  -0.00373   0.00000  -0.01381  -0.01391   1.90493
    A7        1.93133   0.00602   0.00000   0.01640   0.01640   1.94772
    A8        1.91841  -0.00590   0.00000  -0.01641  -0.01637   1.90204
    A9        1.90476   0.00250   0.00000   0.00947   0.00948   1.91424
   A10        1.90464   0.00251   0.00000   0.00954   0.00955   1.91419
   A11        1.91884   0.00173   0.00000   0.00497   0.00499   1.92383
   A12        1.91876   0.00173   0.00000   0.00501   0.00504   1.92380
   A13        1.89818  -0.00252   0.00000  -0.01244  -0.01246   1.88573
   A14        1.91634   0.00662   0.00000   0.01861   0.01866   1.93500
   A15        1.92594  -0.00245   0.00000  -0.00826  -0.00823   1.91770
   A16        1.92588  -0.00244   0.00000  -0.00821  -0.00818   1.91770
   A17        1.92985  -0.00247   0.00000  -0.00846  -0.00844   1.92142
   A18        1.92978  -0.00248   0.00000  -0.00848  -0.00846   1.92132
   A19        1.83488   0.00289   0.00000   0.01401   0.01398   1.84886
   A20        1.93263  -0.00827   0.00000  -0.02424  -0.02418   1.90845
   A21        1.91143   0.00289   0.00000   0.00968   0.00970   1.92113
   A22        1.91167   0.00285   0.00000   0.00950   0.00952   1.92118
   A23        1.90606   0.00267   0.00000   0.00816   0.00820   1.91427
   A24        1.90593   0.00270   0.00000   0.00828   0.00832   1.91425
   A25        1.89571  -0.00275   0.00000  -0.01120  -0.01125   1.88446
   A26        1.92934   0.00662   0.00000   0.01803   0.01803   1.94738
   A27        1.93365  -0.01179   0.00000  -0.03464  -0.03455   1.89910
   A28        1.89719   0.00457   0.00000   0.01568   0.01568   1.91287
   A29        1.89564   0.00478   0.00000   0.01661   0.01661   1.91224
   A30        1.91671   0.00303   0.00000   0.00842   0.00850   1.92521
   A31        1.91765   0.00276   0.00000   0.00726   0.00734   1.92498
   A32        1.90252  -0.00323   0.00000  -0.01299  -0.01309   1.88943
   A33        1.94842  -0.00029   0.00000  -0.00403  -0.00406   1.94436
   A34        1.91362   0.00053   0.00000   0.00245   0.00241   1.91603
   A35        1.91687  -0.00006   0.00000  -0.00043  -0.00047   1.91641
   A36        1.92818  -0.00132   0.00000  -0.00806  -0.00806   1.92012
   A37        1.92777  -0.00075   0.00000  -0.00537  -0.00537   1.92239
   A38        1.82512   0.00203   0.00000   0.01672   0.01671   1.84184
   A39        1.90993  -0.00540   0.00000  -0.01660  -0.01651   1.89342
   A40        1.90949   0.00380   0.00000   0.01569   0.01551   1.92500
   A41        1.89337   0.00537   0.00000   0.02499   0.02487   1.91824
   A42        1.93613  -0.00060   0.00000  -0.00960  -0.00954   1.92660
   A43        1.91068  -0.00055   0.00000  -0.00612  -0.00599   1.90468
   A44        1.90372  -0.00246   0.00000  -0.00748  -0.00783   1.89588
   A45        2.02028   0.00602   0.00000   0.01641   0.01641   2.03670
   A46        2.30532   0.01623   0.00000   0.03707   0.03727   2.34259
   A47        2.32430  -0.04735   0.00000  -0.13685  -0.13681   2.18749
   A48        1.65149   0.03119   0.00000   0.10058   0.10026   1.75176
   A49        1.55383  -0.02009   0.00000  -0.07700  -0.07843   1.47540
   A50        2.37519   0.00985   0.00000   0.03773   0.03838   2.41357
   A51        2.35416   0.01024   0.00000   0.03927   0.03993   2.39410
   A52        1.45569   0.03720   0.00000   0.09143   0.09137   1.54706
   A53        2.05197  -0.00563   0.00000  -0.00380  -0.00299   2.04899
   A54        2.04261  -0.00225   0.00000   0.01608   0.01699   2.05960
   A55        1.96756  -0.01470   0.00000  -0.04597  -0.04724   1.92032
   A56        1.99360  -0.01639   0.00000  -0.05631  -0.05825   1.93535
   A57        1.91456   0.00441   0.00000   0.00344   0.00155   1.91611
   A58        1.62170  -0.04823   0.00000  -0.11423  -0.11274   1.50895
    D1       -3.14137   0.00000   0.00000  -0.00002  -0.00002  -3.14139
    D2        1.06133   0.00041   0.00000   0.00218   0.00231   1.06364
    D3       -1.06083  -0.00041   0.00000  -0.00226  -0.00239  -1.06322
    D4        3.14147  -0.00000   0.00000  -0.00004  -0.00004   3.14143
    D5        1.03586  -0.00006   0.00000  -0.00195  -0.00191   1.03395
    D6       -1.03628   0.00006   0.00000   0.00196   0.00193  -1.03435
    D7        3.14142   0.00001   0.00000   0.00004   0.00004   3.14145
    D8        1.00986   0.00032   0.00000   0.00372   0.00373   1.01359
    D9       -1.01035  -0.00031   0.00000  -0.00364  -0.00365  -1.01399
   D10       -1.04467   0.00047   0.00000   0.00453   0.00453  -1.04014
   D11        3.10696   0.00078   0.00000   0.00822   0.00823   3.11518
   D12        1.08675   0.00015   0.00000   0.00086   0.00085   1.08760
   D13        1.04452  -0.00047   0.00000  -0.00458  -0.00457   1.03995
   D14       -1.08704  -0.00016   0.00000  -0.00089  -0.00088  -1.08791
   D15       -3.10724  -0.00079   0.00000  -0.00825  -0.00826  -3.11550
   D16       -3.14145   0.00000   0.00000   0.00001   0.00001  -3.14145
   D17        1.03877   0.00005   0.00000  -0.00103  -0.00101   1.03776
   D18       -1.03850  -0.00004   0.00000   0.00108   0.00105  -1.03745
   D19       -1.01223  -0.00029   0.00000  -0.00352  -0.00353  -1.01576
   D20       -3.11520  -0.00024   0.00000  -0.00456  -0.00455  -3.11974
   D21        1.09072  -0.00033   0.00000  -0.00245  -0.00248   1.08824
   D22        1.01263   0.00028   0.00000   0.00348   0.00349   1.01612
   D23       -1.09033   0.00033   0.00000   0.00244   0.00247  -1.08786
   D24        3.11558   0.00024   0.00000   0.00454   0.00453   3.12011
   D25       -3.13876  -0.00003   0.00000  -0.00030  -0.00030  -3.13907
   D26       -1.03260   0.00008   0.00000   0.00173   0.00171  -1.03090
   D27        1.03806  -0.00010   0.00000  -0.00218  -0.00216   1.03590
   D28        3.13707   0.00009   0.00000   0.00063   0.00064   3.13771
   D29        1.02946   0.00071   0.00000   0.00161   0.00174   1.03120
   D30       -1.03834  -0.00072   0.00000  -0.00114  -0.00128  -1.03962
   D31       -3.13556  -0.00009   0.00000  -0.00049  -0.00049  -3.13605
   D32        1.00500   0.00141   0.00000   0.01079   0.01080   1.01581
   D33       -0.99118  -0.00128   0.00000  -0.01040  -0.01040  -1.00158
   D34       -1.03957   0.00006   0.00000   0.00243   0.00242  -1.03715
   D35        3.10100   0.00156   0.00000   0.01370   0.01371   3.11471
   D36        1.10481  -0.00113   0.00000  -0.00748  -0.00750   1.09732
   D37        1.05295  -0.00031   0.00000  -0.00381  -0.00381   1.04915
   D38       -1.08967   0.00119   0.00000   0.00747   0.00748  -1.08218
   D39       -3.08585  -0.00150   0.00000  -0.01372  -0.01372  -3.09957
   D40       -3.11555  -0.00052   0.00000  -0.00438  -0.00437  -3.11992
   D41        1.04304   0.00124   0.00000   0.00805   0.00816   1.05120
   D42       -1.03192  -0.00114   0.00000  -0.00663  -0.00676  -1.03868
   D43       -0.98127  -0.00097   0.00000  -0.00972  -0.00969  -0.99096
   D44       -3.10587   0.00079   0.00000   0.00271   0.00284  -3.10302
   D45        1.10236  -0.00159   0.00000  -0.01197  -0.01208   1.09028
   D46        1.02948   0.00028   0.00000   0.00277   0.00277   1.03225
   D47       -1.09512   0.00204   0.00000   0.01520   0.01530  -1.07981
   D48        3.11311  -0.00034   0.00000   0.00052   0.00038   3.11349
   D49        3.08175   0.00091   0.00000   0.00726   0.00723   3.08898
   D50       -1.09296   0.00172   0.00000   0.00980   0.00983  -1.08313
   D51        1.00882  -0.00208   0.00000  -0.00958  -0.00958   0.99924
   D52       -2.39124  -0.00054   0.00000  -0.01054  -0.01114  -2.40237
   D53        0.83783  -0.00366   0.00000  -0.03178  -0.03119   0.80664
   D54       -3.10023   0.00243   0.00000   0.01156   0.01039  -3.08983
   D55        0.04107   0.00065   0.00000  -0.00436  -0.00525   0.03582
   D56       -0.02260   0.00170   0.00000   0.01833   0.01846  -0.00414
   D57        3.11870  -0.00008   0.00000   0.00241   0.00281   3.12151
   D58        3.09965   0.00140   0.00000  -0.00137  -0.00291   3.09674
   D59        0.02315  -0.00171   0.00000  -0.01881  -0.01890   0.00425
   D60        0.02028  -0.00114   0.00000  -0.01625  -0.01653   0.00375
   D61       -1.93866  -0.00323   0.00000  -0.01115  -0.01119  -1.94985
   D62        2.00775  -0.00097   0.00000  -0.03178  -0.03115   1.97660
   D63       -3.12102   0.00061   0.00000  -0.00067  -0.00122  -3.12224
   D64        1.20322  -0.00149   0.00000   0.00443   0.00413   1.20735
   D65       -1.13355   0.00077   0.00000  -0.01620  -0.01584  -1.14939
   D66       -0.02126   0.00196   0.00000   0.01803   0.01749  -0.00376
   D67        2.02383   0.00989   0.00000   0.04763   0.04531   2.06914
   D68       -2.05847  -0.01054   0.00000  -0.03493  -0.03241  -2.09088
         Item               Value     Threshold  Converged?
 Maximum Force            0.075716     0.000450     NO 
 RMS     Force            0.010893     0.000300     NO 
 Maximum Displacement     0.422436     0.001800     NO 
 RMS     Displacement     0.117303     0.001200     NO 
 Predicted change in Energy=-2.528494D-02
 GradGradGradGradGradGradGradGradGradGradGradGradGradGradGradGradGradGrad

                          Input orientation:                          
 ---------------------------------------------------------------------
 Center     Atomic      Atomic             Coordinates (Angstroms)
 Number     Number       Type             X           Y           Z
 ---------------------------------------------------------------------
      1          6           0        1.114340    0.016283   -0.103619
      2          8           0        2.523630    0.067481    0.031168
      3          6           0        2.908942    0.500160    1.326112
      4          6           0        4.429059    0.533086    1.405251
      5          6           0        4.890496    0.993116    2.780748
[...]
 756,0.00084845,0.00016395,-0.00015654,-0.00044208,0.00004301,0.0000194
 6,0.00008809,0.00005977,0.00006705,-0.00002053,-0.00023670,0.00001816,
 0.00009566,0.00000029,0.00000029,-0.00000024,0.00000265,-0.00000391,-0
 .00000057,-0.00000009,-0.00000042,0.00000079,-0.00000206,-0.00000046,0
 .00000138,0.00001849,-0.00000995,0.00000314,-0.00000440,0.00000077,-0.
 00000402,-0.00003063,-0.00003771,-0.00007827,0.00003278,0.00003725,0.0
 0000405,0.00034724,-0.00026579,-0.00007804,0.00171512,-0.00032903,-0.0
 0018253,-0.00625537,-0.00131110,-0.00001341,0.00246590,-0.00576136,-0.
 00236040,0.09434547,0.00000203,-0.00000275,0.00000040,0.00000839,0.000
 00847,0.00001569,-0.00000616,0.00000210,0.00001505,0.00008510,-0.00004
 068,-0.00002305,-0.00011644,0.00025336,0.00025531,0.00032787,0.0004652
 3,0.00067213,-0.00187491,0.00308591,0.00131739,0.08599265,-0.24112737,
 -0.07458882,0.00281914,-0.00697035,-0.00297821,-0.00012828,0.00067034,
 0.00068513,-0.00017041,0.00008273,-0.00016228,-0.00003185,0.00001885,0
 .00000831,0.00005928,-0.00001667,0.00004254,-0.00010006,0.00002115,0.0
 0016612,0.00000197,0.00000012,0.00000158,-0.00000127,0.00000193,0.0000
 0055,0.00000021,0.00000009,-0.00000040,-0.00000306,-0.00000124,0.00000
 123,-0.00000851,0.00000345,0.00000146,0.00000632,-0.00000980,0.0000003
 2,0.00000697,0.00002617,-0.00000589,-0.00001287,-0.00001158,0.00000897
 ,-0.00012891,-0.00007672,-0.00005301,0.00057617,0.00105990,0.00004866,
 -0.00126469,0.00134493,-0.00037277,0.00906998,-0.01969810,-0.00827927,
 -0.09409275,0.25846129,-0.00001192,-0.00000361,0.00000141,0.00001727,0
 .00000480,0.00000506,-0.00001137,-0.00001299,0.00000053,0.00002258,0.0
 0001743,0.00000379,-0.00019484,0.00011247,0.00003572,-0.00028545,0.000
 53828,0.00065720,0.00158105,-0.00273881,-0.00195011,0.03431404,-0.0729
 1241,-0.07851263,0.01236421,-0.02850939,-0.01325542,0.00105757,0.00169
 632,0.00210630,0.00029365,0.00007650,-0.00034097,-0.00005347,0.0000331
 9,0.00006307,0.00013684,0.00003661,0.00003425,-0.00037446,0.00003451,0
 .00000949,0.00000110,0.00000049,0.00000124,0.00000186,-0.00000011,-0.0
 0000073,0.00000220,0.00000155,-0.00000151,0.00000506,0.00000345,-0.000
 00212,0.00000727,0.00000083,-0.00000030,-0.00000599,0.00000800,-0.0000
 0220,-0.00000619,-0.00001868,0.00000197,0.00004859,0.00001747,-0.00003
 015,-0.00004343,-0.00006073,-0.00010871,-0.00007645,-0.00034186,-0.000
 03734,0.00034698,-0.00008955,0.00043599,-0.00838724,0.01828753,0.00757
 237,-0.03821927,0.08444348,0.08631468,0.00002937,0.00000509,0.00000194
 ,-0.00003953,-0.00001136,-0.00002321,0.00003124,0.00000861,0.00001255,
 -0.00000943,-0.00000096,0.00000907,0.00012556,0.00003799,0.00001803,-0
 .00030851,-0.00024598,0.00015063,0.00128211,0.00083130,-0.00046128,0.0
 0336945,0.01108423,-0.00897571,-0.05097847,-0.01816736,0.01776474,-0.0
 2844161,-0.02791943,0.02287394,0.00355493,-0.00033500,0.00909451,-0.00
 080115,0.00012443,-0.00083813,-0.00034783,0.00065920,-0.00010371,0.000
 56889,-0.00018459,-0.00216985,-0.00000315,-0.00000106,-0.00000365,-0.0
 0000393,0.00000163,0.00000129,-0.00000391,-0.00000264,0.00000245,-0.00
 000532,-0.00000439,-0.00000116,-0.00000278,0.00000046,-0.00000230,0.00
 000552,-0.00000127,0.00000858,0.00000143,0.00000109,-0.00000013,-0.000
 04679,-0.00003193,0.00001183,-0.00001616,0.00000771,0.00000398,-0.0002
 0319,-0.00042486,0.00011742,-0.00009733,-0.00003695,-0.00001106,-0.001
 11917,-0.00131175,-0.00282890,0.00031846,-0.00048797,0.00064963,0.0681
 8420,0.00000100,-0.00000225,0.00000246,0.00000009,0.00000184,-0.000010
 12,-0.00000081,-0.00000583,0.00001238,0.00001733,0.00000719,0.00000197
 ,0.00004685,-0.00006678,0.00010512,0.00014576,0.00008934,-0.00023291,0
 .00010234,0.00002421,0.00025460,0.00143447,0.00676215,-0.00620189,-0.0
 2282664,-0.18875182,0.12299716,-0.00699981,0.00304175,-0.00124334,0.00
 002920,0.00063951,0.00345596,0.00010843,-0.00022742,-0.00043836,-0.000
 54519,0.00008391,-0.00024412,0.00127479,0.00049469,-0.00031770,-0.0000
 0037,-0.00000035,-0.00000110,-0.00000067,0.00000013,0.00000051,-0.0000
 0003,0.00000155,-0.00000049,0.00000169,0.00000496,-0.00000196,-0.00000
 027,-0.00000049,0.00000040,0.00000047,0.00000003,-0.00000510,-0.000000
 75,-0.00000106,-0.00000129,-0.00001177,0.00001590,0.00000745,0.0000003
 1,0.00000308,0.00000006,0.00029043,0.00029303,0.00004461,-0.00012064,0
 .00000839,0.00005655,-0.00097567,0.00095196,-0.00198949,0.00041554,0.0
 0102097,0.00038274,0.02974239,0.19594352,-0.00000035,0.00000474,-0.000
 00316,0.00000034,-0.00000492,0.00001212,0.00000110,0.00000888,-0.00001
 063,0.00000567,0.00000472,-0.00000402,-0.00009553,-0.00006084,0.000027
 68,-0.00008271,-0.00046394,0.00060623,0.00140782,0.00106503,-0.0005012
 1,0.00252937,0.02157766,-0.01968243,0.02350147,0.12358509,-0.16521764,
 0.00669351,0.00263226,-0.00050428,-0.00061840,-0.00096642,-0.00051754,
 -0.00006589,0.00009721,0.00013873,0.00000929,0.00014870,0.00006279,-0.
 00060673,-0.00036092,-0.00023066,0.00000049,0.00000065,0.00000107,0.00
 000074,-0.00000106,-0.00000059,-0.00000095,-0.00000224,0.00000135,-0.0
 0000683,-0.00000655,0.00000300,-0.00000004,-0.00000117,0.00000048,0.00
 000853,-0.00000709,0.00001227,0.00000205,0.00000241,-0.00000475,-0.000
 06840,-0.00002913,-0.00000776,0.00000465,-0.00000251,0.00000240,-0.000
 94937,-0.00058903,0.00050320,-0.00012978,-0.00012586,0.00005257,-0.002
 59787,-0.00180024,-0.00404800,0.00076260,-0.00013082,0.00136521,-0.027
 95122,-0.13590913,0.17980484,0.00002892,0.00000351,0.00000272,-0.00003
 871,-0.00000863,-0.00002572,0.00003023,0.00000643,0.00001548,-0.000005
 76,0.00000192,0.00000916,0.00013706,0.00002273,0.00004002,-0.00030498,
 0.00014694,0.00000025,0.00136517,-0.00056378,-0.00010779,0.00631443,-0
 .01292080,-0.00445287,-0.07091449,0.06548348,0.02595368,-0.03564832,0.
 02572167,0.01167170,0.00295173,0.00452915,0.00872456,-0.00067781,-0.00
 057172,-0.00079296,-0.00029647,-0.00074999,0.00011991,0.00092405,-0.00
 057855,-0.00207228,-0.00000317,-0.00000112,-0.00000385,-0.00000424,0.0
 0000191,0.00000142,-0.00000361,-0.00000186,0.00000209,-0.00000251,-0.0
 0000178,-0.00000174,-0.00000495,0.00000097,-0.00000246,0.00000127,-0.0
 0000048,0.00000003,0.00000448,0.00000446,0.00000563,-0.00001378,-0.000
 00955,0.00000731,-0.00005044,0.00001876,0.00000460,-0.00011915,-0.0000
 0005,-0.00000622,-0.00016580,0.00030903,-0.00002285,0.00027660,0.00054
 826,0.00050106,-0.00124825,-0.00050887,-0.00311379,0.00474312,-0.00238
 928,-0.00179871,0.09247966,0.00000656,-0.00000433,-0.00000114,-0.00001
 018,0.00000666,0.00000604,0.00001068,-0.00001229,-0.00000787,-0.000016
 15,0.00000047,-0.00000236,-0.00003543,-0.00008231,-0.00005488,-0.00031
 343,0.00040425,0.00032976,0.00084918,-0.00054204,-0.00030108,0.0015513
 1,-0.00536901,-0.00185489,0.07197959,-0.25051218,-0.07729276,0.0004456
 1,0.00993922,0.00245485,0.00034552,0.00054094,-0.00160085,-0.00024412,
 -0.00020915,0.00035583,0.00042467,0.00006105,0.00023363,-0.00134270,0.
 00017709,-0.00044037,-0.00000013,-0.00000012,0.00000066,-0.00000185,0.
 00000283,0.00000038,0.,0.,-0.00000044,-0.00000033,-0.00000043,-0.00000
 059,-0.00000699,0.00000693,-0.00000028,0.00000221,-0.00000173,0.000000
 11,0.00000275,0.00000774,0.00000899,-0.00000256,0.00000201,0.00000094,
 -0.00003165,0.00002081,-0.00001752,0.00002481,0.00005257,-0.00005643,-
 0.00078184,0.00044022,-0.00002663,-0.00026798,0.00108181,-0.00011443,-
 0.00072478,0.00143022,-0.00100068,0.00680644,-0.02031319,-0.00878374,-
 0.07850310,0.26287877,-0.00000039,-0.00000404,-0.00000063,0.00000092,0
 .00000664,0.00000645,0.00000085,-0.00000737,-0.00000316,0.00001360,-0.
 00000499,-0.00000099,-0.00009560,0.00008209,0.00003168,-0.00011355,0.0
 0052028,0.00028791,0.00147961,-0.00070915,-0.00001807,0.00841667,-0.02
 679684,-0.01049683,0.02949532,-0.07680122,-0.08352509,0.00583247,-0.00
 398452,-0.00019636,-0.00085820,0.00057478,0.00018150,0.00001478,0.0000
 0440,-0.00000067,-0.00014432,-0.00017728,0.00003369,-0.00012613,0.0000
 1335,-0.00026907,0.00000052,-0.00000009,0.00000086,-0.00000103,0.00000
 144,0.00000042,0.00000037,0.00000088,-0.00000079,-0.00000034,0.0000014
 2,0.00000015,-0.00000628,0.00000318,0.00000067,0.00000211,-0.00000308,
 -0.00000391,0.00000579,0.00001099,0.00000561,0.00000460,0.00000327,0.0
 0000113,-0.00006811,0.00000125,-0.00000902,-0.00018482,0.00009136,0.00
 003024,-0.00085415,0.00038602,0.00031867,0.00082878,0.00045034,0.00134
 616,-0.00273772,-0.00111929,-0.00439702,-0.00690923,0.01948527,0.00797
 418,-0.03414358,0.08800514,0.08858154,-0.00000585,-0.00000111,0.000000
 05,0.00000694,0.00000184,0.00000216,-0.00000478,-0.00000153,-0.0000015
 7,0.00000184,-0.00000006,0.00000090,-0.00001203,-0.00000305,-0.0000002
 3,0.00000952,0.00000223,-0.00000445,-0.00000756,-0.00000587,-0.0000112
 0,0.00000775,0.00000127,0.00002495,-0.00040035,-0.00004430,-0.00001011
 ,0.00052801,0.00033479,0.00048288,-0.00525406,0.00303664,0.01566471,-0
 .29423437,-0.00617521,0.13475807,0.00174123,0.00017557,-0.00423905,-0.
 00264105,-0.00152830,0.00140953,0.00000027,0.00000006,0.00000039,0.000
 00077,-0.00000050,-0.00000026,0.00000079,0.00000079,-0.00000064,0.0000
 0090,0.00000095,0.00000006,0.00000062,-0.00000025,0.00000041,-0.000000
 93,0.00000064,-0.00000100,-0.00000078,-0.00000075,-0.00000026,0.000001
 40,0.00000222,-0.00000137,0.00000143,-0.00000130,-0.00000016,0.0000081
 2,0.00000638,-0.00000100,0.00000708,-0.00000267,0.00000159,-0.00001260
 ,0.00000633,-0.00002208,-0.00001012,-0.00001430,-0.00001542,0.00004976
 ,0.00006697,-0.00001599,0.00005401,-0.00003725,0.00003004,0.30017408,-
 0.00000214,0.00000345,-0.00000094,0.00000259,-0.00000428,0.00000213,-0
 .00000194,0.00000503,-0.00000191,-0.00000022,0.00000377,-0.00000061,-0
 .00000506,0.00001251,-0.00000341,0.00000423,-0.00001605,0.00000423,-0.
 00000585,0.00002151,-0.00000958,-0.00001547,0.00003807,0.00000093,-0.0
 0000683,-0.00004085,-0.00002252,0.00022301,-0.00142705,0.00042990,-0.0
 0146863,-0.00420572,0.00314844,-0.00521712,-0.01303556,-0.00852421,0.0
 0314311,-0.00634520,0.00154326,-0.00090625,0.01254071,-0.00146721,0.00
 000006,0.00000042,0.00000016,0.00000094,-0.00000135,-0.00000056,-0.000
 00021,-0.00000096,0.00000077,-0.00000130,-0.00000180,0.00000102,0.0000
 0216,-0.00000188,-0.00000016,-0.00000014,-0.00000088,0.00000200,0.0000
 0015,-0.00000198,-0.00000165,-0.00000090,-0.00000324,0.00000270,0.0000
 0261,-0.00000411,-0.00000157,-0.00000716,-0.00000760,0.00000481,0.0000
 1093,-0.00000700,-0.00000213,0.00000089,-0.00000493,0.00001286,0.00000
 102,-0.00001233,-0.00000843,-0.00003242,-0.00004879,0.00011900,0.00003
 848,-0.00007400,-0.00009511,0.00413016,0.01296265,-0.00000507,-0.00000
 153,-0.00000083,0.00000601,0.00000255,0.00000431,-0.00000355,-0.000002
 13,-0.00000302,0.,-0.00000070,0.00000034,-0.00001001,-0.00000454,-0.00
 000324,0.00000508,0.00000525,0.00000613,-0.00001069,-0.00000948,-0.000
 01746,-0.00005906,-0.00000878,0.00002986,0.00018225,-0.00000032,-0.000
 14249,-0.00008985,0.00036270,0.00034461,-0.00704190,0.00051333,0.00204
 949,0.13955835,-0.00796518,-0.13262410,0.01073652,0.00327908,0.0032575
 7,0.00456067,-0.00110093,0.00470919,0.00000037,0.00000015,0.00000093,0
 .00000059,0.,-0.00000022,0.00000074,0.00000046,-0.00000058,0.00000086,
 0.00000071,-0.00000009,0.00000022,0.00000024,0.00000025,-0.00000034,0.
 00000068,-0.00000068,-0.00000027,-0.00000026,0.00000028,0.00000151,0.0
 0000075,-0.00000100,0.00000081,0.00000085,-0.00000012,0.00000256,-0.00
 000083,-0.00000148,-0.00000155,0.00000354,-0.00000100,0.00000583,0.000
 00619,0.00001052,0.00000624,0.00000399,0.00001549,-0.00003996,-0.00005
 158,-0.00001815,-0.00006653,0.00006158,0.00000287,-0.14811188,0.004977
 15,0.12330333,0.00000200,-0.00000033,-0.00000028,-0.00000338,0.0000001
 6,-0.00000123,0.00000351,-0.00000074,-0.00000036,-0.00000297,0.0000004
 3,0.00000125,0.00001630,-0.00000064,-0.00000009,-0.00002030,0.00000120
 ,-0.00001125,0.00003258,-0.00001000,0.00002471,0.00009992,0.00010664,-
 0.00006062,0.00021771,-0.00042880,0.00036338,0.00152577,0.00163014,-0.
 00170877,-0.00998249,-0.00212871,0.00777536,0.00691322,0.01110727,0.00
 466019,-0.04316266,-0.00402600,-0.00223868,-0.01054912,-0.03008895,-0.
 02237952,-0.00000031,0.00000007,-0.00000012,-0.00000027,0.00000028,0.0
 0000005,-0.00000029,-0.00000024,0.00000022,-0.00000028,-0.00000018,0.0
 0000011,-0.00000058,0.00000046,-0.00000022,0.00000037,-0.00000020,-0.0
 0000020,0.00000027,0.00000029,0.00000021,-0.00000176,-0.00000051,0.000
 00080,-0.00000271,0.00000181,0.00000068,-0.00000243,0.00000231,-0.0000
 0122,-0.00000264,0.00000420,0.00000194,-0.00002689,-0.00002462,-0.0000
 3671,-0.00000343,-0.00000672,-0.00000842,0.00015722,0.00012364,0.00019
 086,0.00002908,-0.00012130,-0.00010018,0.00003662,-0.00008844,0.000257
 29,0.04976789,0.00002277,0.00000137,0.00000174,-0.00003059,-0.00000569
 ,-0.00001931,0.00002334,0.00000214,0.00000995,-0.00001445,-0.00000120,
 0.00000560,0.00008295,0.00000316,-0.00000242,-0.00012786,-0.00001873,-
 0.00005497,0.00010069,0.00000216,0.00001486,-0.00004559,0.00001057,0.0
 0003949,0.00064510,0.00004286,-0.00000657,-0.00076328,-0.00050100,-0.0
 0061733,0.00040995,0.00155944,0.00074402,0.00038293,0.00199996,-0.0025
 9709,-0.01368287,-0.28059017,-0.08182333,-0.00223100,-0.00073897,-0.00
 249151,-0.00000221,-0.00000090,-0.00000267,-0.00000354,0.00000206,0.00
 000134,-0.00000257,-0.00000111,0.00000139,-0.00000140,-0.00000059,-0.0
 0000163,-0.00000287,0.00000120,-0.00000139,0.00000125,-0.00000013,-0.0
 0000022,0.00000080,0.00000133,0.00000092,-0.00000847,-0.00000351,0.000
 00345,-0.00001074,0.00000580,0.00000298,-0.00000620,-0.00000208,-0.000
 00491,-0.00001238,0.00000586,-0.00000403,0.00000271,-0.00000200,-0.000
 00389,0.00000341,0.00000515,0.00000474,-0.00003916,0.00000610,0.000045
 57,-0.00007074,0.00003796,0.00002161,-0.00017008,-0.00034229,-0.000369
 40,0.01637206,0.29740198,0.00003194,0.00000271,0.00000249,-0.00004445,
 -0.00000912,-0.00002989,0.00003500,0.00000444,0.00001347,-0.00002575,-
 0.00000165,0.00001076,0.00013136,0.00000751,-0.00001082,-0.00022246,-0
 .00003943,-0.00008879,0.00016811,-0.00001061,-0.00001673,-0.00021591,0
 .00001798,0.00013138,0.00131476,0.00063232,-0.00040427,-0.00371777,0.0
 0147591,-0.00300950,0.00499472,-0.00272290,-0.00056365,-0.00415971,-0.
 02206140,-0.01115705,-0.00747303,-0.08472545,-0.07928621,-0.00216614,-
 0.00711468,-0.00170140,-0.00000356,-0.00000128,-0.00000422,-0.00000477
 ,0.00000225,0.00000181,-0.00000397,-0.00000167,0.00000219,-0.00000234,
 -0.00000100,-0.00000186,-0.00000374,0.00000094,-0.00000198,0.00000184,
 -0.00000018,-0.00000055,0.00000156,0.00000148,0.00000060,-0.00001437,-
 0.00000568,0.00000612,-0.00001720,0.00000727,0.00000516,-0.00001718,-0
 .00000565,-0.00000230,-0.00001737,0.00000578,-0.00000620,0.00001174,-0
 .00000916,0.00001034,0.00002246,0.00001162,0.00001008,-0.00006281,-0.0
 0006350,0.00011787,-0.00035174,0.00001671,0.00002858,0.00010607,-0.000
 34068,-0.00033123,0.01033712,0.09501986,0.08773264,0.00000543,0.000001
 34,-0.00000029,-0.00000789,-0.00000272,-0.00000373,0.00000668,0.000002
 42,0.00000069,-0.00000483,-0.00000055,0.00000209,0.00002762,0.00000647
 ,-0.00000147,-0.00003666,-0.00001455,-0.00001650,0.00004222,0.00002880
 ,0.00002064,0.00012002,-0.00009463,-0.00001660,0.00017755,0.00059776,0
 .00016575,0.00182696,-0.00157503,-0.00107941,-0.01029613,0.00220030,0.
 00701105,0.00932510,-0.00778171,0.00841814,-0.05656748,0.03970243,-0.0
 3692776,-0.01586084,0.01550887,-0.03113153,-0.00000062,-0.00000027,-0.
 00000050,-0.00000075,0.00000037,0.00000028,-0.00000070,-0.00000065,0.0
 0000051,-0.00000084,-0.00000097,-0.00000011,-0.00000051,0.00000006,-0.
 00000024,0.00000046,-0.00000023,0.00000054,0.00000050,0.00000023,-0.00
 000030,-0.00000359,-0.00000297,0.00000222,-0.00000317,0.00000075,0.000
 00094,-0.00000334,-0.00000516,0.00000332,-0.00000236,-0.00000332,-0.00
 000112,-0.00000446,0.00000167,-0.00000907,-0.00002913,0.00000195,-0.00
 004216,0.00000699,0.00007021,-0.00012974,0.00016264,-0.00000757,0.0002
 1719,-0.00004673,0.00019971,0.00011475,0.00496003,-0.00082198,0.001367
 59,0.06620778,-0.00000785,-0.00000179,-0.00000040,0.00000991,0.0000028
 8,0.00000564,-0.00000679,-0.00000268,-0.00000352,0.00000273,-0.0000001
 6,-0.00000057,-0.00002100,-0.00000536,-0.00000089,0.00002606,0.0000089
 9,0.00001223,-0.00002081,-0.00000248,-0.00001534,-0.00001322,-0.000022
 53,0.00000915,-0.00001086,-0.00012742,-0.00002023,-0.00002343,-0.00167
 090,-0.00035237,-0.00134713,0.00276858,-0.00028971,-0.00202716,0.00648
 720,-0.00363652,0.04654220,-0.18141868,0.12275924,-0.00286587,0.006277
 42,-0.00628956,0.00000061,0.00000011,0.00000084,0.00000081,-0.00000025
 ,-0.00000026,0.00000112,0.00000096,-0.00000089,0.00000087,0.00000097,0
 .00000014,0.00000029,0.00000026,0.00000076,-0.00000018,0.00000029,-0.0
 0000073,-0.00000034,-0.00000011,-0.00000003,0.00000208,0.00000221,-0.0
 0000144,0.00000201,-0.00000065,-0.00000031,0.00000336,0.00000350,0.000
 00059,-0.00000146,0.00000070,0.00000319,0.00000424,0.00000172,-0.00000
 300,-0.00000537,0.00000523,-0.00000313,-0.00007149,0.00002378,-0.00004
 633,0.00004259,0.00002922,0.00003925,0.00021969,-0.00000026,0.00029646
 ,0.00757538,-0.01888074,0.01990725,-0.04801100,0.18651999,0.00003764,0
 .00000683,0.00000223,-0.00005200,-0.00001521,-0.00003395,0.00004032,0.
 00001073,0.00001508,-0.00002932,-0.00000016,0.00001160,0.00015043,0.00
 002220,-0.00001370,-0.00025176,-0.00005521,-0.00009997,0.00018573,0.00
 004604,-0.00002192,-0.00021839,-0.00001106,0.00014445,0.00156670,-0.00
 038536,-0.00019397,-0.00332503,-0.00293875,-0.00214070,0.00469955,0.00
 258569,-0.00145823,-0.00784623,0.01291672,-0.01805686,-0.04591339,0.12
 401063,-0.16505589,-0.00347816,0.00388923,-0.00340310,-0.00000413,-0.0
 0000138,-0.00000495,-0.00000505,0.00000168,0.00000183,-0.00000507,-0.0
 0000301,0.00000333,-0.00000402,-0.00000305,-0.00000149,-0.00000275,-0.
 00000046,-0.00000248,0.00000206,-0.00000093,0.00000146,0.00000207,0.00
 000045,-0.00000070,-0.00001763,-0.00001011,0.00000962,-0.00001775,0.00
 000487,0.00000467,-0.00001812,-0.00001397,-0.00000310,-0.00001883,0.,-
 0.00000513,0.00002402,-0.00000247,0.00001456,0.00001049,0.00001390,0.0
 0000537,-0.00033830,-0.00009516,0.00006480,-0.00009650,0.00008232,0.00
 008930,-0.00004515,0.00023131,-0.00058949,0.00293370,-0.00791684,0.008
 54314,0.05203483,-0.13236948,0.18217420\\0.00000128,-0.00000017,-0.000
 00095,-0.00000152,0.00000026,0.00000076,0.00000143,-0.00000003,-0.0000
 0047,-0.00000077,-0.00000004,0.00000096,0.00000162,-0.00000020,0.00000
 004,-0.00000067,0.00000051,0.00000065,-0.00000017,-0.00000043,-0.00000
 074,-0.00000101,-0.00000033,0.00000028,-0.00000022,-0.00000009,0.00000
 392,0.00000031,0.00000098,-0.00000673,0.00000158,-0.00000274,0.0000001
 6,-0.00000364,0.00000419,0.00000047,-0.00000446,-0.00000075,0.00000242
 ,0.00000398,0.00000105,0.00000390,-0.00000076,-0.00000014,-0.00000022,
 0.,0.00000001,-0.00000006,-0.00000001,0.00000003,-0.00000009,-0.000000
 08,0.00000004,-0.00000036,-0.00000014,-0.00000008,0.00000015,-0.000000
 15,-0.00000017,-0.00000055,0.00000052,0.00000017,0.00000004,0.00000001
 ,0.00000013,0.00000009,0.00000017,0.00000006,-0.00000010,0.00000014,0.
 00000007,0.00000011,0.00000026,0.00000023,0.00000014,0.00000016,0.0000
 0008,-0.00000039,0.00000018,-0.00000007,-0.00000019,0.00000006,-0.0000
 0082,-0.00000008,0.00000015,0.00000072,-0.00000112,0.00000061,-0.00000
 245,0.00000027,0.00000017,0.,-0.00000124,0.00000097,-0.00000002,-0.000
 00109\\\@


 CLIMB THE MOUNTAINS AND GET THEIR GOOD TIDINGS.
 NATURE'S PEACE WILL FLOW INTO YOU AS SUNSHINE FLOWS INTO TREES.
 THE WINDS WILL BLOW THEIR OWN FRESHNESS INTO YOU, 
 AND CARES WILL DROP OFF LIKE AUTUMN LEAVES.

                                         -- JOHN MUIR
 Job cpu time:       0 days  5 hours 12 minutes 27.6 seconds.
 Elapsed time:       0 days  1 hours 18 minutes 19.7 seconds.
 File lengths (MBytes):  RWF=    542 Int=      0 D2E=      0 Chk=     20 Scr=      1
 Normal termination of Gaussian 16 at Mon May 22 09:35:19 2023.
### All Done ###
