### Starting Gaussian ###
 Entering Gaussian System, Link 0=g16
 Initial command:
 /cluster/software/gaussian/gaussian-16-A.03/avx2/g16/l1.exe "/local/scratch/cz9n3/Gau-13707.inp" -scrdir="/local/scratch/cz9n3/"
 Entering Link 1 = /cluster/software/gaussian/gaussian-16-A.03/avx2/g16/l1.exe PID=     13708.
  
 Copyright (c) 1988,1990,1992,1993,1995,1998,2003,2009,2016,
            Gaussian, Inc.  All Rights Reserved.
  
 This is part of the Gaussian(R) 16 program.  It is based on
 the Gaussian(R) 09 system (copyright 2009, Gaussian, Inc.),
 the Gaussian(R) 03 system (copyright 2003, Gaussian, Inc.),
 the Gaussian(R) 98 system (copyright 1998, Gaussian, Inc.),
 the Gaussian(R) 94 system (copyright 1995, Gaussian, Inc.),
 the Gaussian 92(TM) system (copyright 1992, Gaussian, Inc.),
 the Gaussian 90(TM) system (copyright 1990, Gaussian, Inc.),
 the Gaussian 88(TM) system (copyright 1988, Gaussian, Inc.),
 the Gaussian 86(TM) system (copyright 1986, Carnegie Mellon
 University), and the Gaussian 82(TM) system (copyright 1983,
 Carnegie Mellon University). Gaussian is a federally registered
 trademark of Gaussian, Inc.
  
 This software contains proprietary and confidential information,
 including trade secrets, belonging to Gaussian, Inc.
  
 This software is provided under written license and may be
 used, copied, transmitted, or stored only in accord with that
 written license.
  
 The following legend is applicable only to US Government
 contracts under FAR:
  
                    RESTRICTED RIGHTS LEGEND
  
 Use, reproduction and disclosure by the US Government is
 subject to restrictions as set forth in subparagraphs (a)
 and (c) of the Commercial Computer Software - Restricted
 Rights clause in FAR 52.227-19.
  
 Gaussian, Inc.
 340 Quinnipiac St., Bldg. 40, Wallingford CT 06492
  
  
 ---------------------------------------------------------------
 Warning -- This program may not be used in any manner that
 competes with the business of Gaussian, Inc. or will provide
 assistance to any competitor of Gaussian, Inc.  The licensee
 of this program is prohibited from giving any competitor of
 Gaussian, Inc. access to this program.  By using this program,
 the user acknowledges that Gaussian, Inc. is engaged in the
 business of creating and licensing software in the field of
 computational chemistry and represents and warrants to the
 licensee that it is not a competitor of Gaussian, Inc. and that
 it will not use this program in any manner prohibited above.
 ---------------------------------------------------------------
  

 Cite this work as:
 Gaussian 16, Revision A.03,
 M. J. Frisch, G. W. Trucks, H. B. Schlegel, G. E. Scuseria, 
 M. A. Robb, J. R. Cheeseman, G. Scalmani, V. Barone, 
 G. A. Petersson, H. Nakatsuji, X. Li, M. Caricato, A. V. Marenich, 
 J. Bloino, B. G. Janesko, R. Gomperts, B. Mennucci, H. P. Hratchian, 
 J. V. Ortiz, A. F. Izmaylov, J. L. Sonnenberg, D. Williams-Young, 
 F. Ding, F. Lipparini, F. Egidi, J. Goings, B. Peng, A. Petrone, 
 T. Henderson, D. Ranasinghe, V. G. Zakrzewski, J. Gao, N. Rega, 
 G. Zheng, W. Liang, M. Hada, M. Ehara, K. Toyota, R. Fukuda, 
 J. Hasegawa, M. Ishida, T. Nakajima, Y. Honda, O. Kitao, H. Nakai, 
 T. Vreven, K. Throssell, J. A. Montgomery, Jr., J. E. Peralta, 
 F. Ogliaro, M. J. Bearpark, J. J. Heyd, E. N. Brothers, K. N. Kudin, 
 V. N. Staroverov, T. A. Keith, R. Kobayashi, J. Normand, 
 K. Raghavachari, A. P. Rendell, J. C. Burant, S. S. Iyengar, 
 J. Tomasi, M. Cossi, J. M. Millam, M. Klene, C. Adamo, R. Cammi, 
 J. W. Ochterski, R. L. Martin, K. Morokuma, O. Farkas, 
 J. B. Foresman, and D. J. Fox, Gaussian, Inc., Wallingford CT, 2016.
 
 ******************************************
 Gaussian 16:  ES64L-G16RevA.03 25-Dec-2016
                22-May-2023 
 ******************************************
 %chk=COCCCCCCqOrOCCCOCqCrqCrC.chk
 %NProcShared=20
 Will use up to   20 processors via shared memory.
 -----------------------------
 # opt freq b3lyp/6-31g(2df,p)
 -----------------------------
 1/18=20,19=15,26=3,38=1/1,3;
 2/9=110,12=2,17=6,18=5,40=1/2;
 3/5=1,6=6,7=104,11=2,25=1,30=1,71=1,74=-5/1,2,3;
 4//1;
 5/5=2,38=5/2;
 6/7=2,8=2,9=2,10=2,28=1/1;
 7//1,2,3,16;
 1/18=20,19=15,26=3/3(2);
 2/9=110/2;
 99//99;
 2/9=110/2;
 3/5=1,6=6,7=104,11=2,25=1,30=1,71=1,74=-5/1,2,3;
 4/5=5,16=3,69=1/1;
 5/5=2,38=5/2;
 7//1,2,3,16;
 1/18=20,19=15,26=3/3(-5);
 2/9=110/2;
 6/7=2,8=2,9=2,10=2,19=2,28=1/1;
 99/9=1/99;
 -------------------
 Title Card Required
 -------------------
 Symbolic Z-matrix:
 Charge =  0 Multiplicity = 1
 C                     0.87397   0.01513  -0.01601 
 O                     2.2948   -0.00643  -0.0338 
 C                     2.76746  -1.05746  -0.8684 
 C                     4.28474  -1.04762  -0.86239 
 C                     4.81312  -2.16417  -1.75128 
 C                     6.33066  -2.16962  -1.75142 
 C                     6.86433  -3.29232  -2.63026 
 C                     8.38271  -3.30213  -2.61253 
 O                     8.85656  -3.49358  -1.28826 
 O                     8.83102  -4.36676  -3.4347 
 C                     10.24664  -4.36586  -3.50249 
 C                     10.71877  -5.49468  -4.39907 
 C                     12.23108  -5.46345  -4.3702 
 O                     12.80119  -6.48362  -5.17842 
 C                     14.24286  -6.49074  -5.18068 
 C                     14.79818  -5.17972  -5.75649 
 C                     14.79641  -6.75432  -3.77234 
 C                     14.67618  -7.64378  -6.09501 
 H                     0.54708   0.83122   0.63185 
 H                     0.48604  -0.92854   0.37997 
 H                     0.48553   0.18642  -1.02475 
 H                     2.39826  -0.90924  -1.88982 
 H                     2.39963  -2.01887  -0.49139 
 H                     4.65438  -1.16461   0.16429 
 H                     4.6541   -0.07357  -1.20702 
 H                     4.443    -2.03411  -2.77544 
 H                     4.44113  -3.13182  -1.3923 
 H                     6.69191  -2.29175  -0.72325 
 H                     6.70838  -1.20614  -2.11475 
 H                     6.50663  -3.18261  -3.66196 
 H                     6.48368  -4.25784  -2.27322 
 H                     8.76489  -2.34744  -2.99268 
 H                     8.4451   -4.3166   -0.98983 
 H                     10.6633  -4.50817  -2.49733 
 H                     10.5994  -3.40075  -3.88809 
 H                     10.33567  -5.37325  -5.41847 
 H                     10.33637  -6.46009  -4.04786 
 H                     12.54731  -5.58893  -3.33119 
 H                     12.55017  -4.47979  -4.72426 
 H                     14.54895  -4.3161   -5.13191 
 H                     14.37234  -4.98456  -6.74771 
 H                     15.88835  -5.20759  -5.8389 
 H                     14.54671  -5.95021  -3.073 
 H                     15.88669  -6.84104  -3.77983 
 H                     14.3706  -7.67558  -3.3577 
 H                     14.28714  -7.50983  -7.11054 
 H                     14.28681  -8.6021   -5.7335 
 H                     15.76818  -7.71496  -6.1511 
 

 GradGradGradGradGradGradGradGradGradGradGradGradGradGradGradGradGradGrad
 Berny optimization.
 Initialization pass.
                           ----------------------------
                           !    Initial Parameters    !
                           ! (Angstroms and Degrees)  !
 --------------------------                            --------------------------
 ! Name  Definition              Value          Derivative Info.                !
 --------------------------------------------------------------------------------
 ! R1    R(1,2)                  1.4211         estimate D2E/DX2                !
 ! R2    R(1,19)                 1.0921         estimate D2E/DX2                !
 ! R3    R(1,20)                 1.0944         estimate D2E/DX2                !
 ! R4    R(1,21)                 1.0944         estimate D2E/DX2                !
 ! R5    R(2,3)                  1.4229         estimate D2E/DX2                !
 ! R6    R(3,4)                  1.5173         estimate D2E/DX2                !
 ! R7    R(3,22)                 1.0962         estimate D2E/DX2                !
 ! R8    R(3,23)                 1.0962         estimate D2E/DX2                !
 ! R9    R(4,5)                  1.5218         estimate D2E/DX2                !
 ! R10   R(4,24)                 1.0974         estimate D2E/DX2                !
 ! R11   R(4,25)                 1.0973         estimate D2E/DX2                !
 ! R12   R(5,6)                  1.5175         estimate D2E/DX2                !
 ! R13   R(5,26)                 1.0967         estimate D2E/DX2                !
 ! R14   R(5,27)                 1.0971         estimate D2E/DX2                !
 ! R15   R(6,7)                  1.5224         estimate D2E/DX2                !
 ! R16   R(6,28)                 1.0966         estimate D2E/DX2                !
 ! R17   R(6,29)                 1.0968         estimate D2E/DX2                !
 ! R18   R(7,8)                  1.5185         estimate D2E/DX2                !
 ! R19   R(7,30)                 1.0974         estimate D2E/DX2                !
 ! R20   R(7,31)                 1.0975         estimate D2E/DX2                !
 ! R21   R(8,9)                  1.4195         estimate D2E/DX2                !
 ! R22   R(8,10)                 1.4179         estimate D2E/DX2                !
 ! R23   R(8,32)                 1.0964         estimate D2E/DX2                !
 ! R24   R(9,33)                 0.9673         estimate D2E/DX2                !
 ! R25   R(10,11)                1.4172         estimate D2E/DX2                !
 ! R26   R(11,12)                1.5169         estimate D2E/DX2                !
 ! R27   R(11,34)                1.0974         estimate D2E/DX2                !
 ! R28   R(11,35)                1.0975         estimate D2E/DX2                !
 ! R29   R(12,13)                1.5129         estimate D2E/DX2                !
 ! R30   R(12,36)                1.0958         estimate D2E/DX2                !
 ! R31   R(12,37)                1.0962         estimate D2E/DX2                !
 ! R32   R(13,14)                1.4209         estimate D2E/DX2                !
 ! R33   R(13,38)                1.0933         estimate D2E/DX2                !
 ! R34   R(13,39)                1.0931         estimate D2E/DX2                !
 ! R35   R(14,15)                1.4417         estimate D2E/DX2                !
 ! R36   R(15,16)                1.5358         estimate D2E/DX2                !
 ! R37   R(15,17)                1.536          estimate D2E/DX2                !
 ! R38   R(15,18)                1.534          estimate D2E/DX2                !
 ! R39   R(16,40)                1.0946         estimate D2E/DX2                !
 ! R40   R(16,41)                1.0963         estimate D2E/DX2                !
 ! R41   R(16,42)                1.0936         estimate D2E/DX2                !
 ! R42   R(17,43)                1.0945         estimate D2E/DX2                !
 ! R43   R(17,44)                1.0937         estimate D2E/DX2                !
 ! R44   R(17,45)                1.0963         estimate D2E/DX2                !
 ! R45   R(18,46)                1.0957         estimate D2E/DX2                !
 ! R46   R(18,47)                1.0958         estimate D2E/DX2                !
 ! R47   R(18,48)                1.0958         estimate D2E/DX2                !
 ! A1    A(2,1,19)             108.5445         estimate D2E/DX2                !
 ! A2    A(2,1,20)             110.2327         estimate D2E/DX2                !
 ! A3    A(2,1,21)             110.224          estimate D2E/DX2                !
 ! A4    A(19,1,20)            108.8811         estimate D2E/DX2                !
 ! A5    A(19,1,21)            108.8806         estimate D2E/DX2                !
 ! A6    A(20,1,21)            110.0369         estimate D2E/DX2                !
 ! A7    A(1,2,3)              110.5281         estimate D2E/DX2                !
 ! A8    A(2,3,4)              108.9691         estimate D2E/DX2                !
 ! A9    A(2,3,22)             109.56           estimate D2E/DX2                !
 ! A10   A(2,3,23)             109.5497         estimate D2E/DX2                !
 ! A11   A(4,3,22)             109.8534         estimate D2E/DX2                !
 ! A12   A(4,3,23)             109.8679         estimate D2E/DX2                !
 ! A13   A(22,3,23)            109.0283         estimate D2E/DX2                !
 ! A14   A(3,4,5)              109.884          estimate D2E/DX2                !
 ! A15   A(3,4,24)             109.866          estimate D2E/DX2                !
 ! A16   A(3,4,25)             109.9454         estimate D2E/DX2                !
 ! A17   A(5,4,24)             110.565          estimate D2E/DX2                !
 ! A18   A(5,4,25)             110.547          estimate D2E/DX2                !
 ! A19   A(24,4,25)            105.9669         estimate D2E/DX2                !
 ! A20   A(4,5,6)              110.4803         estimate D2E/DX2                !
 ! A21   A(4,5,26)             109.9539         estimate D2E/DX2                !
 ! A22   A(4,5,27)             109.772          estimate D2E/DX2                !
 ! A23   A(6,5,26)             109.7438         estimate D2E/DX2                !
 ! A24   A(6,5,27)             109.6293         estimate D2E/DX2                !
 ! A25   A(26,5,27)            107.2014         estimate D2E/DX2                !
 ! A26   A(5,6,7)              110.6863         estimate D2E/DX2                !
 ! A27   A(5,6,28)             109.2528         estimate D2E/DX2                !
 ! A28   A(5,6,29)             109.9534         estimate D2E/DX2                !
 ! A29   A(7,6,28)             110.099          estimate D2E/DX2                !
 ! A30   A(7,6,29)             109.6253         estimate D2E/DX2                !
 ! A31   A(28,6,29)            107.156          estimate D2E/DX2                !
 ! A32   A(6,7,8)              110.3983         estimate D2E/DX2                !
 ! A33   A(6,7,30)             110.7761         estimate D2E/DX2                !
 ! A34   A(6,7,31)             109.8394         estimate D2E/DX2                !
 ! A35   A(8,7,30)             109.7265         estimate D2E/DX2                !
 ! A36   A(8,7,31)             109.7129         estimate D2E/DX2                !
 ! A37   A(30,7,31)            106.3032         estimate D2E/DX2                !
 ! A38   A(7,8,9)              110.2158         estimate D2E/DX2                !
 ! A39   A(7,8,10)             108.3147         estimate D2E/DX2                !
 ! A40   A(7,8,32)             109.8089         estimate D2E/DX2                !
 ! A41   A(9,8,10)             109.5209         estimate D2E/DX2                !
 ! A42   A(9,8,32)             108.9391         estimate D2E/DX2                !
 ! A43   A(10,8,32)            110.0328         estimate D2E/DX2                !
 ! A44   A(8,9,33)             105.1045         estimate D2E/DX2                !
 ! A45   A(8,10,11)            110.0647         estimate D2E/DX2                !
 ! A46   A(10,11,12)           109.797          estimate D2E/DX2                !
 ! A47   A(10,11,34)           109.5945         estimate D2E/DX2                !
 ! A48   A(10,11,35)           109.78           estimate D2E/DX2                !
 ! A49   A(12,11,34)           109.0695         estimate D2E/DX2                !
 ! A50   A(12,11,35)           110.2843         estimate D2E/DX2                !
 ! A51   A(34,11,35)           108.2893         estimate D2E/DX2                !
 ! A52   A(11,12,13)           106.5279         estimate D2E/DX2                !
 ! A53   A(11,12,36)           111.0134         estimate D2E/DX2                !
 ! A54   A(11,12,37)           110.9429         estimate D2E/DX2                !
 ! A55   A(13,12,36)           111.4044         estimate D2E/DX2                !
 ! A56   A(13,12,37)           111.148          estimate D2E/DX2                !
 ! A57   A(36,12,37)           105.8847         estimate D2E/DX2                !
 ! A58   A(12,13,14)           112.0487         estimate D2E/DX2                !
 ! A59   A(12,13,38)           107.752          estimate D2E/DX2                !
 ! A60   A(12,13,39)           107.7104         estimate D2E/DX2                !
 ! A61   A(14,13,38)           110.0052         estimate D2E/DX2                !
 ! A62   A(14,13,39)           110.1659         estimate D2E/DX2                !
 ! A63   A(38,13,39)           109.0676         estimate D2E/DX2                !
 ! A64   A(13,14,15)           113.9325         estimate D2E/DX2                !
 ! A65   A(14,15,16)           110.9743         estimate D2E/DX2                !
 ! A66   A(14,15,17)           111.0872         estimate D2E/DX2                !
 ! A67   A(14,15,18)           106.6852         estimate D2E/DX2                !
 ! A68   A(16,15,17)           111.0964         estimate D2E/DX2                !
 ! A69   A(16,15,18)           108.4226         estimate D2E/DX2                !
 ! A70   A(17,15,18)           108.4037         estimate D2E/DX2                !
 ! A71   A(15,16,40)           112.1639         estimate D2E/DX2                !
 ! A72   A(15,16,41)           110.5171         estimate D2E/DX2                !
 ! A73   A(15,16,42)           111.5266         estimate D2E/DX2                !
 ! A74   A(40,16,41)           106.6795         estimate D2E/DX2                !
 ! A75   A(40,16,42)           106.863          estimate D2E/DX2                !
 ! A76   A(41,16,42)           108.8807         estimate D2E/DX2                !
 ! A77   A(15,17,43)           112.1818         estimate D2E/DX2                !
 ! A78   A(15,17,44)           111.504          estimate D2E/DX2                !
 ! A79   A(15,17,45)           110.5483         estimate D2E/DX2                !
 ! A80   A(43,17,44)           106.8599         estimate D2E/DX2                !
 ! A81   A(43,17,45)           106.6834         estimate D2E/DX2                !
 ! A82   A(44,17,45)           108.852          estimate D2E/DX2                !
 ! A83   A(15,18,46)           111.1144         estimate D2E/DX2                !
 ! A84   A(15,18,47)           111.1216         estimate D2E/DX2                !
 ! A85   A(15,18,48)           111.1517         estimate D2E/DX2                !
 ! A86   A(46,18,47)           106.65           estimate D2E/DX2                !
 ! A87   A(46,18,48)           108.3208         estimate D2E/DX2                !
 ! A88   A(47,18,48)           108.3127         estimate D2E/DX2                !
 ! D1    D(19,1,2,3)          -179.9931         estimate D2E/DX2                !
 ! D2    D(20,1,2,3)            60.836          estimate D2E/DX2                !
 ! D3    D(21,1,2,3)           -60.8278         estimate D2E/DX2                !
 ! D4    D(1,2,3,4)            179.9662         estimate D2E/DX2                !
 ! D5    D(1,2,3,22)            59.7519         estimate D2E/DX2                !
 ! D6    D(1,2,3,23)           -59.808          estimate D2E/DX2                !
 ! D7    D(2,3,4,5)           -179.93           estimate D2E/DX2                !
 ! D8    D(2,3,4,24)            58.2091         estimate D2E/DX2                !
 ! D9    D(2,3,4,25)           -58.04           estimate D2E/DX2                !
 ! D10   D(22,3,4,5)           -59.8969         estimate D2E/DX2                !
 ! D11   D(22,3,4,24)          178.2423         estimate D2E/DX2                !
 ! D12   D(22,3,4,25)           61.9932         estimate D2E/DX2                !
 ! D13   D(23,3,4,5)            60.0406         estimate D2E/DX2                !
 ! D14   D(23,3,4,24)          -61.8203         estimate D2E/DX2                !
 ! D15   D(23,3,4,25)         -178.0693         estimate D2E/DX2                !
 ! D16   D(3,4,5,6)           -179.8103         estimate D2E/DX2                !
 ! D17   D(3,4,5,26)            58.9085         estimate D2E/DX2                !
 ! D18   D(3,4,5,27)           -58.7913         estimate D2E/DX2                !
 ! D19   D(24,4,5,6)           -58.3669         estimate D2E/DX2                !
 ! D20   D(24,4,5,26)         -179.6481         estimate D2E/DX2                !
 ! D21   D(24,4,5,27)           62.6521         estimate D2E/DX2                !
 ! D22   D(25,4,5,6)            58.6587         estimate D2E/DX2                !
 ! D23   D(25,4,5,26)          -62.6225         estimate D2E/DX2                !
 ! D24   D(25,4,5,27)          179.6778         estimate D2E/DX2                !
 ! D25   D(4,5,6,7)            179.5301         estimate D2E/DX2                !
 ! D26   D(4,5,6,28)            58.1329         estimate D2E/DX2                !
 ! D27   D(4,5,6,29)           -59.2028         estimate D2E/DX2                !
 ! D28   D(26,5,6,7)           -59.0642         estimate D2E/DX2                !
 ! D29   D(26,5,6,28)          179.5386         estimate D2E/DX2                !
 ! D30   D(26,5,6,29)           62.2028         estimate D2E/DX2                !
 ! D31   D(27,5,6,7)            58.4262         estimate D2E/DX2                !
 ! D32   D(27,5,6,28)          -62.971          estimate D2E/DX2                !
 ! D33   D(27,5,6,29)          179.6932         estimate D2E/DX2                !
 ! D34   D(5,6,7,8)           -179.3257         estimate D2E/DX2                !
 ! D35   D(5,6,7,30)            58.9227         estimate D2E/DX2                !
 ! D36   D(5,6,7,31)           -58.2112         estimate D2E/DX2                !
 ! D37   D(28,6,7,8)           -58.4292         estimate D2E/DX2                !
 ! D38   D(28,6,7,30)          179.8192         estimate D2E/DX2                !
 ! D39   D(28,6,7,31)           62.6853         estimate D2E/DX2                !
 ! D40   D(29,6,7,8)            59.2136         estimate D2E/DX2                !
 ! D41   D(29,6,7,30)          -62.5381         estimate D2E/DX2                !
 ! D42   D(29,6,7,31)         -179.672          estimate D2E/DX2                !
 ! D43   D(6,7,8,9)             59.7932         estimate D2E/DX2                !
 ! D44   D(6,7,8,10)           179.5933         estimate D2E/DX2                !
 ! D45   D(6,7,8,32)           -60.2242         estimate D2E/DX2                !
 ! D46   D(30,7,8,9)          -177.8369         estimate D2E/DX2                !
 ! D47   D(30,7,8,10)          -58.0368         estimate D2E/DX2                !
 ! D48   D(30,7,8,32)           62.1457         estimate D2E/DX2                !
 ! D49   D(31,7,8,9)           -61.3964         estimate D2E/DX2                !
 ! D50   D(31,7,8,10)           58.4036         estimate D2E/DX2                !
 ! D51   D(31,7,8,32)          178.5861         estimate D2E/DX2                !
 ! D52   D(7,8,9,33)            56.0267         estimate D2E/DX2                !
 ! D53   D(10,8,9,33)          -63.0407         estimate D2E/DX2                !
 ! D54   D(32,8,9,33)          176.568          estimate D2E/DX2                !
 ! D55   D(7,8,10,11)          176.8704         estimate D2E/DX2                !
 ! D56   D(9,8,10,11)          -62.8949         estimate D2E/DX2                !
 ! D57   D(32,8,10,11)          56.8277         estimate D2E/DX2                !
 ! D58   D(8,10,11,12)        -179.1986         estimate D2E/DX2                !
 ! D59   D(8,10,11,34)          61.0182         estimate D2E/DX2                !
 ! D60   D(8,10,11,35)         -57.7986         estimate D2E/DX2                !
 ! D61   D(10,11,12,13)       -177.5687         estimate D2E/DX2                !
 ! D62   D(10,11,12,36)         60.9792         estimate D2E/DX2                !
 ! D63   D(10,11,12,37)        -56.4698         estimate D2E/DX2                !
 ! D64   D(34,11,12,13)        -57.4657         estimate D2E/DX2                !
 ! D65   D(34,11,12,36)       -178.9178         estimate D2E/DX2                !
 ! D66   D(34,11,12,37)         63.6332         estimate D2E/DX2                !
 ! D67   D(35,11,12,13)         61.3343         estimate D2E/DX2                !
 ! D68   D(35,11,12,36)        -60.1178         estimate D2E/DX2                !
 ! D69   D(35,11,12,37)       -177.5668         estimate D2E/DX2                !
 ! D70   D(11,12,13,14)        179.9428         estimate D2E/DX2                !
 ! D71   D(11,12,13,38)         58.7971         estimate D2E/DX2                !
 ! D72   D(11,12,13,39)        -58.7395         estimate D2E/DX2                !
 ! D73   D(36,12,13,14)        -58.8544         estimate D2E/DX2                !
 ! D74   D(36,12,13,38)        180.0            estimate D2E/DX2                !
 ! D75   D(36,12,13,39)         62.4634         estimate D2E/DX2                !
 ! D76   D(37,12,13,14)         58.9749         estimate D2E/DX2                !
 ! D77   D(37,12,13,38)        -62.1707         estimate D2E/DX2                !
 ! D78   D(37,12,13,39)       -179.7073         estimate D2E/DX2                !
 ! D79   D(12,13,14,15)        179.983          estimate D2E/DX2                !
 ! D80   D(38,13,14,15)        -60.18           estimate D2E/DX2                !
 ! D81   D(39,13,14,15)         60.0897         estimate D2E/DX2                !
 ! D82   D(13,14,15,16)        -62.0701         estimate D2E/DX2                !
 ! D83   D(13,14,15,17)         62.0527         estimate D2E/DX2                !
 ! D84   D(13,14,15,18)       -179.9893         estimate D2E/DX2                !
 ! D85   D(14,15,16,40)         64.8487         estimate D2E/DX2                !
 ! D86   D(14,15,16,41)        -54.0558         estimate D2E/DX2                !
 ! D87   D(14,15,16,42)       -175.3234         estimate D2E/DX2                !
 ! D88   D(17,15,16,40)        -59.2689         estimate D2E/DX2                !
 ! D89   D(17,15,16,41)       -178.1735         estimate D2E/DX2                !
 ! D90   D(17,15,16,42)         60.559          estimate D2E/DX2                !
 ! D91   D(18,15,16,40)       -178.2929         estimate D2E/DX2                !
 ! D92   D(18,15,16,41)         62.8026         estimate D2E/DX2                !
 ! D93   D(18,15,16,42)        -58.465          estimate D2E/DX2                !
 ! D94   D(14,15,17,43)        -64.7464         estimate D2E/DX2                !
 ! D95   D(14,15,17,44)        175.433          estimate D2E/DX2                !
 ! D96   D(14,15,17,45)         54.1957         estimate D2E/DX2                !
 ! D97   D(16,15,17,43)         59.307          estimate D2E/DX2                !
 ! D98   D(16,15,17,44)        -60.5136         estimate D2E/DX2                !
 ! D99   D(16,15,17,45)        178.2491         estimate D2E/DX2                !
 ! D100  D(18,15,17,43)        178.3423         estimate D2E/DX2                !
 ! D101  D(18,15,17,44)         58.5217         estimate D2E/DX2                !
 ! D102  D(18,15,17,45)        -62.7156         estimate D2E/DX2                !
 ! D103  D(14,15,18,46)         59.1945         estimate D2E/DX2                !
 ! D104  D(14,15,18,47)        -59.3889         estimate D2E/DX2                !
 ! D105  D(14,15,18,48)        179.9055         estimate D2E/DX2                !
 ! D106  D(16,15,18,46)        -60.39           estimate D2E/DX2                !
 ! D107  D(16,15,18,47)       -178.9734         estimate D2E/DX2                !
 ! D108  D(16,15,18,48)         60.321          estimate D2E/DX2                !
 ! D109  D(17,15,18,46)        178.9023         estimate D2E/DX2                !
 ! D110  D(17,15,18,47)         60.3189         estimate D2E/DX2                !
 ! D111  D(17,15,18,48)        -60.3867         estimate D2E/DX2                !
 --------------------------------------------------------------------------------
 Trust Radius=3.00D-01 FncErr=1.00D-07 GrdErr=1.00D-06 EigMax=2.50D+02 EigMin=1.00D-04
 Number of steps in this run=    256 maximum allowed number of steps=    288.
 GradGradGradGradGradGradGradGradGradGradGradGradGradGradGradGradGradGrad

                          Input orientation:                          
 ---------------------------------------------------------------------
 Center     Atomic      Atomic             Coordinates (Angstroms)
 Number     Number       Type             X           Y           Z
 ---------------------------------------------------------------------
      1          6           0        0.873970    0.015130   -0.016010
      2          8           0        2.294800   -0.006430   -0.033800
      3          6           0        2.767460   -1.057460   -0.868400
      4          6           0        4.284740   -1.047620   -0.862390
      5          6           0        4.813120   -2.164170   -1.751280
      6          6           0        6.330660   -2.169620   -1.751420
      7          6           0        6.864330   -3.292320   -2.630260
      8          6           0        8.382710   -3.302130   -2.612530
      9          8           0        8.856560   -3.493580   -1.288260
     10          8           0        8.831020   -4.366760   -3.434700
     11          6           0       10.246640   -4.365860   -3.502490
     12          6           0       10.718770   -5.494680   -4.399070
     13          6           0       12.231080   -5.463450   -4.370200
     14          8           0       12.801190   -6.483620   -5.178420
     15          6           0       14.242860   -6.490740   -5.180680
     16          6           0       14.798180   -5.179720   -5.756490
     17          6           0       14.796410   -6.754320   -3.772340
     18          6           0       14.676180   -7.643780   -6.095010
     19          1           0        0.547080    0.831220    0.631850
     20          1           0        0.486040   -0.928540    0.379970
     21          1           0        0.485530    0.186420   -1.024750
     22          1           0        2.398260   -0.909240   -1.889820
     23          1           0        2.399630   -2.018870   -0.491390
     24          1           0        4.654380   -1.164610    0.164290
     25          1           0        4.654100   -0.073570   -1.207020
     26          1           0        4.443000   -2.034110   -2.775440
     27          1           0        4.441130   -3.131820   -1.392300
     28          1           0        6.691910   -2.291750   -0.723250
     29          1           0        6.708380   -1.206140   -2.114750
     30          1           0        6.506630   -3.182610   -3.661960
     31          1           0        6.483680   -4.257840   -2.273220
     32          1           0        8.764890   -2.347440   -2.992680
     33          1           0        8.445100   -4.316600   -0.989830
     34          1           0       10.663300   -4.508170   -2.497330
     35          1           0       10.599400   -3.400750   -3.888090
     36          1           0       10.335670   -5.373250   -5.418470
     37          1           0       10.336370   -6.460090   -4.047860
     38          1           0       12.547310   -5.588930   -3.331190
     39          1           0       12.550170   -4.479790   -4.724260
     40          1           0       14.548950   -4.316100   -5.131910
     41          1           0       14.372340   -4.984560   -6.747710
     42          1           0       15.888350   -5.207590   -5.838900
     43          1           0       14.546710   -5.950210   -3.073000
     44          1           0       15.886690   -6.841040   -3.779830
     45          1           0       14.370600   -7.675580   -3.357700
     46          1           0       14.287140   -7.509830   -7.110540
     47          1           0       14.286810   -8.602100   -5.733500
     48          1           0       15.768180   -7.714960   -6.151100
 ---------------------------------------------------------------------
                    Distance matrix (angstroms):
                    1          2          3          4          5
     1  C    0.000000
     2  O    1.421105   0.000000
     3  C    2.337161   1.422894   0.000000
     4  C    3.671396   2.393846   1.517324   0.000000
     5  C    4.824667   3.734637   2.487772   1.521839   0.000000
     6  C    6.128641   4.890580   3.835755   2.497008   1.517550
     7  C    7.325158   6.198329   4.988296   3.849458   2.500558
     8  C    8.609722   7.387431   6.293772   4.993913   3.844305
     9  O    8.812004   7.535952   6.571766   5.202463   4.281486
    10  O    9.705825   8.561587   7.369133   6.188872   4.881478
    11  C   10.917672   9.709181   8.591977   7.316085   6.118604
    12  C   12.103277  10.960828   9.766160   8.583775   7.278722
    13  C   13.340081  12.137261  11.010697   9.744157   8.530540
    14  O   14.530754  13.371811  12.194065  10.986725   9.706297
    15  C   15.739358  14.535914  13.408993  12.142460  10.927030
    16  C   15.931830  14.691719  13.624415  12.310925  11.173033
    17  C   15.930154  14.690165  13.622875  12.309729  11.172298
    18  C   16.914909  15.759630  14.577883  13.374291  12.090247
    19  H    1.092054   2.049213   3.278407   4.442172   5.731559
    20  H    1.094442   2.071981   2.603829   3.998470   4.979220
    21  H    1.094432   2.071867   2.603630   3.997901   4.978067
    22  H    2.586326   2.066538   1.096165   2.152572   2.724994
    23  H    2.586654   2.066469   1.096241   2.152814   2.726421
    24  H    3.964315   2.635951   2.153694   1.097448   2.166501
    25  H    3.964310   2.635764   2.154556   1.097256   2.166129
    26  H    4.954979   4.030241   2.719941   2.158233   1.096726
    27  H    4.951979   4.027446   2.716360   2.156189   1.097082
    28  H    6.298437   5.003259   4.116534   2.713243   2.145454
    29  H    6.319537   5.024873   4.135982   2.732685   2.154517
    30  H    7.432722   6.402435   5.128512   4.163240   2.748799
    31  H    7.404196   6.374653   5.101592   4.138996   2.728854
    32  H    8.758363   7.489817   6.491978   5.128295   4.146221
    33  H    8.776914   7.570849   6.547697   5.292548   4.289993
    34  H   11.065630   9.816641   8.769555   7.438714   6.346301
    35  H   11.011141   9.764391   8.714862   7.386949   6.290956
    36  H   12.155039  11.065849   9.828885   8.722539   7.365123
    37  H   12.154065  11.064775   9.827806   8.721484   7.364475
    38  H   13.366479  12.130583  11.056447   9.746206   8.604812
    39  H   13.368080  12.131940  11.058093   9.747367   8.605966
    40  H   15.229480  13.954504  12.946033  11.587311  10.528335
    41  H   15.890836  14.687591  13.589026  12.324616  11.148883
    42  H   16.929692  15.669584  14.631719  13.293411  12.191463
    43  H   15.227419  13.952582  12.944110  11.585776  10.527289
    44  H   16.927941  15.667932  14.630120  13.292119  12.190655
    45  H   15.889397  14.686358  13.587825  12.324001  11.149065
    46  H   16.937252  15.817632  14.604808  13.447957  12.126616
    47  H   16.936665  15.817093  14.604322  13.447650  12.126657
    48  H   17.867040  16.684567  15.532158  14.293120  13.045422
                    6          7          8          9         10
     6  C    0.000000
     7  C    1.522373   0.000000
     8  C    2.496998   1.518515   0.000000
     9  O    2.889214   2.410487   1.419464   0.000000
    10  O    3.729967   2.381053   1.417880   2.317391   0.000000
    11  C    4.819192   3.654216   2.323313   2.756086   1.417242
    12  C    6.109139   4.778680   3.668266   4.141179   2.401211
    13  C    7.247226   6.045097   4.750859   4.976558   3.693007
    14  O    8.498393   7.205819   6.019023   6.295537   4.825340
    15  C    9.645455   8.436660   7.148705   7.290139   6.070235
    16  C    9.838708   8.733932   7.387021   7.623057   6.454348
    17  C    9.837302   8.729701   7.375522   7.216987   6.434308
    18  C   10.884893   9.589823   8.401509   8.613767   7.209855
    19  H    6.937926   8.219038   9.434388   9.562331  10.591482
    20  H    6.343712   7.438516   8.771909   8.912240   9.798559
    21  H    6.343857   7.440993   8.778182   9.148004   9.807472
    22  H    4.131765   5.115965   6.485513   6.982143   7.464684
    23  H    4.130787   5.111750   6.476360   6.670961   7.452412
    24  H    2.736769   4.149764   5.116656   5.019195   6.375799
    25  H    2.738732   4.155849   5.128508   5.418832   6.390673
    26  H    2.151799   2.732583   4.141948   4.880704   5.013043
    27  H    2.150609   2.725840   4.129651   4.431446   4.996760
    28  H    1.096609   2.160453   2.729295   2.539555   4.029072
    29  H    1.096802   2.154581   2.728432   3.245018   4.029564
    30  H    2.169626   1.097447   2.152966   3.354598   2.618520
    31  H    2.157858   1.097543   2.152865   2.680448   2.621241
    32  H    2.738215   2.153201   1.096362   2.055988   2.068190
    33  H    3.108118   2.497798   1.914732   0.967327   2.475649
    34  H    4.979655   3.991007   2.582420   2.399073   2.062986
    35  H    4.929826   3.942669   2.559393   3.131330   2.065407
    36  H    6.304808   4.914732   3.997110   4.772794   2.685579
    37  H    6.302974   4.909116   3.981165   4.313399   2.650297
    38  H    7.268706   6.169439   4.805187   4.710169   3.913467
    39  H    7.270280   6.174439   4.818092   5.140181   3.937997
    40  H    9.141957   8.146150   6.737798   6.917622   5.964714
    41  H    9.877015   8.728533   7.470338   7.902686   6.485672
    42  H   10.829875   9.767117   8.388973   8.549399   7.502871
    43  H    9.140181   8.141214   6.724526   6.449662   5.941991
    44  H   10.828403   9.763089   8.378317   8.175337   7.484895
    45  H    9.876050   8.722742   7.452326   7.223319   6.452997
    46  H   10.979234   9.641494   8.532240   8.917422   7.291086
    47  H   10.978802   9.639350   8.525757   8.680135   7.279302
    48  H   11.797235  10.546782   9.302672   9.446574   8.167831
                   11         12         13         14         15
    11  C    0.000000
    12  C    1.516904   0.000000
    13  C    2.428091   1.512908   0.000000
    14  O    3.717442   2.433488   1.420912   0.000000
    15  C    4.827133   3.744631   2.399888   1.441689   0.000000
    16  C    5.143870   4.310844   2.931263   2.454035   1.535810
    17  C    5.145675   4.313540   2.933377   2.455859   1.536006
    18  C    6.089889   4.812062   3.702340   2.387822   1.534036
    19  H   11.755164  12.991938  14.183061  15.408742  16.582249
    20  H   11.052510  12.181856  13.456429  14.608817  15.846419
    21  H   11.051774  12.181138  13.456263  14.608829  15.846777
    22  H    8.726167   9.826163  11.116540  12.251920  13.501017
    23  H    8.726434   9.826460  11.116101  12.251314  13.499969
    24  H    7.413950   8.737882   9.820795  11.099862  12.201447
    25  H    7.414138   8.738297   9.821769  11.101164  12.203047
    26  H    6.296658   7.348266   8.657819   9.768920  11.031046
    27  H    6.299183   7.350683   8.659544   9.770357  11.032138
    28  H    4.966106   6.323450   7.351349   8.645439   9.721988
    29  H    4.942564   6.300232   7.328844   8.623236   9.700274
    30  H    3.925963   4.861185   6.202674   7.267586   8.549824
    31  H    3.960131   4.897448   6.235658   7.301042   8.581611
    32  H    2.555290   3.962411   4.860201   6.178767   7.208497
    33  H    3.092157   4.263844   5.203442   6.419952   7.476906
    34  H    1.097362   2.143104   2.622620   3.957426   4.893281
    35  H    1.097526   2.158678   2.673863   4.002114   4.949104
    36  H    2.166504   1.095759   2.167853   2.714652   4.070806
    37  H    2.165936   1.096173   2.164976   2.711837   4.067540
    38  H    2.611193   2.119625   1.093292   2.068135   2.666227
    39  H    2.609972   2.118909   1.093053   2.069929   2.667853
    40  H    4.600800   4.073866   2.696133   2.784775   2.196618
    41  H    5.285418   4.373203   3.235256   2.679247   2.177367
    42  H    6.164107   5.374020   3.949452   3.405150   2.188005
    43  H    4.602741   4.076652   2.698482   2.786424   2.197001
    44  H    6.165517   5.376201   3.950921   3.406481   2.187983
    45  H    5.289826   4.379114   3.239787   2.683065   2.177939
    46  H    6.263243   4.913875   3.990553   2.644663   2.182857
    47  H    6.264671   4.916063   3.991959   2.646344   2.182976
    48  H    6.979900   5.787555   4.555434   3.356387   2.183353
                   16         17         18         19         20
    16  C    0.000000
    17  C    2.533026   0.000000
    18  C    2.490195   2.490058   0.000000
    19  H   16.734280  16.732624  17.796284   0.000000
    20  H   16.142058  15.999002  16.981752   1.778742   0.000000
    21  H   16.001149  16.140769  16.982171   1.778730   1.793425
    22  H   13.672825  13.835569  14.621387   3.579789   2.967980
    23  H   13.836050  13.670014  14.620323   3.580031   2.368526
    24  H   12.412632  12.231218  13.475717   4.590410   4.180587
    25  H   12.234084  12.412886  13.477485   4.589957   4.541171
    26  H   11.225474  11.422228  12.132844   5.915905   5.180389
    27  H   11.424033  11.225815  12.133817   5.913247   4.861905
    28  H    9.969227   9.741376  11.011294   7.024826   6.448896
    29  H    9.720930   9.947167  10.989609   7.046720   6.709561
    30  H    8.782101   9.027167   9.620983   8.370416   7.593783
    31  H    9.061674   8.808022   9.653379   8.341534   7.354954
    32  H    7.215334   7.510506   8.521679   9.527513   9.051376
    33  H    7.989221   7.350101   8.715466   9.566014   8.757964
    34  H    5.307573   4.873750   6.235267  11.859121  11.165537
    35  H    4.928023   5.373521   6.284420  11.806293  11.252031
    36  H    4.479476   4.951293   4.945002  13.073573  12.263465
    37  H    4.946364   4.478218   4.942256  13.072608  12.133949
    38  H    3.334059   2.571225   4.048851  14.174961  13.452367
    39  H    2.570788   3.335451   4.050890  14.176350  13.572316
    40  H    1.094557   2.802603   3.466584  15.992754  15.479723
    41  H    1.096332   3.487795   2.754957  16.715831  16.127134
    42  H    1.093636   2.802745   2.733125  17.711363  17.152719
    43  H    2.803214   1.094541   3.466625  15.990727  15.324575
    44  H    2.802146   1.093749   2.733091  17.709606  17.012984
    45  H    3.488027   1.096340   2.754497  16.714421  15.883127
    46  H    2.742996   3.460308   1.095717  17.841159  17.026200
    47  H    3.460450   2.742286   1.095753  17.840555  16.932787
    48  H    2.743002   2.743295   1.095754  18.727720  17.951439
                   21         22         23         24         25
    21  H    0.000000
    22  H    2.367985   0.000000
    23  H    2.968426   1.785185   0.000000
    24  H    4.540750   3.061807   2.498714   0.000000
    25  H    4.180645   2.500675   3.062508   1.752387   0.000000
    26  H    4.863871   2.496120   3.064715   3.072902   2.519568
    27  H    5.176155   3.059527   2.493596   2.517611   3.071250
    28  H    6.689647   4.659147   4.307191   2.491927   3.050742
    29  H    6.469249   4.326185   4.675591   3.068332   2.515304
    30  H    7.386399   5.018705   5.317354   4.705671   4.373183
    31  H    7.568879   5.296298   4.986719   4.342334   4.689591
    32  H    8.879245   6.619569   6.846966   5.316186   5.025700
    33  H    9.145117   6.998883   6.486579   5.063259   5.694046
    34  H   11.304630   9.035057   8.860511   7.373651   7.578988
    35  H   11.106614   8.801102   8.982393   7.534280   7.321534
    36  H   12.134248   9.766332   9.925156   9.008713   8.837599
    37  H   12.261906   9.923843   9.765488   8.835685   9.008119
    38  H   13.570588  11.268552  11.125880   9.700069   9.860733
    39  H   13.454197  11.128529  11.269728   9.860621   9.702251
    40  H   15.327140  13.029087  13.206728  11.656935  11.459140
    41  H   15.885049  13.549388  13.830497  12.522241  12.217252
    42  H   17.015236  14.698761  14.856290  13.363610  13.191696
    43  H   15.478060  13.205913  13.025809  11.456012  11.656780
    44  H   17.151425  14.855845  14.695848  13.188735  13.363723
    45  H   16.126031  13.830219  13.546890  12.214830  12.523033
    46  H   16.933799  14.566028  14.672310  13.637266  13.525715
    47  H   17.026031  14.672818  14.564466  13.523457  13.638693
    48  H   17.951899  15.595868  15.594739  14.363418  14.365150
                   26         27         28         29         30
    26  H    0.000000
    27  H    1.765799   0.000000
    28  H    3.055398   2.493864   0.000000
    29  H    2.500798   3.061144   1.764962   0.000000
    30  H    2.522606   3.069239   3.076358   2.518133   0.000000
    31  H    3.059669   2.493181   2.512225   3.064062   1.756487
    32  H    4.338675   4.676684   3.074193   2.510490   2.499036
    33  H    4.941150   4.194933   2.691609   3.735854   3.490541
    34  H    6.700034   6.467676   4.881784   5.166349   4.515681
    35  H    6.403667   6.650232   5.149230   4.806359   4.104813
    36  H    7.270421   7.481955   6.694604   6.437127   4.748239
    37  H    7.479316   7.272086   6.458342   6.671073   5.055463
    38  H    8.867099   8.689467   7.208221   7.401465   6.510730
    39  H    8.689388   8.869922   7.423935   7.186991   6.271805
    40  H   10.625001  10.842289   9.234032   8.958217   8.253755
    41  H   11.093957  11.434247  10.125925   9.719931   8.639344
    42  H   12.265879  12.454715  10.920005  10.684229   9.841559
    43  H   10.840172  10.625009   8.977947   9.212158   8.523460
    44  H   12.452848  12.266192  10.704331  10.897980  10.068939
    45  H   11.433392  11.095176   9.741059  10.104860   9.062085
    46  H   12.069950  12.198736  11.212197  11.051336   9.547454
    47  H   12.197918  12.070932  11.072743  11.190540   9.705326
    48  H   13.112088  13.113101  11.884925  11.863256  10.607277
                   31         32         33         34         35
    31  H    0.000000
    32  H    3.061237   0.000000
    33  H    2.344720   2.826883   0.000000
    34  H    4.193103   2.918576   2.688804   0.000000
    35  H    4.503505   2.297096   3.725547   1.778954   0.000000
    36  H    5.096525   4.184177   4.929870   3.064109   2.510453
    37  H    4.779380   4.527344   4.186048   2.514164   3.074780
    38  H    6.297516   4.992850   4.891719   2.326555   2.982050
    39  H    6.546691   4.676925   5.551954   2.918955   2.380969
    40  H    8.557107   6.473583   7.376572   4.698529   4.240743
    41  H    9.098359   7.245561   8.290448   5.661241   4.992089
    42  H   10.102669   8.186886   8.928007   6.241508   5.919740
    43  H    8.277452   6.812918   6.651160   4.182314   4.769211
    44  H    9.867086   8.457664   8.338714   5.862669   6.308942
    45  H    8.663749   7.742500   7.211179   4.951444   5.725158
    46  H    9.740077   8.608268   9.043740   6.589680   6.392820
    47  H    9.577837   8.782054   8.659878   6.353179   6.637513
    48  H   10.639153   9.371871   9.582018   7.049350   7.102810
                   36         37         38         39         40
    36  H    0.000000
    37  H    1.749227   0.000000
    38  H    3.048706   2.482094   0.000000
    39  H    2.486807   3.046312   1.780686   0.000000
    40  H    4.353322   4.849504   2.978129   2.046483   0.000000
    41  H    4.267630   5.074981   3.920281   2.769376   1.757509
    42  H    5.571038   5.966663   4.194828   3.593823   1.757436
    43  H    4.854582   4.351700   2.048118   2.979088   2.628580
    44  H    5.971044   5.569831   3.594512   4.195213   3.161169
    45  H    5.082141   4.269514   2.771136   3.923586   3.803385
    46  H    4.800228   5.107891   4.582614   4.229957   3.766090
    47  H    5.112360   4.799538   4.228019   4.585621   4.335946
    48  H    5.960916   5.958429   4.779738   4.780982   3.752002
                   41         42         43         44         45
    41  H    0.000000
    42  H    1.781562   0.000000
    43  H    3.803469   3.162544   0.000000
    44  H    3.814195   2.628294   1.757479   0.000000
    45  H    4.328251   3.814563   1.757547   1.781342   0.000000
    46  H    2.552625   3.079164   4.336072   3.754926   3.757426
    47  H    3.757996   3.754829   3.765412   3.078599   2.551448
    48  H    3.124003   2.529588   3.752470   2.529961   3.123758
                   46         47         48
    46  H    0.000000
    47  H    1.757638   0.000000
    48  H    1.776537   1.776475   0.000000
 Stoichiometry    C14H30O4
 Framework group  C1[X(C14H30O4)]
 Deg. of freedom   138
 Full point group                 C1      NOp   1
 Largest Abelian subgroup         C1      NOp   1
 Largest concise Abelian subgroup C1      NOp   1
                         Standard orientation:                         
 ---------------------------------------------------------------------
 Center     Atomic      Atomic             Coordinates (Angstroms)
 Number     Number       Type             X           Y           Z
 ---------------------------------------------------------------------
      1          6           0        9.293465   -0.263269   -0.029712
      2          8           0        8.084314    0.404880    0.303561
      3          6           0        6.959651   -0.373449   -0.088821
      4          6           0        5.690797    0.370673    0.283423
      5          6           0        4.473194   -0.445288   -0.126022
      6          6           0        3.195568    0.289202    0.236127
      7          6           0        1.974316   -0.517874   -0.181953
      8          6           0        0.700184    0.230290    0.168371
      9          8           0        0.669061    1.484102   -0.496359
     10          8           0       -0.405569   -0.553893   -0.247260
     11          6           0       -1.617751    0.077780    0.127146
     12          6           0       -2.795882   -0.775557   -0.302763
     13          6           0       -4.043766   -0.008534    0.075857
     14          8           0       -5.228328   -0.708462   -0.278973
     15          6           0       -6.443622   -0.013034    0.064406
     16          6           0       -6.550034    0.190894    1.582892
     17          6           0       -6.543813    1.325901   -0.681603
     18          6           0       -7.605401   -0.907208   -0.387245
     19          1           0       10.132958    0.360394    0.284737
     20          1           0        9.353897   -0.419457   -1.111265
     21          1           0        9.351055   -1.223805    0.491667
     22          1           0        6.987013   -1.342155    0.423464
     23          1           0        6.989261   -0.540886   -1.171795
     24          1           0        5.678069    1.353554   -0.204610
     25          1           0        5.676211    0.569245    1.362463
     26          1           0        4.492714   -1.422298    0.371852
     27          1           0        4.497557   -0.631420   -1.206925
     28          1           0        3.188217    1.267641   -0.259004
     29          1           0        3.163152    0.473267    1.316888
     30          1           0        1.972230   -1.501319    0.305102
     31          1           0        2.006201   -0.709136   -1.262232
     32          1           0        0.654607    0.400044    1.250552
     33          1           0        0.767341    1.274024   -1.435470
     34          1           0       -1.687997    1.058042   -0.361071
     35          1           0       -1.636038    0.232024    1.213626
     36          1           0       -2.767499   -1.757640    0.182411
     37          1           0       -2.764453   -0.972402   -1.380658
     38          1           0       -4.011034    0.955892   -0.438050
     39          1           0       -4.015229    0.160907    1.155320
     40          1           0       -5.763556    0.847896    1.967414
     41          1           0       -6.444978   -0.766076    2.107407
     42          1           0       -7.505852    0.643808    1.860956
     43          1           0       -5.756839    2.025416   -0.382657
     44          1           0       -7.499289    1.821945   -0.488487
     45          1           0       -6.435745    1.173526   -1.761911
     46          1           0       -7.565414   -1.885137    0.105353
     47          1           0       -7.561626   -1.096818   -1.465581
     48          1           0       -8.572188   -0.445274   -0.157866
 ---------------------------------------------------------------------
 Rotational constants (GHZ):           2.2648261           0.0668300           0.0663747
 Standard basis: 6-31G(2df,p) (6D, 7F)
 There are   708 symmetry adapted cartesian basis functions of A   symmetry.
 There are   654 symmetry adapted basis functions of A   symmetry.
   654 basis functions,  1002 primitive gaussians,   708 cartesian basis functions
    73 alpha electrons       73 beta electrons
       nuclear repulsion energy      1312.3711762520 Hartrees.
 NAtoms=   48 NActive=   48 NUniq=   48 SFac= 1.00D+00 NAtFMM=   60 NAOKFM=F Big=F
 Integral buffers will be    131072 words long.
 Raffenetti 2 integral format.
 Two-electron integral symmetry is turned on.
 One-electron integrals computed using PRISM.
 PrsmSu:  requested number of processors reduced to:  12 ShMem   1 Linda.
 NBasis=   654 RedAO= T EigKep=  5.02D-04  NBF=   654
 NBsUse=   654 1.00D-06 EigRej= -1.00D+00 NBFU=   654
 ExpMin= 1.61D-01 ExpMax= 5.48D+03 ExpMxC= 8.25D+02 IAcc=3 IRadAn=         5 AccDes= 0.00D+00
 Harris functional with IExCor=  402 and IRadAn=       5 diagonalized for initial guess.
 HarFok:  IExCor=  402 AccDes= 0.00D+00 IRadAn=         5 IDoV= 1 UseB2=F ITyADJ=14
 ICtDFT=  3500011 ScaDFX=  1.000000  1.000000  1.000000  1.000000
 FoFCou: FMM=F IPFlag=           0 FMFlag=      100000 FMFlg1=           0
         NFxFlg=           0 DoJE=T BraDBF=F KetDBF=T FulRan=T
         wScrn=  0.000000 ICntrl=       500 IOpCl=  0 I1Cent=   200000004 NGrid=           0
         NMat0=    1 NMatS0=      1 NMatT0=    0 NMatD0=    1 NMtDS0=    0 NMtDT0=    0
 Petite list used in FoFCou.
 Requested convergence on RMS density matrix=1.00D-08 within 128 cycles.
 Requested convergence on MAX density matrix=1.00D-06.
 Requested convergence on             energy=1.00D-06.
 No special actions if energy rises.
 Integral accuracy reduced to 1.0D-05 until final iterations.
 Initial convergence to 1.0D-05 achieved.  Increase integral accuracy.
 SCF Done:  E(RB3LYP) =  -852.493905233     A.U. after   12 cycles
            NFock= 12  Conv=0.35D-08     -V/T= 2.0075

 **********************************************************************

            Population analysis using the SCF density.

 **********************************************************************

 Orbital symmetries:
       Occupied  (A) (A) (A) (A) (A) (A) (A) (A) (A) (A) (A) (A)
                 (A) (A) (A) (A) (A) (A) (A) (A) (A) (A) (A) (A)
                 (A) (A) (A) (A) (A) (A) (A) (A) (A) (A) (A) (A)
                 (A) (A) (A) (A) (A) (A) (A) (A) (A) (A) (A) (A)
                 (A) (A) (A) (A) (A) (A) (A) (A) (A) (A) (A) (A)
                 (A) (A) (A) (A) (A) (A) (A) (A) (A) (A) (A) (A)
                 (A)
       Virtual   (A) (A) (A) (A) (A) (A) (A) (A) (A) (A) (A) (A)
                 (A) (A) (A) (A) (A) (A) (A) (A) (A) (A) (A) (A)
                 (A) (A) (A) (A) (A) (A) (A) (A) (A) (A) (A) (A)
                 (A) (A) (A) (A) (A) (A) (A) (A) (A) (A) (A) (A)
                 (A) (A) (A) (A) (A) (A) (A) (A) (A) (A) (A) (A)
                 (A) (A) (A) (A) (A) (A) (A) (A) (A) (A) (A) (A)
                 (A) (A) (A) (A) (A) (A) (A) (A) (A) (A) (A) (A)
                 (A) (A) (A) (A) (A) (A) (A) (A) (A) (A) (A) (A)
                 (A) (A) (A) (A) (A) (A) (A) (A) (A) (A) (A) (A)
                 (A) (A) (A) (A) (A) (A) (A) (A) (A) (A) (A) (A)
                 (A) (A) (A) (A) (A) (A) (A) (A) (A) (A) (A) (A)
                 (A) (A) (A) (A) (A) (A) (A) (A) (A) (A) (A) (A)
                 (A) (A) (A) (A) (A) (A) (A) (A) (A) (A) (A) (A)
                 (A) (A) (A) (A) (A) (A) (A) (A) (A) (A) (A) (A)
                 (A) (A) (A) (A) (A) (A) (A) (A) (A) (A) (A) (A)
                 (A) (A) (A) (A) (A) (A) (A) (A) (A) (A) (A) (A)
                 (A) (A) (A) (A) (A) (A) (A) (A) (A) (A) (A) (A)
                 (A) (A) (A) (A) (A) (A) (A) (A) (A) (A) (A) (A)
                 (A) (A) (A) (A) (A) (A) (A) (A) (A) (A) (A) (A)
                 (A) (A) (A) (A) (A) (A) (A) (A) (A) (A) (A) (A)
                 (A) (A) (A) (A) (A) (A) (A) (A) (A) (A) (A) (A)
                 (A) (A) (A) (A) (A) (A) (A) (A) (A) (A) (A) (A)
                 (A) (A) (A) (A) (A) (A) (A) (A) (A) (A) (A) (A)
                 (A) (A) (A) (A) (A) (A) (A) (A) (A) (A) (A) (A)
                 (A) (A) (A) (A) (A) (A) (A) (A) (A) (A) (A) (A)
                 (A) (A) (A) (A) (A) (A) (A) (A) (A) (A) (A) (A)
                 (A) (A) (A) (A) (A) (A) (A) (A) (A) (A) (A) (A)
                 (A) (A) (A) (A) (A) (A) (A) (A) (A) (A) (A) (A)
                 (A) (A) (A) (A) (A) (A) (A) (A) (A) (A) (A) (A)
                 (A) (A) (A) (A) (A) (A) (A) (A) (A) (A) (A) (A)
                 (A) (A) (A) (A) (A) (A) (A) (A) (A) (A) (A) (A)
                 (A) (A) (A) (A) (A) (A) (A) (A) (A) (A) (A) (A)
                 (A) (A) (A) (A) (A) (A) (A) (A) (A) (A) (A) (A)
                 (A) (A) (A) (A) (A) (A) (A) (A) (A) (A) (A) (A)
                 (A) (A) (A) (A) (A) (A) (A) (A) (A) (A) (A) (A)
                 (A) (A) (A) (A) (A) (A) (A) (A) (A) (A) (A) (A)
                 (A) (A) (A) (A) (A) (A) (A) (A) (A) (A) (A) (A)
                 (A) (A) (A) (A) (A) (A) (A) (A) (A) (A) (A) (A)
                 (A) (A) (A) (A) (A) (A) (A) (A) (A) (A) (A) (A)
                 (A) (A) (A) (A) (A) (A) (A) (A) (A) (A) (A) (A)
                 (A) (A) (A) (A) (A) (A) (A) (A) (A) (A) (A) (A)
                 (A) (A) (A) (A) (A) (A) (A) (A) (A) (A) (A) (A)
                 (A) (A) (A) (A) (A) (A) (A) (A) (A) (A) (A) (A)
                 (A) (A) (A) (A) (A) (A) (A) (A) (A) (A) (A) (A)
                 (A) (A) (A) (A) (A) (A) (A) (A) (A) (A) (A) (A)
                 (A) (A) (A) (A) (A) (A) (A) (A) (A) (A) (A) (A)
                 (A) (A) (A) (A) (A) (A) (A) (A) (A) (A) (A) (A)
                 (A) (A) (A) (A) (A) (A) (A) (A) (A) (A) (A) (A)
                 (A) (A) (A) (A) (A)
 The electronic state is 1-A.
 Alpha  occ. eigenvalues --  -19.14173 -19.13839 -19.13136 -19.12903 -10.27258
 Alpha  occ. eigenvalues --  -10.23578 -10.21971 -10.21923 -10.21837 -10.21773
 Alpha  occ. eigenvalues --  -10.17861 -10.17819 -10.17630 -10.17401 -10.17385
 Alpha  occ. eigenvalues --  -10.17020 -10.17019 -10.16759  -1.06159  -1.01993
 Alpha  occ. eigenvalues --   -1.01800  -0.99380  -0.81262  -0.80116  -0.77551
 Alpha  occ. eigenvalues --   -0.75979  -0.71042  -0.68784  -0.68622  -0.66959
 Alpha  occ. eigenvalues --   -0.64377  -0.61686  -0.59765  -0.58484  -0.58093
 Alpha  occ. eigenvalues --   -0.54815  -0.50791  -0.49935  -0.49034  -0.48160
 Alpha  occ. eigenvalues --   -0.47773  -0.47406  -0.46015  -0.45251  -0.44843
 Alpha  occ. eigenvalues --   -0.44324  -0.44238  -0.42590  -0.41693  -0.40844
 Alpha  occ. eigenvalues --   -0.39962  -0.38892  -0.38562  -0.38335  -0.37739
 Alpha  occ. eigenvalues --   -0.37393  -0.36408  -0.35956  -0.35320  -0.34617
 Alpha  occ. eigenvalues --   -0.33911  -0.33709  -0.33643  -0.33163  -0.32714
 Alpha  occ. eigenvalues --   -0.31999  -0.31111  -0.30419  -0.29363  -0.28388
 Alpha  occ. eigenvalues --   -0.26462  -0.24959  -0.24587
 Alpha virt. eigenvalues --    0.07596   0.08059   0.08983   0.09676   0.09837
 Alpha virt. eigenvalues --    0.10512   0.11404   0.12117   0.12521   0.13041
 Alpha virt. eigenvalues --    0.13433   0.13904   0.14209   0.15299   0.15393
 Alpha virt. eigenvalues --    0.15868   0.16329   0.16485   0.16726   0.17269
 Alpha virt. eigenvalues --    0.17815   0.18099   0.18782   0.19343   0.19908
 Alpha virt. eigenvalues --    0.20040   0.20187   0.20364   0.20848   0.21045
 Alpha virt. eigenvalues --    0.21115   0.21294   0.21430   0.21694   0.22167
 Alpha virt. eigenvalues --    0.23895   0.24139   0.24514   0.24832   0.25356
 Alpha virt. eigenvalues --    0.26662   0.27000   0.27447   0.29734   0.30878
 Alpha virt. eigenvalues --    0.33521   0.35151   0.39930   0.42228   0.43602
 Alpha virt. eigenvalues --    0.44347   0.45953   0.45971   0.48237   0.48690
 Alpha virt. eigenvalues --    0.49353   0.50266   0.50459   0.50560   0.50857
 Alpha virt. eigenvalues --    0.52087   0.52297   0.52713   0.53036   0.53663
 Alpha virt. eigenvalues --    0.54055   0.54206   0.55537   0.56141   0.57510
 Alpha virt. eigenvalues --    0.58792   0.59406   0.60208   0.60381   0.60956
 Alpha virt. eigenvalues --    0.62370   0.63223   0.63711   0.64681   0.65357
 Alpha virt. eigenvalues --    0.65629   0.66274   0.67706   0.68748   0.69922
 Alpha virt. eigenvalues --    0.70449   0.71012   0.71110   0.71576   0.72096
 Alpha virt. eigenvalues --    0.72159   0.72730   0.73126   0.73387   0.73627
 Alpha virt. eigenvalues --    0.73822   0.74013   0.74509   0.74865   0.75506
 Alpha virt. eigenvalues --    0.75859   0.76184   0.76598   0.77216   0.77497
 Alpha virt. eigenvalues --    0.78063   0.78718   0.79193   0.79760   0.79897
 Alpha virt. eigenvalues --    0.81014   0.81220   0.81722   0.82806   0.83667
 Alpha virt. eigenvalues --    0.84099   0.84683   0.86001   0.86598   0.87125
 Alpha virt. eigenvalues --    0.87826   0.88450   0.89261   0.89333   0.89765
 Alpha virt. eigenvalues --    0.90238   0.90810   0.91889   0.92220   0.93862
 Alpha virt. eigenvalues --    0.96056   0.97195   0.98019   0.98541   0.98803
 Alpha virt. eigenvalues --    1.01228   1.01995   1.03379   1.03709   1.05919
 Alpha virt. eigenvalues --    1.06319   1.10063   1.10352   1.11107   1.12741
 Alpha virt. eigenvalues --    1.15090   1.15464   1.16157   1.18382   1.19094
 Alpha virt. eigenvalues --    1.19691   1.19881   1.20656   1.21310   1.22131
 Alpha virt. eigenvalues --    1.25160   1.25434   1.25866   1.26098   1.27436
 Alpha virt. eigenvalues --    1.28507   1.30010   1.32217   1.33735   1.34193
 Alpha virt. eigenvalues --    1.35435   1.36344   1.37005   1.37376   1.37784
 Alpha virt. eigenvalues --    1.38107   1.38994   1.40303   1.40510   1.41246
 Alpha virt. eigenvalues --    1.41796   1.42095   1.43351   1.44405   1.45196
 Alpha virt. eigenvalues --    1.45471   1.47090   1.48710   1.49462   1.50337
 Alpha virt. eigenvalues --    1.51074   1.52119   1.52923   1.55441   1.56031
 Alpha virt. eigenvalues --    1.56934   1.58490   1.59174   1.59844   1.61455
 Alpha virt. eigenvalues --    1.61891   1.62405   1.62767   1.65023   1.65918
 Alpha virt. eigenvalues --    1.67414   1.68557   1.69395   1.70040   1.71873
 Alpha virt. eigenvalues --    1.73324   1.73568   1.73977   1.75062   1.76309
 Alpha virt. eigenvalues --    1.77478   1.78555   1.79169   1.80382   1.81653
 Alpha virt. eigenvalues --    1.83950   1.84267   1.85306   1.85945   1.86107
 Alpha virt. eigenvalues --    1.87038   1.87636   1.89600   1.90071   1.90510
 Alpha virt. eigenvalues --    1.92235   1.92744   1.93471   1.93968   1.94719
 Alpha virt. eigenvalues --    1.95387   1.96590   1.97190   1.97563   1.98316
 Alpha virt. eigenvalues --    2.01291   2.03208   2.04226   2.08651   2.13354
 Alpha virt. eigenvalues --    2.15560   2.16382   2.16738   2.16958   2.18759
 Alpha virt. eigenvalues --    2.19480   2.19883   2.22275   2.24231   2.28456
 Alpha virt. eigenvalues --    2.28576   2.29033   2.29980   2.31070   2.31218
 Alpha virt. eigenvalues --    2.31648   2.33490   2.34139   2.35343   2.36267
 Alpha virt. eigenvalues --    2.37496   2.38510   2.41103   2.42098   2.44065
 Alpha virt. eigenvalues --    2.44793   2.46720   2.47761   2.49738   2.51124
 Alpha virt. eigenvalues --    2.51252   2.52119   2.57328   2.58436   2.63052
 Alpha virt. eigenvalues --    2.65625   2.66631   2.67341   2.68033   2.68871
 Alpha virt. eigenvalues --    2.70893   2.71268   2.71829   2.73571   2.74264
 Alpha virt. eigenvalues --    2.74483   2.75494   2.76022   2.76333   2.76851
 Alpha virt. eigenvalues --    2.77552   2.78482   2.79273   2.79988   2.80495
 Alpha virt. eigenvalues --    2.81702   2.81990   2.82965   2.83142   2.84014
 Alpha virt. eigenvalues --    2.84198   2.84497   2.85619   2.86249   2.86750
 Alpha virt. eigenvalues --    2.87666   2.88599   2.89145   2.90795   2.91417
 Alpha virt. eigenvalues --    2.92283   2.92573   2.93236   2.93600   2.93947
 Alpha virt. eigenvalues --    2.94356   2.94881   2.95048   2.95432   2.95933
 Alpha virt. eigenvalues --    2.97189   2.97284   2.98196   2.99007   3.00875
 Alpha virt. eigenvalues --    3.01029   3.01447   3.03395   3.04193   3.04663
 Alpha virt. eigenvalues --    3.06842   3.07082   3.09479   3.10724   3.12266
 Alpha virt. eigenvalues --    3.13299   3.13851   3.15317   3.17930   3.19201
 Alpha virt. eigenvalues --    3.19764   3.22486   3.23504   3.26200   3.29201
 Alpha virt. eigenvalues --    3.29499   3.30594   3.31868   3.32714   3.33810
 Alpha virt. eigenvalues --    3.34500   3.35419   3.36078   3.37767   3.39348
 Alpha virt. eigenvalues --    3.40958   3.41560   3.41642   3.43969   3.45433
 Alpha virt. eigenvalues --    3.46268   3.46931   3.47027   3.47769   3.48720
 Alpha virt. eigenvalues --    3.49021   3.51386   3.51636   3.52534   3.54132
 Alpha virt. eigenvalues --    3.54555   3.55406   3.57162   3.57915   3.59222
 Alpha virt. eigenvalues --    3.59908   3.61244   3.62986   3.63736   3.64829
 Alpha virt. eigenvalues --    3.65268   3.66850   3.67718   3.68447   3.69531
 Alpha virt. eigenvalues --    3.70539   3.71506   3.72916   3.74189   3.75535
 Alpha virt. eigenvalues --    3.75833   3.76122   3.77916   3.78690   3.79721
 Alpha virt. eigenvalues --    3.80287   3.81220   3.82432   3.83267   3.84895
 Alpha virt. eigenvalues --    3.86460   3.87845   3.94654   3.97071   3.99350
 Alpha virt. eigenvalues --    3.99903   4.00848   4.01652   4.05205   4.09665
 Alpha virt. eigenvalues --    4.10842   4.12158   4.17950   4.20070   4.21208
 Alpha virt. eigenvalues --    4.21722   4.22429   4.27125   4.28330   4.29626
 Alpha virt. eigenvalues --    4.31532   4.32688   4.35606   4.36837   4.37248
 Alpha virt. eigenvalues --    4.37613   4.38231   4.38374   4.38971   4.39550
 Alpha virt. eigenvalues --    4.40659   4.41860   4.44011   4.44397   4.45367
 Alpha virt. eigenvalues --    4.45626   4.46673   4.47123   4.47818   4.48762
 Alpha virt. eigenvalues --    4.50082   4.50685   4.50872   4.51381   4.52961
 Alpha virt. eigenvalues --    4.53293   4.54599   4.55299   4.55851   4.56400
 Alpha virt. eigenvalues --    4.57364   4.57788   4.59046   4.59951   4.61012
 Alpha virt. eigenvalues --    4.61628   4.61981   4.62549   4.62827   4.64109
 Alpha virt. eigenvalues --    4.64347   4.65182   4.65766   4.66145   4.67233
 Alpha virt. eigenvalues --    4.67979   4.69118   4.69639   4.69782   4.70329
 Alpha virt. eigenvalues --    4.70789   4.71231   4.71538   4.72235   4.72916
 Alpha virt. eigenvalues --    4.73944   4.74431   4.75334   4.76273   4.76369
 Alpha virt. eigenvalues --    4.76755   4.77673   4.79024   4.79722   4.81242
 Alpha virt. eigenvalues --    4.82303   4.83148   4.83281   4.84494   4.85651
 Alpha virt. eigenvalues --    4.86056   4.86925   4.87797   4.88035   4.89746
 Alpha virt. eigenvalues --    4.91317   4.91974   4.92674   4.93602   4.94864
 Alpha virt. eigenvalues --    4.95018   4.95238   4.96472   4.98044   4.98217
 Alpha virt. eigenvalues --    4.99628   5.01032   5.01728   5.05098   5.07630
 Alpha virt. eigenvalues --    5.08624   5.15956   5.21341   5.25410   5.26971
 Alpha virt. eigenvalues --    5.27012   5.33233   5.35677   5.36429   5.39145
 Alpha virt. eigenvalues --    5.41592   5.42898   5.44008   5.45292   5.46266
 Alpha virt. eigenvalues --    5.47516   5.47848   5.49581   5.49823   5.54776
 Alpha virt. eigenvalues --    5.55021   5.56929   5.57225   5.59351   5.62638
 Alpha virt. eigenvalues --    5.64294   5.66179   5.69712   5.71487   5.85065
 Alpha virt. eigenvalues --    5.85696   5.87127   5.90610   5.94946   5.98018
 Alpha virt. eigenvalues --    5.99644   6.01673   6.03263   6.05092   6.07909
 Alpha virt. eigenvalues --    6.09960   6.14035   6.16117   6.20005   6.24265
 Alpha virt. eigenvalues --    6.24908   6.28038   6.33922   6.41207   7.02867
 Alpha virt. eigenvalues --    7.08136   7.12094   7.19482  11.13135  11.22190
 Alpha virt. eigenvalues --   11.26676  11.34682  11.49875  11.80185  11.87760
 Alpha virt. eigenvalues --   11.94862  11.98466  12.07405  12.19524  12.28022
 Alpha virt. eigenvalues --   12.51314  12.55608  13.28576  13.36615  13.57280
 Alpha virt. eigenvalues --   13.69013
          Condensed to atoms (all electrons):
               1          2          3          4          5          6
     1  C    4.822978   0.366731  -0.081808   0.004873  -0.000310   0.000001
     2  O    0.366731   7.691543   0.360136  -0.028361   0.001765  -0.000019
     3  C   -0.081808   0.360136   4.746329   0.434962  -0.040388   0.001342
     4  C    0.004873  -0.028361   0.434962   4.858517   0.384568  -0.036936
     5  C   -0.000310   0.001765  -0.040388   0.384568   4.843436   0.424850
     6  C    0.000001  -0.000019   0.001342  -0.036936   0.424850   4.838363
     7  C   -0.000000   0.000000  -0.000148   0.001060  -0.037000   0.383146
     8  C    0.000000  -0.000000   0.000000  -0.000134   0.000810  -0.036778
     9  O    0.000000   0.000000   0.000000   0.000006   0.000514  -0.006674
    10  O   -0.000000   0.000000  -0.000000   0.000000  -0.000005   0.002013
    11  C    0.000000  -0.000000  -0.000000  -0.000000  -0.000001  -0.000316
    12  C   -0.000000   0.000000  -0.000000   0.000000  -0.000000   0.000001
    13  C    0.000000   0.000000   0.000000   0.000000   0.000000   0.000000
    14  O    0.000000   0.000000   0.000000   0.000000  -0.000000   0.000000
    15  C    0.000000   0.000000   0.000000   0.000000   0.000000   0.000000
    16  C    0.000000   0.000000   0.000000  -0.000000   0.000000  -0.000000
    17  C    0.000000   0.000000   0.000000  -0.000000  -0.000000  -0.000000
    18  C    0.000000   0.000000   0.000000   0.000000  -0.000000   0.000000
    19  H    0.383808  -0.018997   0.005213  -0.000324   0.000000  -0.000000
    20  H    0.369194  -0.033416  -0.006745   0.000189   0.000037   0.000000
    21  H    0.369253  -0.033423  -0.006723   0.000188   0.000037   0.000000
    22  H   -0.005320  -0.032210   0.347297  -0.032997   0.000508   0.000041
    23  H   -0.005303  -0.032205   0.346981  -0.032920   0.000418   0.000047
    24  H    0.000146   0.002586  -0.028272   0.360558  -0.028509  -0.002263
    25  H    0.000150   0.002602  -0.028179   0.361075  -0.028322  -0.003024
    26  H    0.000007   0.000020  -0.003335  -0.033650   0.361965  -0.029784
    27  H    0.000007   0.000020  -0.003169  -0.034050   0.364003  -0.032226
    28  H    0.000000   0.000001   0.000185  -0.002416  -0.031795   0.360146
    29  H    0.000000   0.000000   0.000188  -0.002533  -0.031894   0.364378
    30  H    0.000000   0.000000   0.000010   0.000122  -0.003520  -0.029128
    31  H    0.000000   0.000000   0.000009   0.000139  -0.003639  -0.031296
    32  H   -0.000000   0.000000   0.000000   0.000013  -0.000062  -0.000446
    33  H   -0.000000   0.000000  -0.000000   0.000001  -0.000105  -0.000269
    34  H    0.000000  -0.000000   0.000000   0.000000  -0.000000   0.000041
    35  H    0.000000  -0.000000   0.000000   0.000000   0.000000   0.000037
    36  H    0.000000   0.000000   0.000000   0.000000   0.000000   0.000000
    37  H    0.000000  -0.000000   0.000000   0.000000   0.000000   0.000000
    38  H    0.000000   0.000000   0.000000   0.000000   0.000000   0.000000
    39  H    0.000000   0.000000   0.000000   0.000000   0.000000   0.000000
    40  H    0.000000   0.000000   0.000000   0.000000  -0.000000   0.000000
    41  H    0.000000   0.000000   0.000000  -0.000000   0.000000   0.000000
    42  H    0.000000   0.000000   0.000000   0.000000  -0.000000  -0.000000
    43  H    0.000000   0.000000   0.000000   0.000000  -0.000000   0.000000
    44  H    0.000000   0.000000   0.000000   0.000000  -0.000000  -0.000000
    45  H    0.000000   0.000000   0.000000  -0.000000   0.000000   0.000000
    46  H    0.000000   0.000000   0.000000   0.000000   0.000000   0.000000
    47  H    0.000000   0.000000   0.000000   0.000000   0.000000   0.000000
    48  H    0.000000   0.000000   0.000000   0.000000   0.000000  -0.000000
               7          8          9         10         11         12
     1  C   -0.000000   0.000000   0.000000  -0.000000   0.000000  -0.000000
     2  O    0.000000  -0.000000   0.000000   0.000000  -0.000000   0.000000
     3  C   -0.000148   0.000000   0.000000  -0.000000  -0.000000  -0.000000
     4  C    0.001060  -0.000134   0.000006   0.000000  -0.000000   0.000000
     5  C   -0.037000   0.000810   0.000514  -0.000005  -0.000001  -0.000000
     6  C    0.383146  -0.036778  -0.006674   0.002013  -0.000316   0.000001
     7  C    4.994095   0.394563  -0.023274  -0.027612   0.005160  -0.000202
     8  C    0.394563   4.609382   0.302924   0.370080  -0.074945   0.001319
     9  O   -0.023274   0.302924   7.912180  -0.067435  -0.004962   0.000373
    10  O   -0.027612   0.370080  -0.067435   7.742941   0.354437  -0.028140
    11  C    0.005160  -0.074945  -0.004962   0.354437   4.770430   0.384280
    12  C   -0.000202   0.001319   0.000373  -0.028140   0.384280   4.966486
    13  C    0.000001  -0.000203   0.000029   0.001253  -0.048527   0.392285
    14  O   -0.000000   0.000000  -0.000000  -0.000002   0.001202  -0.023967
    15  C    0.000000  -0.000000  -0.000000   0.000000  -0.000162   0.002324
    16  C   -0.000000   0.000000   0.000000   0.000000   0.000031   0.000543
    17  C    0.000000   0.000000   0.000000   0.000000   0.000026   0.000559
    18  C   -0.000000  -0.000000  -0.000000  -0.000000   0.000000  -0.000303
    19  H    0.000000  -0.000000   0.000000   0.000000  -0.000000   0.000000
    20  H    0.000000   0.000000  -0.000000  -0.000000   0.000000   0.000000
    21  H    0.000000   0.000000   0.000000  -0.000000   0.000000   0.000000
    22  H    0.000016   0.000000  -0.000000   0.000000   0.000000   0.000000
    23  H    0.000017   0.000000  -0.000000   0.000000   0.000000  -0.000000
    24  H    0.000171   0.000013  -0.000006  -0.000000   0.000000   0.000000
    25  H    0.000166   0.000009   0.000000   0.000000   0.000000  -0.000000
    26  H   -0.002149   0.000154  -0.000007  -0.000001   0.000000   0.000000
    27  H   -0.003048   0.000298   0.000008   0.000001   0.000000   0.000000
    28  H   -0.031325  -0.003513   0.012988   0.000168   0.000001  -0.000000
    29  H   -0.037753  -0.001424  -0.000041   0.000013   0.000005   0.000000
    30  H    0.342826  -0.013717   0.003299   0.001519  -0.000029  -0.000016
    31  H    0.341699  -0.016846  -0.005262   0.000674   0.000012   0.000013
    32  H   -0.058950   0.353437  -0.035520  -0.035839  -0.005533   0.000083
    33  H   -0.005691  -0.057501   0.300343   0.004393   0.001592  -0.000137
    34  H    0.000844  -0.006376   0.021514  -0.032673   0.358496  -0.042216
    35  H    0.000080  -0.001284  -0.002018  -0.033170   0.346850  -0.036984
    36  H    0.000003   0.000161  -0.000003   0.001976  -0.020965   0.352762
    37  H    0.000011   0.000426  -0.000016   0.002081  -0.023452   0.354867
    38  H   -0.000000   0.000034  -0.000023  -0.000007   0.001509  -0.040208
    39  H    0.000000   0.000024   0.000000  -0.000004   0.000561  -0.040626
    40  H   -0.000000  -0.000000  -0.000000  -0.000000  -0.000004  -0.000055
    41  H    0.000000   0.000000  -0.000000   0.000000   0.000006  -0.000086
    42  H    0.000000  -0.000000   0.000000   0.000000  -0.000001  -0.000008
    43  H   -0.000000  -0.000000   0.000000  -0.000000  -0.000011  -0.000052
    44  H    0.000000  -0.000000   0.000000   0.000000  -0.000001  -0.000008
    45  H    0.000000   0.000000  -0.000000   0.000000   0.000007  -0.000087
    46  H    0.000000   0.000000  -0.000000   0.000000   0.000000   0.000006
    47  H    0.000000   0.000000  -0.000000   0.000000   0.000000   0.000005
    48  H    0.000000   0.000000   0.000000   0.000000   0.000000   0.000002
              13         14         15         16         17         18
     1  C    0.000000   0.000000   0.000000   0.000000   0.000000   0.000000
     2  O    0.000000   0.000000   0.000000   0.000000   0.000000   0.000000
     3  C    0.000000   0.000000   0.000000   0.000000   0.000000   0.000000
     4  C    0.000000   0.000000   0.000000  -0.000000  -0.000000   0.000000
     5  C    0.000000  -0.000000   0.000000   0.000000  -0.000000  -0.000000
     6  C    0.000000   0.000000   0.000000  -0.000000  -0.000000   0.000000
     7  C    0.000001  -0.000000   0.000000  -0.000000   0.000000  -0.000000
     8  C   -0.000203   0.000000  -0.000000   0.000000   0.000000  -0.000000
     9  O    0.000029  -0.000000  -0.000000   0.000000   0.000000  -0.000000
    10  O    0.001253  -0.000002   0.000000   0.000000   0.000000  -0.000000
    11  C   -0.048527   0.001202  -0.000162   0.000031   0.000026   0.000000
    12  C    0.392285  -0.023967   0.002324   0.000543   0.000559  -0.000303
    13  C    4.746721   0.367979  -0.070100  -0.006036  -0.005812   0.003158
    14  O    0.367979   7.755915   0.381455  -0.045287  -0.045100  -0.031444
    15  C   -0.070100   0.381455   4.302288   0.376610   0.376552   0.405597
    16  C   -0.006036  -0.045287   0.376610   5.133794  -0.076443  -0.057986
    17  C   -0.005812  -0.045100   0.376552  -0.076443   5.133871  -0.058289
    18  C    0.003158  -0.031444   0.405597  -0.057986  -0.058289   5.067385
    19  H    0.000000   0.000000   0.000000   0.000000   0.000000   0.000000
    20  H    0.000000   0.000000   0.000000   0.000000   0.000000   0.000000
    21  H    0.000000   0.000000   0.000000   0.000000   0.000000   0.000000
    22  H    0.000000   0.000000   0.000000   0.000000   0.000000   0.000000
    23  H    0.000000   0.000000   0.000000   0.000000   0.000000   0.000000
    24  H    0.000000   0.000000   0.000000   0.000000   0.000000   0.000000
    25  H   -0.000000   0.000000   0.000000   0.000000  -0.000000   0.000000
    26  H    0.000000   0.000000   0.000000   0.000000   0.000000  -0.000000
    27  H   -0.000000   0.000000   0.000000   0.000000  -0.000000  -0.000000
    28  H   -0.000000   0.000000  -0.000000  -0.000000  -0.000000   0.000000
    29  H    0.000000   0.000000   0.000000  -0.000000  -0.000000   0.000000
    30  H    0.000000   0.000000   0.000000   0.000000  -0.000000   0.000000
    31  H    0.000000   0.000000   0.000000   0.000000   0.000000   0.000000
    32  H    0.000066   0.000000   0.000000  -0.000000   0.000000   0.000000
    33  H    0.000006   0.000000   0.000000  -0.000000   0.000000   0.000000
    34  H    0.000826  -0.000028   0.000024   0.000001  -0.000020   0.000000
    35  H   -0.000434  -0.000041   0.000017  -0.000018   0.000001   0.000000
    36  H   -0.022297   0.001870   0.000147  -0.000048   0.000020  -0.000000
    37  H   -0.022028   0.001765   0.000133   0.000021  -0.000048  -0.000001
    38  H    0.352148  -0.034425  -0.005890  -0.002547   0.007062   0.000214
    39  H    0.353176  -0.034652  -0.005923   0.007073  -0.002551   0.000210
    40  H   -0.002452  -0.002411  -0.017314   0.363668  -0.005409   0.005515
    41  H    0.000443   0.000729  -0.013736   0.359872   0.005871  -0.005710
    42  H    0.000072   0.002457  -0.015203   0.359815  -0.000237  -0.002975
    43  H   -0.002367  -0.002425  -0.017300  -0.005385   0.363791   0.005505
    44  H    0.000073   0.002446  -0.015207  -0.000277   0.359898  -0.002975
    45  H    0.000423   0.000706  -0.013729   0.005868   0.359872  -0.005711
    46  H    0.000102   0.000947  -0.013741  -0.006064   0.005947   0.358926
    47  H    0.000101   0.000930  -0.013779   0.005946  -0.006079   0.358965
    48  H   -0.000187   0.002156  -0.018899  -0.001774  -0.001719   0.366096
[...]
 4,-0.00000581,-0.00000219,-0.00000425,0.00000076,0.00000364,0.00003251
 ,-0.00005331,-0.00000468,-0.00002719,0.00002597,-0.00000209,-0.0000430
 5,0.00004782,-0.00000244,0.00005359,-0.00003883,0.00001999,-0.00000884
 ,-0.00003475,-0.00004561,0.00027610,-0.00039406,0.00029809,0.00000697,
 0.00101959,-0.00121515,-0.00451450,-0.00779867,0.00429847,0.00197996,0
 .00038661,0.00154619,-0.09160523,-0.19009434,0.09405276,0.00011255,0.0
 0038811,-0.00082992,-0.00000079,0.00000054,0.00000053,-0.00000051,-0.0
 0000004,-0.00000031,-0.00000075,-0.00000008,-0.00000114,-0.00000084,0.
 00000059,-0.00000059,0.00000015,0.00000104,-0.00000008,0.00000002,-0.0
 0000025,-0.00000063,0.00000018,0.00000111,-0.00000010,-0.00000109,0.00
 000012,-0.00000129,0.00000068,0.00000095,-0.00000016,0.00000128,-0.000
 00093,-0.00000117,-0.00000010,0.00000291,0.00000010,-0.00000148,0.0000
 0044,-0.00000179,0.00000211,0.00000274,-0.00000062,0.00000105,0.000009
 52,-0.00000098,0.00002026,-0.00001008,-0.00000235,-0.00000348,-0.00001
 464,-0.00002306,-0.00001284,0.00003389,-0.00000843,-0.00003560,0.00001
 954,-0.00000638,0.00009414,0.00003057,0.00000086,-0.00010531,-0.000325
 19,-0.00013819,-0.00010768,0.00021259,-0.00016852,0.00004107,0.0004663
 2,-0.00016435,-0.00039665,-0.00018638,0.00064219,-0.00018208,0.0000498
 2,-0.00004377,-0.01180231,-0.01764412,0.01291576,0.00518705,0.00858338
 ,-0.00615622,0.10084387,0.20464917,0.00000069,0.00000058,-0.00000034,-
 0.00000057,-0.00000090,0.00000013,0.00000032,0.00000115,-0.00000047,0.
 00000012,0.00000037,-0.00000005,0.00000029,0.00000059,-0.00000074,0.00
 000020,0.00000073,0.00000047,0.00000060,0.00000127,-0.00000178,-0.0000
 0105,0.00000863,0.00000385,-0.00000099,-0.00000175,-0.00000320,-0.0000
 0098,-0.00000782,0.00000068,-0.00001159,0.00000504,-0.00000208,0.00000
 129,0.00004522,0.00001863,-0.00022571,0.00039474,0.00028892,0.00105357
 ,-0.00217564,0.00243145,0.01517585,0.02054778,-0.01474378,-0.00429864,
 0.00019767,-0.00417943,0.05947775,0.09313281,-0.10929310,0.00108166,0.
 00122393,0.00106659,0.,0.,-0.00000005,-0.00000015,-0.00000039,0.000000
 18,0.,0.00000004,0.00000009,0.00000007,0.00000001,0.00000014,-0.000000
 37,-0.00000053,0.00000033,0.00000006,0.00000007,0.00000010,-0.00000010
 ,-0.00000060,-0.00000001,0.00000015,0.00000021,0.00000012,-0.00000050,
 -0.00000075,0.00000043,0.00000003,0.00000002,0.00000001,-0.00000013,-0
 .00000123,-0.00000023,0.00000029,0.00000063,0.00000003,-0.00000074,-0.
 00000124,0.00000128,-0.00000105,-0.00000242,-0.00000066,0.00000131,0.0
 0000085,0.00000182,0.00000096,-0.00000523,0.00000118,0.00000167,-0.000
 01092,-0.00000545,0.00000730,0.00000267,-0.00000079,-0.00002980,-0.000
 00551,0.00001860,-0.00012457,0.00018485,-0.00012851,0.00001162,-0.0001
 2771,-0.00008735,-0.00004876,0.00014987,0.00019968,0.00062167,0.001729
 01,-0.00076038,-0.00008809,-0.00036161,0.00022784,-0.01005308,-0.01464
 134,0.01047193,0.00317510,0.00574481,-0.00448176,-0.06491634,-0.104853
 92,0.11891556,-0.00000532,0.00000033,-0.00000113,0.00000830,-0.0000038
 9,-0.00000162,-0.00000536,0.00000261,0.00000041,0.00000233,0.00000215,
 0.00000159,-0.00000186,-0.00000191,-0.00000261,0.00000200,0.00000446,0
 .00000290,0.00000307,-0.00000389,-0.00000523,-0.00002438,0.00003993,0.
 00003350,0.00001498,-0.00001071,-0.00001861,0.00005580,-0.00004593,-0.
 00003510,-0.00002309,0.00004217,0.00001405,-0.00000631,-0.00006729,-0.
 00000152,0.00009227,0.00001438,0.00005352,0.00074374,0.00009668,0.0007
 8060,-0.00312055,0.00111849,-0.00151713,-0.00017752,0.00042482,-0.0001
 0556,0.00010285,-0.00108039,-0.00011371,-0.12404220,0.03447123,-0.1161
 9326,0.00000071,-0.00000047,-0.00000044,0.00000053,0.00000028,0.000000
 18,0.00000063,0.00000009,0.00000088,0.00000058,-0.00000038,0.00000025,
 0.00000022,-0.00000053,-0.00000009,-0.00000002,0.,0.00000014,-0.000000
 14,-0.00000054,-0.00000006,0.00000051,0.00000012,0.00000063,0.,-0.0000
 0023,0.00000018,-0.00000073,0.00000011,-0.00000018,0.00000005,-0.00000
 136,-0.00000024,-0.00000046,0.00000056,0.00000007,-0.00000050,-0.00000
 072,0.00000080,-0.00000061,-0.00000529,-0.00000181,-0.00000770,0.00000
 215,0.00000599,0.00000177,-0.00000436,-0.00000058,0.00000334,-0.000009
 42,-0.00000100,0.00000401,0.00001333,-0.00000505,-0.00000960,0.0000006
 4,0.00000890,-0.00000068,-0.00000652,0.00004709,0.00000891,-0.00007796
 ,-0.00001728,0.00010404,-0.00003503,0.00029884,0.00025438,-0.00054545,
 0.00013420,-0.00007445,-0.00001140,-0.00014193,0.00030119,0.00021357,-
 0.00038996,0.00043969,-0.00007478,0.00025535,0.00002097,0.00015874,-0.
 00018363,0.13156204,0.00000289,0.00000035,0.00000047,-0.00000443,0.000
 00094,0.00000057,0.00000302,-0.00000012,0.00000001,-0.00000145,-0.0000
 0083,-0.00000102,0.00000140,0.00000187,0.00000162,-0.00000174,-0.00000
 212,-0.00000224,-0.00000135,0.00000406,0.00000374,0.00001504,-0.000019
 98,-0.00002801,-0.00000805,0.00000402,0.00001559,-0.00004359,0.0000265
 5,0.00002959,0.00000287,-0.00001885,-0.00002262,0.00003532,0.00002436,
 0.00005457,-0.00011743,-0.00001367,0.00000442,-0.00105863,0.00130074,0
 .00170850,-0.01504885,0.00560661,-0.02212619,-0.00018540,0.00173421,-0
 .00064712,0.00032260,-0.00416913,-0.00267661,0.03626701,-0.06330343,0.
 05449908,-0.00000033,0.00000017,0.00000011,-0.00000034,-0.00000040,0.0
 0000007,-0.00000029,0.00000004,-0.00000041,-0.00000029,0.00000030,-0.0
 0000019,-0.00000044,-0.00000020,0.00000034,0.00000001,-0.00000004,-0.0
 0000011,0.00000001,-0.00000026,0.,-0.00000016,0.00000032,-0.00000046,-
 0.00000046,-0.00000058,0.00000039,0.00000031,-0.00000019,0.00000019,-0
 .00000013,-0.00000043,-0.00000007,0.00000098,0.00000080,0.00000002,-0.
 00000043,-0.00000085,0.00000100,-0.00000061,0.00000125,0.00000104,0.00
 000368,-0.00000096,-0.00000375,-0.00000309,-0.00000076,0.00000148,-0.0
 0000232,-0.00000427,-0.00000094,0.00002480,0.00000945,-0.00000654,-0.0
 0000259,-0.00000688,0.00001090,-0.00005605,0.00006208,0.00012532,-0.00
 001875,0.00002248,0.00000365,0.00025853,0.00022609,0.00014969,0.000056
 40,-0.00047827,0.00026417,-0.00007118,-0.00007176,0.00008343,-0.000688
 73,0.00053892,-0.00161437,-0.00006767,-0.00016842,0.00017339,0.0001519
 8,0.00003992,-0.00026769,-0.03783705,0.06744720,0.00000303,-0.00000004
 ,-0.00000089,-0.00000489,0.00000339,0.00000375,0.00000305,-0.00000223,
 -0.00000358,-0.00000092,-0.00000127,-0.00000172,0.00000011,0.00000106,
 -0.00000071,0.00000030,-0.00000204,-0.00000205,-0.00000087,0.00000212,
 -0.00000020,0.00000527,-0.00001800,-0.00004720,0.00000592,-0.00000123,
 0.00003399,-0.00000705,0.00001967,0.00003371,0.00001973,-0.00001183,-0
 .00001199,-0.00001635,-0.00002105,-0.00003206,0.00027210,-0.00011586,0
 .00005853,-0.00009463,0.00098689,0.00211947,-0.01204705,0.00605519,-0.
 01835966,0.00050930,0.00130367,0.00052341,0.00075510,-0.00460229,-0.00
 167566,-0.11494318,0.05212221,-0.21749826,-0.00000060,0.00000066,0.000
 00042,-0.00000045,-0.00000044,-0.00000018,-0.00000028,-0.00000031,0.00
 000022,0.00000038,-0.00000024,0.00000129,-0.00000010,0.00000030,0.0000
 0004,-0.00000006,0.00000010,0.00000137,-0.00000007,0.00000038,-0.00000
 022,0.00000087,-0.00000074,0.00000168,0.00000009,0.00000022,-0.0000005
 8,-0.00000058,0.00000047,0.00000276,-0.00000040,0.00000103,-0.00000029
 ,0.00000264,-0.00000257,0.00000308,0.00000046,0.00000036,-0.00000154,0
 .00000029,0.00000224,0.00000178,-0.00000367,0.00000126,-0.00000873,-0.
 00000464,0.00000996,0.00002064,-0.00000248,0.00000396,0.00000099,0.000
 05992,-0.00003792,0.00002327,-0.00000421,-0.00000022,-0.00001629,-0.00
 004581,0.00017333,0.00030653,-0.00001249,0.00004405,0.00000683,0.00032
 083,-0.00002537,0.00015476,-0.00004973,-0.00060249,0.00073635,0.000059
 37,-0.00009219,0.00004324,-0.00097406,0.00018164,-0.00111682,-0.000012
 35,0.00008069,0.00027699,0.00013121,-0.00002564,0.00039370,0.12842141,
 -0.05595228,0.23651369,-0.00000553,-0.00000032,-0.00000020,0.00000843,
 -0.00000340,-0.00000276,-0.00000526,0.00000181,0.00000193,0.00000211,0
 .00000169,0.00000220,-0.00000167,-0.00000226,-0.00000162,0.00000171,0.
 00000327,0.00000369,0.00000236,-0.00000426,-0.00000492,-0.00002194,0.0
 0003349,0.00004860,0.00000915,-0.00000554,-0.00003020,0.00005394,-0.00
 004254,-0.00004285,-0.00002387,0.00002325,0.00003631,-0.00000826,-0.00
 001249,-0.00006105,0.00005692,0.00005999,0.00000311,0.00060152,0.00075
 309,-0.00012243,-0.00285918,-0.00138714,0.00153614,-0.00000170,-0.0003
 6134,-0.00088828,-0.00019092,-0.00011096,0.00048937,-0.09893136,-0.090
 86104,0.05478385,0.00000069,-0.00000061,-0.00000035,0.00000072,0.00000
 072,0.00000011,0.00000055,0.00000019,0.00000032,0.00000019,-0.00000017
 ,-0.00000053,0.00000048,-0.00000008,-0.00000023,-0.00000008,-0.0000000
 8,-0.00000060,0.,-0.00000005,0.00000002,-0.00000003,0.00000018,-0.0000
 0035,0.00000031,0.00000032,0.00000021,-0.00000045,0.00000002,-0.000001
 32,0.00000032,-0.00000062,-0.00000016,-0.00000143,0.00000090,-0.000001
 11,-0.00000015,0.00000003,0.00000078,-0.00000019,-0.00000347,-0.000002
 65,-0.00000386,0.00000073,0.00000918,0.00000184,-0.00000294,-0.0000052
 0,0.00000324,-0.00000655,-0.00000421,-0.00001036,0.00001064,-0.0000019
 4,0.00000297,-0.00000296,0.00001840,0.00000274,-0.00003756,-0.00007334
 ,-0.00000532,0.00002217,-0.00002275,0.00039232,-0.00030951,0.00028439,
 0.00005468,-0.00019387,0.00020973,0.00040044,0.00024256,-0.00018695,0.
 00006462,0.00028761,-0.00009106,-0.00006607,-0.00014077,0.00002844,0.0
 0020356,-0.00002584,-0.00055186,0.00826344,0.01435159,-0.00828475,0.10
 386666,0.00000305,-0.00000116,0.00000084,-0.00000504,0.00000441,0.0000
 0161,0.00000320,-0.00000372,-0.00000056,-0.00000141,-0.00000203,-0.000
 00107,0.00000046,0.,0.00000195,-0.00000052,-0.00000388,-0.00000166,-0.
 00000301,-0.00000107,0.00000351,0.00001238,-0.00003586,-0.00001527,-0.
 00000774,0.00001248,0.00000908,-0.00001185,0.00003735,0.00001124,0.000
 01528,-0.00002199,-0.00000888,-0.00000759,-0.00002300,-0.00001443,0.00
 023065,0.00005621,-0.00014351,-0.00042800,0.00270445,0.00069311,-0.012
 63866,-0.02180948,0.01365456,0.00061027,-0.00340789,-0.00491403,0.0005
 3081,0.00076708,0.00153299,-0.08946891,-0.19978708,0.09414077,-0.00000
 062,0.00000048,0.00000049,-0.00000021,0.00000021,-0.00000033,-0.000000
 46,-0.00000012,-0.00000067,-0.00000035,0.00000020,-0.00000010,0.000000
 46,0.00000112,-0.00000030,-0.00000008,-0.00000013,0.00000004,0.0000001
 2,0.00000132,-0.00000002,-0.00000038,-0.00000039,-0.00000031,0.0000009
 7,0.00000137,-0.00000071,0.00000024,-0.00000023,0.00000013,-0.00000005
 ,0.00000315,0.00000017,-0.00000030,-0.00000115,-0.00000018,0.00000221,
 0.00000287,-0.00000231,0.00000171,0.00000760,0.00000033,0.00000642,-0.
 00000529,-0.00000428,-0.00000183,0.00000136,0.00000092,-0.00000696,0.0
 0002776,0.00000369,-0.00000252,-0.00001374,0.00000258,0.00005829,0.000
 01731,-0.00004492,-0.00001412,0.00001725,0.00004639,-0.00007756,0.0003
 5852,0.00010108,-0.00091170,-0.00144965,0.00074315,0.00013392,0.000307
 32,-0.00008676,-0.00002141,0.00032681,-0.00004241,0.00035883,0.0002338
 8,-0.00005861,0.00002514,0.00002816,-0.00011842,-0.00014905,0.00058443
 ,-0.00089613,-0.00341671,-0.00574628,0.00309419,0.10066155,0.21848735,
 0.00000270,0.00000069,0.00000031,-0.00000397,0.00000019,0.00000030,0.0
 0000266,0.00000075,0.00000003,-0.00000135,-0.00000069,-0.00000084,0.00
 000150,0.00000226,0.00000126,-0.00000200,-0.00000207,-0.00000187,-0.00
 000105,0.00000490,0.00000311,0.00001503,-0.00001952,-0.00002009,-0.000
 01083,0.00000555,0.00000990,-0.00004589,0.00002588,0.00002440,0.000000
 94,-0.00002506,-0.00001379,0.00003486,0.00006893,0.00001710,-0.0001819
 8,-0.00002259,0.00003354,-0.00109229,0.00123926,0.00084957,-0.00963936
 ,-0.01658647,0.00879333,0.00012363,-0.00280769,-0.00233164,-0.00011070
 ,-0.00041983,0.00149976,0.05606693,0.09675937,-0.10609436,-0.00000023,
 0.00000010,0.00000002,-0.00000038,-0.00000053,0.00000014,-0.00000023,0
 .00000003,-0.00000025,-0.00000026,0.00000025,-0.00000013,-0.00000055,-
 0.00000046,0.00000041,0.00000010,0.00000004,-0.00000015,-0.00000004,-0
 .00000051,0.,-0.00000025,0.00000037,-0.00000045,-0.00000061,-0.0000008
 8,0.00000053,0.00000060,-0.00000022,-0.00000013,-0.00000018,-0.0000007
 3,-0.00000003,0.00000036,0.00000093,-0.00000044,-0.00000054,-0.0000010
 9,0.00000141,-0.00000071,0.00000117,0.00000083,0.00000562,-0.00000093,
 -0.00000267,-0.00000125,-0.00000269,-0.00000522,-0.00000298,-0.0000019
 2,-0.00000140,-0.00000277,0.00001186,-0.00000960,0.00001325,-0.0000057
 9,0.00001712,-0.00001506,0.00000541,0.00001977,-0.00004738,0.00004938,
 0.00001236,-0.00031943,-0.00116681,0.00078089,0.00014736,-0.00030605,0
 .00009189,-0.00012378,0.00003114,-0.00017854,0.00017721,0.00014569,0.0
 0018633,-0.00008427,0.00006471,-0.00005949,0.00001091,0.00000445,-0.00
 028865,0.01264916,0.01904545,-0.01165691,-0.06027588,-0.10255164,0.113
 14867,0.00001296,-0.00000022,0.00000124,-0.00001985,0.00000921,0.00000
 584,0.00001279,-0.00000585,-0.00000363,-0.00000498,-0.00000444,-0.0000
 0426,0.00000379,0.00000459,0.00000425,-0.00000309,-0.00000901,-0.00000
 720,-0.00000547,0.00000787,0.00000981,0.00005357,-0.00008195,-0.000092
 75,-0.00002596,0.00002059,0.00005507,-0.00010866,0.00008640,0.00007697
 ,0.00007658,-0.00006838,-0.00005391,0.00000991,0.00000404,-0.00000031,
 0.00079119,-0.00065951,-0.00051120,0.00060352,0.00072136,0.00056015,0.
 00023355,-0.00218287,-0.00193802,-0.00027171,-0.00023999,-0.00000195,-
 0.00025557,-0.00008381,-0.00023845,-0.26757413,0.06876068,0.07104348,-
 0.00000179,0.00000152,0.00000115,-0.00000151,-0.00000126,-0.00000037,-
 0.00000141,-0.00000039,-0.00000143,-0.00000081,0.00000063,0.00000057,-
 0.00000077,0.00000078,0.00000042,0.00000005,-0.00000004,0.00000063,0.0
 0000012,0.00000071,-0.00000012,-0.00000040,-0.00000038,-0.00000007,-0.
 00000025,0.00000006,-0.00000039,0.00000099,-0.00000023,0.00000178,-0.0
 0000049,0.00000228,0.00000020,0.00000240,-0.00000145,0.00000146,0.0000
 0077,0.00000094,-0.00000137,0.00000093,0.00000950,0.00000421,0.0000128
 8,-0.00000575,-0.00001652,-0.00000471,0.00000605,0.00000508,-0.0000081
 2,0.00001463,0.00000400,0.00002050,-0.00002671,0.00000497,0.00001637,-
 0.00000048,-0.00002733,-0.00004633,0.00016513,0.00019156,-0.00004670,0
 .00020628,0.00010353,0.00031321,0.00010378,-0.00009761,0.00001391,-0.0
 0004580,0.00009123,0.00062557,-0.00015701,-0.00022060,0.00031869,-0.00
 002769,0.00010107,0.00059376,-0.00024853,-0.00021619,0.00001375,0.0000
 6787,-0.00007386,-0.01449084,0.00372339,0.00594031,-0.01185827,0.00452
 114,0.00271339,0.29100006,-0.00000793,-0.00000015,-0.00000117,0.000012
 75,-0.00000516,-0.00000294,-0.00000868,0.00000225,0.00000083,0.0000050
 8,0.00000378,0.00000355,-0.00000362,-0.00000625,-0.00000575,0.00000809
 ,0.00001008,0.00000830,0.00000470,-0.00001830,-0.00001814,-0.00003516,
 0.00009127,0.00010436,0.00002398,-0.00001793,-0.00005765,0.00016991,-0
 .00014778,-0.00012992,0.00007267,0.00016271,0.00010033,-0.00008165,-0.
 00048772,-0.00034967,0.00109082,0.00095750,0.00002248,0.00129549,-0.00
 555483,-0.00488731,0.02317978,-0.00441519,-0.00333665,0.00068985,0.000
 59324,0.00026144,0.00036616,0.00048294,0.00076012,0.06577212,-0.068436
 10,-0.02236541,0.00000118,-0.00000080,-0.00000061,0.00000096,0.0000007
 7,0.00000017,0.00000091,0.00000017,0.00000100,0.00000075,-0.00000050,0
 .00000005,0.00000071,-0.00000025,-0.00000038,-0.00000013,0.00000002,-0
 .00000016,-0.00000018,-0.00000031,0.00000004,0.00000067,-0.00000003,0.
 00000081,0.00000066,0.00000054,-0.00000011,-0.00000137,0.00000035,-0.0
 0000091,0.00000012,-0.00000114,-0.00000008,-0.00000181,-0.00000005,-0.
 00000010,0.00000041,0.00000079,-0.00000050,-0.00000057,-0.00001016,-0.
 00000473,-0.00001147,0.00000175,0.00001495,0.00000126,0.00000235,0.000
 00242,0.00000347,-0.00000795,0.00000496,-0.00000889,0.00000475,0.00002
 411,-0.00000375,0.00002523,-0.00001694,0.00001042,-0.00014162,-0.00024
 355,-0.00002171,-0.00013549,0.00004075,-0.00026829,0.00036998,0.000123
 09,-0.00000620,-0.00008482,-0.00005303,-0.00066402,-0.00069693,0.00005
 371,-0.00014887,-0.00002469,0.00027238,-0.00041598,0.00034270,-0.00027
 656,-0.00013088,0.00004412,-0.00001021,0.00663537,-0.00304407,-0.00257
 281,-0.02293943,0.00832367,0.00645539,-0.07458768,0.07181726,-0.000007
 25,-0.00000027,-0.00000082,0.00001153,-0.00000455,-0.00000291,-0.00000
 775,0.00000201,0.00000107,0.00000436,0.00000311,0.00000335,-0.00000313
 ,-0.00000519,-0.00000496,0.00000659,0.00000811,0.00000763,0.00000414,-
 0.00001420,-0.00001596,-0.00003208,0.00007804,0.00008998,0.00002028,-0
 .00001549,-0.00005070,0.00014267,-0.00012099,-0.00011170,0.00005262,0.
 00011928,0.00010249,-0.00006825,-0.00036053,-0.00030631,0.00086449,0.0
 0018284,0.00084454,0.00102057,-0.00487360,-0.00337296,0.01811547,-0.00
 141417,-0.00488747,0.00019423,0.00077774,0.00020379,0.00065828,0.00034
 601,0.00029773,0.06866955,-0.02259087,-0.06947288,0.00000105,-0.000000
 77,-0.00000052,0.00000091,0.00000081,0.00000014,0.00000081,0.00000017,
 0.00000077,0.00000059,-0.00000043,-0.00000012,0.00000067,-0.00000016,-
 0.00000035,-0.00000014,0.00000005,-0.00000027,-0.00000011,-0.00000019,
 0.00000003,0.00000055,-0.00000009,0.00000058,0.00000056,0.00000051,-0.
 00000003,-0.00000118,0.00000044,-0.00000086,0.00000020,-0.00000101,-0.
 00000017,-0.00000144,-0.00000026,-0.00000007,0.00000010,0.00000046,-0.
 00000014,-0.00000068,-0.00000865,-0.00000418,-0.00000990,0.00000267,0.
 00001390,-0.00000010,0.00000343,-0.00000061,0.00000453,-0.00000604,0.0
 0000093,0.00000241,-0.00000952,0.00002249,-0.00001291,0.00001905,0.000
 00634,-0.00003766,0.00002291,-0.00009910,0.00003425,-0.00026160,-0.000
 10062,-0.00013985,0.00015747,-0.00009486,-0.00012868,0.00001637,0.0000
 6467,-0.00026281,-0.00005958,0.00045034,-0.00024502,0.00019948,0.00029
 464,-0.00069344,-0.00022287,-0.00056722,0.00002600,-0.00008645,-0.0000
 6492,-0.02397290,0.00717184,0.00917301,0.01320270,-0.00513534,-0.00482
 633,-0.07741482,0.02608004,0.07240863\\0.00001248,0.00000064,0.0000015
 7,-0.00000563,-0.00000633,-0.00000609,-0.00000494,0.00000998,0.0000076
 8,0.00000214,-0.00000577,-0.00000505,-0.00000202,0.00000551,0.00000410
 ,0.00000250,-0.00000607,-0.00000482,-0.00000225,0.00000346,0.00000492,
 0.00000629,-0.00000262,-0.00000449,0.00000351,-0.00000352,0.00000256,-
 0.00000475,0.00000541,0.00000139,0.00000450,-0.00000389,-0.00000165,0.
 00000449,0.00000508,0.00000358,-0.00000069,0.00000434,0.00000161,-0.00
 000744,-0.00000184,-0.00000036,0.00001355,-0.00000040,-0.00000177,-0.0
 0000221,-0.00000092,0.00000050,-0.00000138,-0.00000011,-0.00000122,-0.
 00000093,0.00000296,0.00000208,-0.00000105,0.00000036,0.00000021,-0.00
 000187,-0.00000081,0.00000028,-0.00000160,0.00000069,-0.00000099,0.000
 00064,-0.00000024,-0.00000169,0.00000025,-0.00000197,-0.00000042,0.000
 00004,0.00000094,0.00000126,0.00000041,0.00000119,0.00000138,-0.000000
 52,-0.00000024,-0.00000061,-0.00000008,-0.00000087,-0.00000061,-0.0000
 0016,0.00000107,0.00000075,0.00000026,0.00000086,0.00000081,0.00000012
 ,-0.00000077,-0.00000113,-0.00000062,-0.00000173,-0.00000169,-0.000002
 13,0.00000074,-0.00000042,-0.00000268,0.00000156,0.00000097,-0.0000007
 2,0.00000030,0.00000037,-0.00000026,0.00000017,-0.00000037,-0.00000186
 ,-0.00000287,-0.00000188,-0.00000280,-0.00000137,-0.00000059,-0.000000
 91,-0.00000143,-0.00000010,0.00000010,-0.00000018,0.00000079,0.0000008
 2,0.00000081,-0.00000086,-0.00000036,-0.00000001,0.00000043,-0.0000001
 1,-0.00000019,0.00000082,0.00000042,-0.00000095,0.00000081,-0.00000040
 ,0.00000027,-0.00000014,-0.00000070,-0.00000017,-0.00000012,-0.0000004
 7,-0.00000090,-0.00000102,-0.00000069,-0.00000096,-0.00000107,-0.00000
 033,0.00000079,0.00000033\\\@


 Everywhere is walking distance if you have the time.
                                    -- Steven Wright
 Job cpu time:       0 days 17 hours 54 minutes 29.5 seconds.
 Elapsed time:       0 days  4 hours 29 minutes 12.0 seconds.
 File lengths (MBytes):  RWF=   1460 Int=      0 D2E=      0 Chk=     36 Scr=      1
 Normal termination of Gaussian 16 at Mon May 22 13:37:06 2023.
### All Done ###
