### Starting Gaussian ###
 Entering Gaussian System, Link 0=g16
 Initial command:
 /cluster/software/gaussian/gaussian-16-A.03/avx2/g16/l1.exe "/local/scratch/cz9n3/Gau-4713.inp" -scrdir="/local/scratch/cz9n3/"
 Entering Link 1 = /cluster/software/gaussian/gaussian-16-A.03/avx2/g16/l1.exe PID=      4714.
  
 Copyright (c) 1988,1990,1992,1993,1995,1998,2003,2009,2016,
            Gaussian, Inc.  All Rights Reserved.
  
 This is part of the Gaussian(R) 16 program.  It is based on
 the Gaussian(R) 09 system (copyright 2009, Gaussian, Inc.),
 the Gaussian(R) 03 system (copyright 2003, Gaussian, Inc.),
 the Gaussian(R) 98 system (copyright 1998, Gaussian, Inc.),
 the Gaussian(R) 94 system (copyright 1995, Gaussian, Inc.),
 the Gaussian 92(TM) system (copyright 1992, Gaussian, Inc.),
 the Gaussian 90(TM) system (copyright 1990, Gaussian, Inc.),
 the Gaussian 88(TM) system (copyright 1988, Gaussian, Inc.),
 the Gaussian 86(TM) system (copyright 1986, Carnegie Mellon
 University), and the Gaussian 82(TM) system (copyright 1983,
 Carnegie Mellon University). Gaussian is a federally registered
 trademark of Gaussian, Inc.
  
 This software contains proprietary and confidential information,
 including trade secrets, belonging to Gaussian, Inc.
  
 This software is provided under written license and may be
 used, copied, transmitted, or stored only in accord with that
 written license.
  
 The following legend is applicable only to US Government
 contracts under FAR:
  
                    RESTRICTED RIGHTS LEGEND
  
 Use, reproduction and disclosure by the US Government is
 subject to restrictions as set forth in subparagraphs (a)
 and (c) of the Commercial Computer Software - Restricted
 Rights clause in FAR 52.227-19.
  
 Gaussian, Inc.
 340 Quinnipiac St., Bldg. 40, Wallingford CT 06492
  
  
 ---------------------------------------------------------------
 Warning -- This program may not be used in any manner that
 competes with the business of Gaussian, Inc. or will provide
 assistance to any competitor of Gaussian, Inc.  The licensee
 of this program is prohibited from giving any competitor of
 Gaussian, Inc. access to this program.  By using this program,
 the user acknowledges that Gaussian, Inc. is engaged in the
 business of creating and licensing software in the field of
 computational chemistry and represents and warrants to the
 licensee that it is not a competitor of Gaussian, Inc. and that
 it will not use this program in any manner prohibited above.
 ---------------------------------------------------------------
  

 Cite this work as:
 Gaussian 16, Revision A.03,
 M. J. Frisch, G. W. Trucks, H. B. Schlegel, G. E. Scuseria, 
 M. A. Robb, J. R. Cheeseman, G. Scalmani, V. Barone, 
 G. A. Petersson, H. Nakatsuji, X. Li, M. Caricato, A. V. Marenich, 
 J. Bloino, B. G. Janesko, R. Gomperts, B. Mennucci, H. P. Hratchian, 
 J. V. Ortiz, A. F. Izmaylov, J. L. Sonnenberg, D. Williams-Young, 
 F. Ding, F. Lipparini, F. Egidi, J. Goings, B. Peng, A. Petrone, 
 T. Henderson, D. Ranasinghe, V. G. Zakrzewski, J. Gao, N. Rega, 
 G. Zheng, W. Liang, M. Hada, M. Ehara, K. Toyota, R. Fukuda, 
 J. Hasegawa, M. Ishida, T. Nakajima, Y. Honda, O. Kitao, H. Nakai, 
 T. Vreven, K. Throssell, J. A. Montgomery, Jr., J. E. Peralta, 
 F. Ogliaro, M. J. Bearpark, J. J. Heyd, E. N. Brothers, K. N. Kudin, 
 V. N. Staroverov, T. A. Keith, R. Kobayashi, J. Normand, 
 K. Raghavachari, A. P. Rendell, J. C. Burant, S. S. Iyengar, 
 J. Tomasi, M. Cossi, J. M. Millam, M. Klene, C. Adamo, R. Cammi, 
 J. W. Ochterski, R. L. Martin, K. Morokuma, O. Farkas, 
 J. B. Foresman, and D. J. Fox, Gaussian, Inc., Wallingford CT, 2016.
 
 ******************************************
 Gaussian 16:  ES64L-G16RevA.03 25-Dec-2016
                22-May-2023 
 ******************************************
 %chk=COCOC1CCqOCqOrCqCrCrCCO1.chk
 %NProcShared=20
 Will use up to   20 processors via shared memory.
 -----------------------------
 # opt freq b3lyp/6-31g(2df,p)
 -----------------------------
 1/18=20,19=15,26=3,38=1/1,3;
 2/9=110,12=2,17=6,18=5,40=1/2;
 3/5=1,6=6,7=104,11=2,25=1,30=1,71=1,74=-5/1,2,3;
 4//1;
 5/5=2,38=5/2;
 6/7=2,8=2,9=2,10=2,28=1/1;
 7//1,2,3,16;
 1/18=20,19=15,26=3/3(2);
 2/9=110/2;
 99//99;
 2/9=110/2;
 3/5=1,6=6,7=104,11=2,25=1,30=1,71=1,74=-5/1,2,3;
 4/5=5,16=3,69=1/1;
 5/5=2,38=5/2;
 7//1,2,3,16;
 1/18=20,19=15,26=3/3(-5);
 2/9=110/2;
 6/7=2,8=2,9=2,10=2,19=2,28=1/1;
 99/9=1/99;
 -------------------
 Title Card Required
 -------------------
 Symbolic Z-matrix:
 Charge =  0 Multiplicity = 1
 C                     1.05599  -0.14929  -0.07984 
 O                     2.47839  -0.25195  -0.04186 
 C                     2.97768   0.56986   1.00495 
 O                     4.37166   0.81105   0.88316 
 C                     4.93747   1.66385   1.88489 
 C                     3.98961   2.66453   2.51275 
 C                     3.48814   3.71751   1.51737 
 O                     2.65748   4.68132   2.18536 
 C                     1.43348   4.11731   2.67312 
 O                     1.70019   3.28082   3.79002 
 C                     0.48337   5.20431   3.17411 
 C                     0.06256   6.13223   2.04274 
 C                    -0.74111   4.56516   3.84273 
 C                     4.69222   4.36628   0.83482 
 C                     5.65466   3.29004   0.3248 
 O                     6.04953   2.39244   1.36282 
 H                     0.6761   -0.7876   -0.87839 
 H                     0.74728   0.88346  -0.28639 
 H                     0.63056  -0.47075   0.87635 
 H                     2.73125   0.12622   1.97492 
 H                     2.44927   1.51103   0.90126 
 H                     5.32105   1.02145   2.6876 
 H                     4.46941   3.19041   3.34862 
 H                     3.1789    2.08495   2.9466 
 H                     2.89008   3.30927   0.69906 
 H                     0.95145   3.52024   1.88876 
 H                     2.21326   3.83548   4.39217 
 H                     1.01122   5.79998   3.9297 
 H                    -0.48505   5.58472   1.26847 
 H                     0.93266   6.60346   1.57527 
 H                    -0.58616   6.92624   2.42477 
 H                    -1.30551   3.95595   3.12814 
 H                    -1.40586   5.32909   4.25328 
 H                    -0.45062   3.91092   4.67354 
 H                     5.19917   5.03093   1.54229 
 H                     4.35974   4.9917   -0.00281 
 H                     6.56261   3.7552   -0.06868 
 H                     5.20743   2.71321  -0.49338 
 

 GradGradGradGradGradGradGradGradGradGradGradGradGradGradGradGradGradGrad
 Berny optimization.
 Initialization pass.
                           ----------------------------
                           !    Initial Parameters    !
                           ! (Angstroms and Degrees)  !
 --------------------------                            --------------------------
 ! Name  Definition              Value          Derivative Info.                !
 --------------------------------------------------------------------------------
 ! R1    R(1,2)                  1.4266         estimate D2E/DX2                !
 ! R2    R(1,17)                 1.0906         estimate D2E/DX2                !
 ! R3    R(1,18)                 1.0975         estimate D2E/DX2                !
 ! R4    R(1,19)                 1.0948         estimate D2E/DX2                !
 ! R5    R(2,3)                  1.4214         estimate D2E/DX2                !
 ! R6    R(3,4)                  1.4199         estimate D2E/DX2                !
 ! R7    R(3,20)                 1.0947         estimate D2E/DX2                !
 ! R8    R(3,21)                 1.0843         estimate D2E/DX2                !
 ! R9    R(4,5)                  1.4321         estimate D2E/DX2                !
 ! R10   R(5,6)                  1.5146         estimate D2E/DX2                !
 ! R11   R(5,16)                 1.4283         estimate D2E/DX2                !
 ! R12   R(5,22)                 1.0973         estimate D2E/DX2                !
 ! R13   R(6,7)                  1.5333         estimate D2E/DX2                !
 ! R14   R(6,23)                 1.0979         estimate D2E/DX2                !
 ! R15   R(6,24)                 1.0869         estimate D2E/DX2                !
 ! R16   R(7,8)                  1.4371         estimate D2E/DX2                !
 ! R17   R(7,14)                 1.5286         estimate D2E/DX2                !
 ! R18   R(7,25)                 1.0927         estimate D2E/DX2                !
 ! R19   R(8,9)                  1.4332         estimate D2E/DX2                !
 ! R20   R(9,10)                 1.4207         estimate D2E/DX2                !
 ! R21   R(9,11)                 1.5282         estimate D2E/DX2                !
 ! R22   R(9,26)                 1.0973         estimate D2E/DX2                !
 ! R23   R(10,27)                0.9662         estimate D2E/DX2                !
 ! R24   R(11,12)                1.5225         estimate D2E/DX2                !
 ! R25   R(11,13)                1.5346         estimate D2E/DX2                !
 ! R26   R(11,28)                1.0974         estimate D2E/DX2                !
 ! R27   R(12,29)                1.0951         estimate D2E/DX2                !
 ! R28   R(12,30)                1.0944         estimate D2E/DX2                !
 ! R29   R(12,31)                1.0942         estimate D2E/DX2                !
 ! R30   R(13,32)                1.0956         estimate D2E/DX2                !
 ! R31   R(13,33)                1.0927         estimate D2E/DX2                !
 ! R32   R(13,34)                1.0967         estimate D2E/DX2                !
 ! R33   R(14,15)                1.5312         estimate D2E/DX2                !
 ! R34   R(14,35)                1.0951         estimate D2E/DX2                !
 ! R35   R(14,36)                1.097          estimate D2E/DX2                !
 ! R36   R(15,16)                1.428          estimate D2E/DX2                !
 ! R37   R(15,37)                1.0934         estimate D2E/DX2                !
 ! R38   R(15,38)                1.0964         estimate D2E/DX2                !
 ! A1    A(2,1,17)             108.946          estimate D2E/DX2                !
 ! A2    A(2,1,18)             110.6817         estimate D2E/DX2                !
 ! A3    A(2,1,19)             110.0633         estimate D2E/DX2                !
 ! A4    A(17,1,18)            108.3585         estimate D2E/DX2                !
 ! A5    A(17,1,19)            109.4076         estimate D2E/DX2                !
 ! A6    A(18,1,19)            109.3513         estimate D2E/DX2                !
 ! A7    A(1,2,3)              109.161          estimate D2E/DX2                !
 ! A8    A(2,3,4)              112.3262         estimate D2E/DX2                !
 ! A9    A(2,3,20)             109.8255         estimate D2E/DX2                !
 ! A10   A(2,3,21)             105.0836         estimate D2E/DX2                !
 ! A11   A(4,3,20)             111.4589         estimate D2E/DX2                !
 ! A12   A(4,3,21)             108.8308         estimate D2E/DX2                !
 ! A13   A(20,3,21)            109.0737         estimate D2E/DX2                !
 ! A14   A(3,4,5)              115.406          estimate D2E/DX2                !
 ! A15   A(4,5,6)              115.8583         estimate D2E/DX2                !
 ! A16   A(4,5,16)             110.8367         estimate D2E/DX2                !
 ! A17   A(4,5,22)             107.5282         estimate D2E/DX2                !
 ! A18   A(6,5,16)             107.5627         estimate D2E/DX2                !
 ! A19   A(6,5,22)             107.5957         estimate D2E/DX2                !
 ! A20   A(16,5,22)            107.0882         estimate D2E/DX2                !
 ! A21   A(5,6,7)              112.9102         estimate D2E/DX2                !
 ! A22   A(5,6,23)             111.0121         estimate D2E/DX2                !
 ! A23   A(5,6,24)             106.2571         estimate D2E/DX2                !
 ! A24   A(7,6,23)             107.952          estimate D2E/DX2                !
 ! A25   A(7,6,24)             112.4187         estimate D2E/DX2                !
 ! A26   A(23,6,24)            106.1096         estimate D2E/DX2                !
 ! A27   A(6,7,8)              110.3573         estimate D2E/DX2                !
 ! A28   A(6,7,14)             108.8879         estimate D2E/DX2                !
 ! A29   A(6,7,25)             114.1166         estimate D2E/DX2                !
 ! A30   A(8,7,14)             112.2235         estimate D2E/DX2                !
 ! A31   A(8,7,25)             106.3983         estimate D2E/DX2                !
 ! A32   A(14,7,25)            104.7917         estimate D2E/DX2                !
 ! A33   A(7,8,9)              112.8241         estimate D2E/DX2                !
 ! A34   A(8,9,10)             109.8115         estimate D2E/DX2                !
 ! A35   A(8,9,11)             111.2611         estimate D2E/DX2                !
 ! A36   A(8,9,26)             110.2438         estimate D2E/DX2                !
 ! A37   A(10,9,11)            106.1291         estimate D2E/DX2                !
 ! A38   A(10,9,26)            108.9083         estimate D2E/DX2                !
 ! A39   A(11,9,26)            110.3813         estimate D2E/DX2                !
 ! A40   A(9,10,27)            104.5751         estimate D2E/DX2                !
 ! A41   A(9,11,12)            111.2073         estimate D2E/DX2                !
 ! A42   A(9,11,13)            110.0402         estimate D2E/DX2                !
 ! A43   A(9,11,28)            108.2258         estimate D2E/DX2                !
 ! A44   A(12,11,13)           110.9201         estimate D2E/DX2                !
 ! A45   A(12,11,28)           108.2855         estimate D2E/DX2                !
 ! A46   A(13,11,28)           108.0518         estimate D2E/DX2                !
 ! A47   A(11,12,29)           111.0327         estimate D2E/DX2                !
 ! A48   A(11,12,30)           111.106          estimate D2E/DX2                !
 ! A49   A(11,12,31)           110.2845         estimate D2E/DX2                !
 ! A50   A(29,12,30)           108.1109         estimate D2E/DX2                !
 ! A51   A(29,12,31)           108.2524         estimate D2E/DX2                !
 ! A52   A(30,12,31)           107.9419         estimate D2E/DX2                !
 ! A53   A(11,13,32)           111.0063         estimate D2E/DX2                !
 ! A54   A(11,13,33)           110.9736         estimate D2E/DX2                !
 ! A55   A(11,13,34)           111.5428         estimate D2E/DX2                !
 ! A56   A(32,13,33)           108.6876         estimate D2E/DX2                !
 ! A57   A(32,13,34)           107.3888         estimate D2E/DX2                !
 ! A58   A(33,13,34)           107.0724         estimate D2E/DX2                !
 ! A59   A(7,14,15)            110.2135         estimate D2E/DX2                !
 ! A60   A(7,14,35)            109.498          estimate D2E/DX2                !
 ! A61   A(7,14,36)            110.1327         estimate D2E/DX2                !
 ! A62   A(15,14,35)           110.5358         estimate D2E/DX2                !
 ! A63   A(15,14,36)           109.6878         estimate D2E/DX2                !
 ! A64   A(35,14,36)           106.7129         estimate D2E/DX2                !
 ! A65   A(14,15,16)           111.931          estimate D2E/DX2                !
 ! A66   A(14,15,37)           110.046          estimate D2E/DX2                !
 ! A67   A(14,15,38)           111.2194         estimate D2E/DX2                !
 ! A68   A(16,15,37)           107.4204         estimate D2E/DX2                !
 ! A69   A(16,15,38)           108.9377         estimate D2E/DX2                !
 ! A70   A(37,15,38)           107.0964         estimate D2E/DX2                !
 ! A71   A(5,16,15)            111.7802         estimate D2E/DX2                !
 ! D1    D(17,1,2,3)          -179.5181         estimate D2E/DX2                !
 ! D2    D(18,1,2,3)            61.4349         estimate D2E/DX2                !
 ! D3    D(19,1,2,3)           -59.5586         estimate D2E/DX2                !
 ! D4    D(1,2,3,4)           -163.9292         estimate D2E/DX2                !
 ! D5    D(1,2,3,20)            71.4284         estimate D2E/DX2                !
 ! D6    D(1,2,3,21)           -45.7611         estimate D2E/DX2                !
 ! D7    D(2,3,4,5)            178.3423         estimate D2E/DX2                !
 ! D8    D(20,3,4,5)           -57.9212         estimate D2E/DX2                !
 ! D9    D(21,3,4,5)            62.4123         estimate D2E/DX2                !
 ! D10   D(3,4,5,6)            -26.9101         estimate D2E/DX2                !
 ! D11   D(3,4,5,16)          -149.8154         estimate D2E/DX2                !
 ! D12   D(3,4,5,22)            93.4459         estimate D2E/DX2                !
 ! D13   D(4,5,6,7)            -65.4689         estimate D2E/DX2                !
 ! D14   D(4,5,6,23)           173.1462         estimate D2E/DX2                !
 ! D15   D(4,5,6,24)            58.2086         estimate D2E/DX2                !
 ! D16   D(16,5,6,7)            59.1425         estimate D2E/DX2                !
 ! D17   D(16,5,6,23)          -62.2424         estimate D2E/DX2                !
 ! D18   D(16,5,6,24)         -177.1799         estimate D2E/DX2                !
 ! D19   D(22,5,6,7)           174.2116         estimate D2E/DX2                !
 ! D20   D(22,5,6,23)           52.8267         estimate D2E/DX2                !
 ! D21   D(22,5,6,24)          -62.1108         estimate D2E/DX2                !
 ! D22   D(4,5,16,15)           64.3713         estimate D2E/DX2                !
 ! D23   D(6,5,16,15)          -63.2141         estimate D2E/DX2                !
 ! D24   D(22,5,16,15)        -178.6194         estimate D2E/DX2                !
 ! D25   D(5,6,7,8)           -176.6634         estimate D2E/DX2                !
 ! D26   D(5,6,7,14)           -53.0678         estimate D2E/DX2                !
 ! D27   D(5,6,7,25)            63.5993         estimate D2E/DX2                !
 ! D28   D(23,6,7,8)           -53.5619         estimate D2E/DX2                !
 ! D29   D(23,6,7,14)           70.0336         estimate D2E/DX2                !
 ! D30   D(23,6,7,25)         -173.2993         estimate D2E/DX2                !
 ! D31   D(24,6,7,8)            63.1295         estimate D2E/DX2                !
 ! D32   D(24,6,7,14)         -173.2749         estimate D2E/DX2                !
 ! D33   D(24,6,7,25)          -56.6078         estimate D2E/DX2                !
 ! D34   D(6,7,8,9)            -66.3382         estimate D2E/DX2                !
 ! D35   D(14,7,8,9)           172.021          estimate D2E/DX2                !
 ! D36   D(25,7,8,9)            57.9592         estimate D2E/DX2                !
 ! D37   D(6,7,14,15)           48.8831         estimate D2E/DX2                !
 ! D38   D(6,7,14,35)          -72.9149         estimate D2E/DX2                !
 ! D39   D(6,7,14,36)          170.0377         estimate D2E/DX2                !
 ! D40   D(8,7,14,15)          171.3603         estimate D2E/DX2                !
 ! D41   D(8,7,14,35)           49.5623         estimate D2E/DX2                !
 ! D42   D(8,7,14,36)          -67.4851         estimate D2E/DX2                !
 ! D43   D(25,7,14,15)         -73.5962         estimate D2E/DX2                !
 ! D44   D(25,7,14,35)         164.6058         estimate D2E/DX2                !
 ! D45   D(25,7,14,36)          47.5583         estimate D2E/DX2                !
 ! D46   D(7,8,9,10)            71.8971         estimate D2E/DX2                !
 ! D47   D(7,8,9,11)          -170.9081         estimate D2E/DX2                !
 ! D48   D(7,8,9,26)           -48.1014         estimate D2E/DX2                !
 ! D49   D(8,9,10,27)           52.6335         estimate D2E/DX2                !
 ! D50   D(11,9,10,27)         -67.7246         estimate D2E/DX2                !
 ! D51   D(26,9,10,27)         173.4414         estimate D2E/DX2                !
 ! D52   D(8,9,11,12)           63.4861         estimate D2E/DX2                !
 ! D53   D(8,9,11,13)         -173.2001         estimate D2E/DX2                !
 ! D54   D(8,9,11,28)          -55.3357         estimate D2E/DX2                !
 ! D55   D(10,9,11,12)        -177.1007         estimate D2E/DX2                !
 ! D56   D(10,9,11,13)         -53.7869         estimate D2E/DX2                !
 ! D57   D(10,9,11,28)          64.0775         estimate D2E/DX2                !
 ! D58   D(26,9,11,12)         -59.2415         estimate D2E/DX2                !
 ! D59   D(26,9,11,13)          64.0723         estimate D2E/DX2                !
 ! D60   D(26,9,11,28)        -178.0633         estimate D2E/DX2                !
 ! D61   D(9,11,12,29)          62.1605         estimate D2E/DX2                !
 ! D62   D(9,11,12,30)         -58.1984         estimate D2E/DX2                !
 ! D63   D(9,11,12,31)        -177.8483         estimate D2E/DX2                !
 ! D64   D(13,11,12,29)        -60.6484         estimate D2E/DX2                !
 ! D65   D(13,11,12,30)        178.9927         estimate D2E/DX2                !
 ! D66   D(13,11,12,31)         59.3428         estimate D2E/DX2                !
 ! D67   D(28,11,12,29)       -179.0535         estimate D2E/DX2                !
 ! D68   D(28,11,12,30)         60.5876         estimate D2E/DX2                !
 ! D69   D(28,11,12,31)        -59.0623         estimate D2E/DX2                !
 ! D70   D(9,11,13,32)         -61.9871         estimate D2E/DX2                !
 ! D71   D(9,11,13,33)         177.031          estimate D2E/DX2                !
 ! D72   D(9,11,13,34)          57.7329         estimate D2E/DX2                !
 ! D73   D(12,11,13,32)         61.4945         estimate D2E/DX2                !
 ! D74   D(12,11,13,33)        -59.4874         estimate D2E/DX2                !
 ! D75   D(12,11,13,34)       -178.7855         estimate D2E/DX2                !
 ! D76   D(28,11,13,32)       -179.9591         estimate D2E/DX2                !
 ! D77   D(28,11,13,33)         59.059          estimate D2E/DX2                !
 ! D78   D(28,11,13,34)        -60.2391         estimate D2E/DX2                !
 ! D79   D(7,14,15,16)         -54.7344         estimate D2E/DX2                !
 ! D80   D(7,14,15,37)        -174.1052         estimate D2E/DX2                !
 ! D81   D(7,14,15,38)          67.3811         estimate D2E/DX2                !
 ! D82   D(35,14,15,16)         66.4464         estimate D2E/DX2                !
 ! D83   D(35,14,15,37)        -52.9244         estimate D2E/DX2                !
 ! D84   D(35,14,15,38)       -171.4381         estimate D2E/DX2                !
 ! D85   D(36,14,15,16)       -176.154          estimate D2E/DX2                !
 ! D86   D(36,14,15,37)         64.4752         estimate D2E/DX2                !
 ! D87   D(36,14,15,38)        -54.0385         estimate D2E/DX2                !
 ! D88   D(14,15,16,5)          62.9933         estimate D2E/DX2                !
 ! D89   D(37,15,16,5)        -176.1021         estimate D2E/DX2                !
 ! D90   D(38,15,16,5)         -60.4183         estimate D2E/DX2                !
 --------------------------------------------------------------------------------
 Trust Radius=3.00D-01 FncErr=1.00D-07 GrdErr=1.00D-06 EigMax=2.50D+02 EigMin=1.00D-04
 Number of steps in this run=    209 maximum allowed number of steps=    228.
 GradGradGradGradGradGradGradGradGradGradGradGradGradGradGradGradGradGrad

                          Input orientation:                          
 ---------------------------------------------------------------------
 Center     Atomic      Atomic             Coordinates (Angstroms)
 Number     Number       Type             X           Y           Z
 ---------------------------------------------------------------------
      1          6           0        1.055990   -0.149290   -0.079840
      2          8           0        2.478390   -0.251950   -0.041860
      3          6           0        2.977680    0.569860    1.004950
      4          8           0        4.371660    0.811050    0.883160
      5          6           0        4.937470    1.663850    1.884890
      6          6           0        3.989610    2.664530    2.512750
      7          6           0        3.488140    3.717510    1.517370
      8          8           0        2.657480    4.681320    2.185360
      9          6           0        1.433480    4.117310    2.673120
     10          8           0        1.700190    3.280820    3.790020
     11          6           0        0.483370    5.204310    3.174110
     12          6           0        0.062560    6.132230    2.042740
     13          6           0       -0.741110    4.565160    3.842730
     14          6           0        4.692220    4.366280    0.834820
     15          6           0        5.654660    3.290040    0.324800
     16          8           0        6.049530    2.392440    1.362820
     17          1           0        0.676100   -0.787600   -0.878390
     18          1           0        0.747280    0.883460   -0.286390
     19          1           0        0.630560   -0.470750    0.876350
     20          1           0        2.731250    0.126220    1.974920
     21          1           0        2.449270    1.511030    0.901260
     22          1           0        5.321050    1.021450    2.687600
     23          1           0        4.469410    3.190410    3.348620
     24          1           0        3.178900    2.084950    2.946600
     25          1           0        2.890080    3.309270    0.699060
     26          1           0        0.951450    3.520240    1.888760
     27          1           0        2.213260    3.835480    4.392170
     28          1           0        1.011220    5.799980    3.929700
     29          1           0       -0.485050    5.584720    1.268470
     30          1           0        0.932660    6.603460    1.575270
     31          1           0       -0.586160    6.926240    2.424770
     32          1           0       -1.305510    3.955950    3.128140
     33          1           0       -1.405860    5.329090    4.253280
     34          1           0       -0.450620    3.910920    4.673540
     35          1           0        5.199170    5.030930    1.542290
     36          1           0        4.359740    4.991700   -0.002810
     37          1           0        6.562610    3.755200   -0.068680
     38          1           0        5.207430    2.713210   -0.493380
 ---------------------------------------------------------------------
                    Distance matrix (angstroms):
                    1          2          3          4          5
     1  C    0.000000
     2  O    1.426606   0.000000
     3  C    2.320956   1.421434   0.000000
     4  O    3.583754   2.360106   1.419925   0.000000
     5  C    4.713123   3.664660   2.410785   1.432087   0.000000
     6  C    4.821331   4.161211   2.772202   2.497381   1.514598
     7  C    4.839274   4.382625   3.229682   3.103279   2.540305
     8  O    5.570520   5.415693   4.289522   4.428671   3.793911
     9  C    5.091676   5.249132   4.213282   4.771605   4.349565
    10  O    5.211186   5.269664   4.091198   4.656861   4.089510
    11  C    6.291035   6.640282   5.692536   6.298252   5.834034
    12  C    6.704457   7.137195   6.365131   6.944633   6.614838
    13  C    6.390787   6.975655   6.151814   6.999487   6.670608
    14  C    5.869339   5.195927   4.169100   3.569980   2.909626
    15  C    5.756778   4.771669   3.876623   2.846620   2.364897
    16  O    5.785940   4.660361   3.589726   2.355019   1.428313
    17  H    1.090614   2.057900   3.269088   4.394986   5.639557
    18  H    1.097514   2.084632   2.596264   3.809097   4.783425
    19  H    1.094818   2.074960   2.570677   3.954603   4.911532
    20  H    2.665416   2.067451   1.094708   2.086115   2.690691
    21  H    2.379170   1.999605   1.084329   2.045943   2.679929
    22  H    5.217288   4.141523   2.920039   2.049784   1.097340
    23  H    5.878722   5.225836   3.819074   3.427740   2.166096
    24  H    4.319481   3.857811   2.471031   2.702459   2.096932
    25  H    3.991517   3.660702   2.757827   2.910339   2.881910
    26  H    4.165545   4.504249   3.686661   4.477586   4.397107
    27  H    6.100536   6.036390   4.766746   5.110677   4.292290
    28  H    7.174415   7.385915   6.306765   6.742654   6.058404
    29  H    6.088646   6.675751   6.099899   6.820852   6.719890
    30  H    6.953721   7.211174   6.396226   6.771835   6.366641
    31  H    7.683284   8.185484   7.424312   8.021975   7.648183
    32  H    5.720211   6.486387   5.858264   6.867357   6.765663
    33  H    7.406030   8.042614   7.239982   8.071563   7.699421
    34  H    6.430381   6.938558   6.031126   6.872449   6.469730
    35  H    6.828757   6.149878   5.012474   4.350473   3.394568
    36  H    6.111504   5.571074   4.741133   4.273514   3.869337
    37  H    6.750410   5.721785   4.914346   3.791343   3.291088
    38  H    5.059583   4.055084   3.436674   2.492305   2.613466
                    6          7          8          9         10
     6  C    0.000000
     7  C    1.533304   0.000000
     8  O    2.439097   1.437058   0.000000
     9  C    2.944501   2.391072   1.433246   0.000000
    10  O    2.693079   2.924449   2.335110   1.420674   0.000000
    11  C    4.379680   3.739519   2.444974   1.528159   2.357925
    12  C    5.259998   4.223918   2.976422   2.517281   3.723622
    13  C    5.268866   4.900241   3.782959   2.509462   2.759031
    14  C    2.490996   1.528589   2.462392   3.749763   4.343233
    15  C    2.819713   2.509734   3.792154   4.900749   5.257915
    16  O    2.374793   2.887978   4.173913   5.099018   5.059375
    17  H    5.864843   5.826084   6.574307   6.102867   6.276532
    18  H    4.638976   4.335632   4.917535   4.437044   4.824157
    19  H    4.877602   5.110596   5.689089   4.992330   4.869072
    20  H    2.883704   3.698594   4.560555   4.254467   3.782747
    21  H    2.510002   2.515432   3.426807   3.311195   3.469613
    22  H    2.122031   3.463775   4.554284   4.969684   4.408028
    23  H    1.097924   2.143409   2.618984   3.245353   2.805635
    24  H    1.086917   2.191707   2.755450   2.692911   2.080396
    25  H    2.216783   1.092688   2.036102   2.582930   3.312202
    26  H    3.217455   2.571311   2.084854   1.097299   2.057358
    27  H    2.838796   3.147016   2.404743   1.908564   0.966164
    28  H    4.550780   4.036230   2.646563   2.142119   2.615408
    29  H    5.486194   4.397120   3.395926   2.794117   4.054805
    30  H    5.073360   3.855196   2.653646   2.763519   4.066221
    31  H    6.253606   5.264907   3.951985   3.468532   4.514465
    32  H    5.484958   5.062659   4.137667   2.781213   3.150892
    33  H    6.264218   5.833835   4.605066   3.468021   3.749342
    34  H    5.092950   5.051005   4.055224   2.755741   2.409070
    35  H    2.829254   2.157155   2.644987   4.036570   4.511988
    36  H    3.446848   2.166609   2.789644   4.060561   4.938206
    37  H    3.804428   3.459674   4.603090   5.827226   6.225571
    38  H    3.243805   2.829787   4.189433   5.122589   5.565108
                   11         12         13         14         15
    11  C    0.000000
    12  C    1.522536   0.000000
    13  C    1.534574   2.518245   0.000000
    14  C    4.887636   5.100137   6.213546   0.000000
    15  C    6.206870   6.503918   7.409969   1.531243   0.000000
    16  O    6.493806   7.091694   7.548739   2.452982   1.427968
    17  H    7.236220   7.536145   7.276641   6.754760   6.546822
    18  H    5.542062   5.783016   5.728861   5.380492   5.499778
    19  H    6.124351   6.729222   6.003439   6.316302   6.299947
    20  H    5.681375   6.572569   5.937187   4.808673   4.612914
    21  H    4.761400   5.324927   5.306456   3.631486   3.711025
    22  H    6.413748   7.361225   7.116319   3.875062   3.292510
    23  H    4.469313   5.457101   5.411432   2.784152   3.249343
    24  H    4.128928   5.187390   4.724507   3.457487   3.802034
    25  H    3.938185   4.215382   4.964420   2.093659   2.789864
    26  H    2.169635   2.763390   2.788300   3.977428   4.961769
    27  H    2.519898   3.926881   3.092349   4.368264   5.355767
    28  H    1.097435   2.137981   2.145461   5.018320   6.391920
    29  H    2.171178   1.095052   2.780627   5.336363   6.622092
    30  H    2.171583   1.094377   3.478153   4.437063   5.902517
    31  H    2.161122   1.094183   2.758499   6.078045   7.521945
    32  H    2.181882   2.790323   1.095593   6.434318   7.533002
    33  H    2.179304   2.772684   1.092718   7.056873   8.333164
    34  H    2.189403   3.481190   1.096658   6.433656   7.521401
    35  H    4.993162   5.277127   6.387166   1.095113   2.172660
    36  H    5.016400   4.893959   6.402248   1.096958   2.163283
    37  H    7.040793   7.235953   8.324631   2.165200   1.093423
    38  H    6.478642   6.677671   7.590566   2.182246   1.096433
                   16         17         18         19         20
    16  O    0.000000
    17  H    6.633960   0.000000
    18  H    5.754196   1.774253   0.000000
    19  H    6.148150   1.783698   1.788707   0.000000
    20  H    4.064653   3.633192   3.102108   2.444612   0.000000
    21  H    3.735210   3.405141   2.168208   2.689940   1.774812
    22  H    2.040916   6.128989   5.457383   5.244805   2.831327
    23  H    2.660251   6.934074   5.691183   5.852605   3.781205
    24  H    3.292936   5.398713   4.220021   4.160718   2.231855
    25  H    3.356081   4.916747   3.383380   4.407427   3.432907
    26  H    5.247758   5.127419   3.424262   4.129884   3.833338
    27  H    5.096694   7.177362   5.722975   5.780099   4.457580
    28  H    6.601876   8.162490   6.482071   6.984977   6.242693
    29  H    7.273259   6.823763   5.102751   6.169851   6.374863
    30  H    6.630248   7.791921   6.018184   7.115069   6.734188
    31  H    8.106507   8.485723   6.756008   7.654637   7.579436
    32  H    7.723829   6.517693   5.031218   5.330535   5.682621
    33  H    8.518305   8.251211   6.708818   7.013473   7.026839
    34  H    7.451080   7.359994   5.933075   5.898020   5.633010
    35  H    2.777940   7.757135   6.353338   7.182211   5.507629
    36  H    3.387697   6.909135   5.477949   6.672186   5.498754
    37  H    2.041950   7.479550   6.489403   7.344450   5.659074
    38  H    2.063372   5.739064   4.825326   5.741211   4.349309
                   21         22         23         24         25
    21  H    0.000000
    22  H    3.417282   0.000000
    23  H    3.590384   2.422112   0.000000
    24  H    2.246143   2.405602   1.746161   0.000000
    25  H    1.862489   3.885618   3.086840   2.575619   0.000000
    26  H    2.693612   5.096617   3.823091   2.853177   2.284334
    27  H    4.200622   4.525780   2.568136   2.467081   3.791312
    28  H    5.443761   6.553762   4.371108   4.412116   4.491190
    29  H    5.033888   7.519851   5.882722   5.337513   4.110159
    30  H    5.356047   7.187077   5.225158   5.229060   3.930766
    31  H    6.392137   8.356480   6.353638   6.155166   5.305166
    32  H    5.003499   7.260624   5.829611   4.862461   4.890971
    33  H    6.377746   8.139928   6.317528   5.766444   5.930198
    34  H    5.329065   6.753160   5.145993   4.414737   5.226734
    35  H    4.512490   4.171633   2.680092   3.838278   3.001174
    36  H    4.072137   4.891350   3.806410   4.306112   2.341600
    37  H    4.785044   4.075775   4.047025   4.830232   3.778327
    38  H    3.316279   3.604663   3.941238   4.042661   2.673446
                   26         27         28         29         30
    26  H    0.000000
    27  H    2.821099   0.000000
    28  H    3.060429   2.349051   0.000000
    29  H    2.590438   4.483104   3.060605   0.000000
    30  H    3.099173   4.151695   2.488994   1.772529   0.000000
    31  H    3.775233   4.610880   2.466759   1.773959   1.769930
    32  H    2.611470   3.740859   3.067602   2.604692   3.798700
    33  H    3.797342   3.917677   2.483690   3.134059   3.776828
    34  H    3.142202   2.679761   2.501764   3.794377   4.331572
    35  H    4.521654   4.297275   4.881607   5.717693   4.547202
    36  H    4.166494   5.025940   5.227862   5.043790   4.102802
    37  H    5.947428   6.230768   7.140455   7.403015   6.520084
    38  H    4.943607   5.838933   6.833737   6.614682   6.138975
                   31         32         33         34         35
    31  H    0.000000
    32  H    3.136051   0.000000
    33  H    2.562469   1.778067   0.000000
    34  H    3.763973   1.766671   1.760769   0.000000
    35  H    6.151505   6.780956   7.145963   6.555858   0.000000
    36  H    5.839308   6.555203   7.174279   6.795285   1.758839
    37  H    8.208392   8.495132   9.200706   8.467485   2.466106
    38  H    7.735044   7.555011   8.550393   7.755327   3.084777
                   36         37         38
    36  H    0.000000
    37  H    2.527035   0.000000
    38  H    2.480071   1.761427   0.000000
 Stoichiometry    C11H22O5
 Framework group  C1[X(C11H22O5)]
 Deg. of freedom   108
 Full point group                 C1      NOp   1
 Largest Abelian subgroup         C1      NOp   1
 Largest concise Abelian subgroup C1      NOp   1
                         Standard orientation:                         
 ---------------------------------------------------------------------
 Center     Atomic      Atomic             Coordinates (Angstroms)
 Number     Number       Type             X           Y           Z
 ---------------------------------------------------------------------
      1          6           0       -1.530430    3.569607   -0.845841
      2          8           0       -2.534824    2.615611   -0.504832
      3          6           0       -1.941670    1.559148    0.238490
      4          8           0       -2.774097    0.410564    0.301777
      5          6           0       -2.223911   -0.708977    1.005194
      6          6           0       -0.712024   -0.796632    1.028031
      7          6           0       -0.106601   -1.030005   -0.361220
      8          8           0        1.319273   -1.181584   -0.266125
      9          6           0        1.979149    0.019039    0.154900
     10          8           0        1.715109    0.256584    1.530462
     11          6           0        3.496740   -0.109740    0.029993
     12          6           0        3.915925   -0.297624   -1.421591
     13          6           0        4.181037    1.119315    0.643247
     14          6           0       -0.776652   -2.249229   -0.994553
     15          6           0       -2.299325   -2.135492   -0.879509
     16          8           0       -2.718846   -1.937715    0.471039
     17          1           0       -1.990731    4.382623   -1.408482
     18          1           0       -0.756287    3.109871   -1.473443
     19          1           0       -1.069836    3.971068    0.062624
     20          1           0       -1.672512    1.914263    1.238407
     21          1           0       -1.036990    1.306318   -0.303174
     22          1           0       -2.568378   -0.647540    2.045253
     23          1           0       -0.374665   -1.609038    1.685011
     24          1           0       -0.360623    0.125432    1.483778
     25          1           0       -0.283802   -0.215730   -1.067990
     26          1           0        1.618897    0.875162   -0.429341
     27          1           0        1.956104   -0.569145    1.970424
     28          1           0        3.814017   -0.994020    0.597223
     29          1           0        3.634785    0.570232   -2.027334
     30          1           0        3.443392   -1.183653   -1.856706
     31          1           0        5.000390   -0.426236   -1.489650
     32          1           0        3.895954    2.033763    0.111425
     33          1           0        5.268619    1.019114    0.609221
     34          1           0        3.902705    1.251946    1.695673
     35          1           0       -0.421005   -3.159573   -0.500529
     36          1           0       -0.490909   -2.331134   -2.050470
     37          1           0       -2.771924   -3.054063   -1.237910
     38          1           0       -2.683561   -1.313804   -1.495428
 ---------------------------------------------------------------------
 Rotational constants (GHZ):           0.6296851           0.3253222           0.2521951
 Standard basis: 6-31G(2df,p) (6D, 7F)
 There are   606 symmetry adapted cartesian basis functions of A   symmetry.
 There are   558 symmetry adapted basis functions of A   symmetry.
   558 basis functions,   858 primitive gaussians,   606 cartesian basis functions
    64 alpha electrons       64 beta electrons
       nuclear repulsion energy      1272.0532137411 Hartrees.
 NAtoms=   38 NActive=   38 NUniq=   38 SFac= 1.00D+00 NAtFMM=   60 NAOKFM=F Big=F
 Integral buffers will be    131072 words long.
 Raffenetti 2 integral format.
 Two-electron integral symmetry is turned on.
 One-electron integrals computed using PRISM.
 PrsmSu:  requested number of processors reduced to:  12 ShMem   1 Linda.
 NBasis=   558 RedAO= T EigKep=  4.78D-04  NBF=   558
 NBsUse=   558 1.00D-06 EigRej= -1.00D+00 NBFU=   558
 ExpMin= 1.61D-01 ExpMax= 5.48D+03 ExpMxC= 8.25D+02 IAcc=3 IRadAn=         5 AccDes= 0.00D+00
 Harris functional with IExCor=  402 and IRadAn=       5 diagonalized for initial guess.
 HarFok:  IExCor=  402 AccDes= 0.00D+00 IRadAn=         5 IDoV= 1 UseB2=F ITyADJ=14
 ICtDFT=  3500011 ScaDFX=  1.000000  1.000000  1.000000  1.000000
 FoFCou: FMM=F IPFlag=           0 FMFlag=      100000 FMFlg1=           0
         NFxFlg=           0 DoJE=T BraDBF=F KetDBF=T FulRan=T
         wScrn=  0.000000 ICntrl=       500 IOpCl=  0 I1Cent=   200000004 NGrid=           0
         NMat0=    1 NMatS0=      1 NMatT0=    0 NMatD0=    1 NMtDS0=    0 NMtDT0=    0
 Petite list used in FoFCou.
 Requested convergence on RMS density matrix=1.00D-08 within 128 cycles.
 Requested convergence on MAX density matrix=1.00D-06.
 Requested convergence on             energy=1.00D-06.
 No special actions if energy rises.
 Integral accuracy reduced to 1.0D-05 until final iterations.
 Initial convergence to 1.0D-05 achieved.  Increase integral accuracy.
 SCF Done:  E(RB3LYP) =  -808.537112760     A.U. after   12 cycles
            NFock= 12  Conv=0.62D-08     -V/T= 2.0071

 **********************************************************************

            Population analysis using the SCF density.

 **********************************************************************

 Orbital symmetries:
       Occupied  (A) (A) (A) (A) (A) (A) (A) (A) (A) (A) (A) (A)
                 (A) (A) (A) (A) (A) (A) (A) (A) (A) (A) (A) (A)
                 (A) (A) (A) (A) (A) (A) (A) (A) (A) (A) (A) (A)
                 (A) (A) (A) (A) (A) (A) (A) (A) (A) (A) (A) (A)
                 (A) (A) (A) (A) (A) (A) (A) (A) (A) (A) (A) (A)
                 (A) (A) (A) (A)
       Virtual   (A) (A) (A) (A) (A) (A) (A) (A) (A) (A) (A) (A)
                 (A) (A) (A) (A) (A) (A) (A) (A) (A) (A) (A) (A)
                 (A) (A) (A) (A) (A) (A) (A) (A) (A) (A) (A) (A)
                 (A) (A) (A) (A) (A) (A) (A) (A) (A) (A) (A) (A)
                 (A) (A) (A) (A) (A) (A) (A) (A) (A) (A) (A) (A)
                 (A) (A) (A) (A) (A) (A) (A) (A) (A) (A) (A) (A)
                 (A) (A) (A) (A) (A) (A) (A) (A) (A) (A) (A) (A)
                 (A) (A) (A) (A) (A) (A) (A) (A) (A) (A) (A) (A)
                 (A) (A) (A) (A) (A) (A) (A) (A) (A) (A) (A) (A)
                 (A) (A) (A) (A) (A) (A) (A) (A) (A) (A) (A) (A)
                 (A) (A) (A) (A) (A) (A) (A) (A) (A) (A) (A) (A)
                 (A) (A) (A) (A) (A) (A) (A) (A) (A) (A) (A) (A)
                 (A) (A) (A) (A) (A) (A) (A) (A) (A) (A) (A) (A)
                 (A) (A) (A) (A) (A) (A) (A) (A) (A) (A) (A) (A)
                 (A) (A) (A) (A) (A) (A) (A) (A) (A) (A) (A) (A)
                 (A) (A) (A) (A) (A) (A) (A) (A) (A) (A) (A) (A)
                 (A) (A) (A) (A) (A) (A) (A) (A) (A) (A) (A) (A)
                 (A) (A) (A) (A) (A) (A) (A) (A) (A) (A) (A) (A)
                 (A) (A) (A) (A) (A) (A) (A) (A) (A) (A) (A) (A)
                 (A) (A) (A) (A) (A) (A) (A) (A) (A) (A) (A) (A)
                 (A) (A) (A) (A) (A) (A) (A) (A) (A) (A) (A) (A)
                 (A) (A) (A) (A) (A) (A) (A) (A) (A) (A) (A) (A)
                 (A) (A) (A) (A) (A) (A) (A) (A) (A) (A) (A) (A)
                 (A) (A) (A) (A) (A) (A) (A) (A) (A) (A) (A) (A)
                 (A) (A) (A) (A) (A) (A) (A) (A) (A) (A) (A) (A)
                 (A) (A) (A) (A) (A) (A) (A) (A) (A) (A) (A) (A)
                 (A) (A) (A) (A) (A) (A) (A) (A) (A) (A) (A) (A)
                 (A) (A) (A) (A) (A) (A) (A) (A) (A) (A) (A) (A)
                 (A) (A) (A) (A) (A) (A) (A) (A) (A) (A) (A) (A)
                 (A) (A) (A) (A) (A) (A) (A) (A) (A) (A) (A) (A)
                 (A) (A) (A) (A) (A) (A) (A) (A) (A) (A) (A) (A)
                 (A) (A) (A) (A) (A) (A) (A) (A) (A) (A) (A) (A)
                 (A) (A) (A) (A) (A) (A) (A) (A) (A) (A) (A) (A)
                 (A) (A) (A) (A) (A) (A) (A) (A) (A) (A) (A) (A)
                 (A) (A) (A) (A) (A) (A) (A) (A) (A) (A) (A) (A)
                 (A) (A) (A) (A) (A) (A) (A) (A) (A) (A) (A) (A)
                 (A) (A) (A) (A) (A) (A) (A) (A) (A) (A) (A) (A)
                 (A) (A) (A) (A) (A) (A) (A) (A) (A) (A) (A) (A)
                 (A) (A) (A) (A) (A) (A) (A) (A) (A) (A) (A) (A)
                 (A) (A) (A) (A) (A) (A) (A) (A) (A) (A) (A) (A)
                 (A) (A) (A) (A) (A) (A) (A) (A) (A) (A) (A) (A)
                 (A) (A)
 The electronic state is 1-A.
 Alpha  occ. eigenvalues --  -19.15083 -19.14954 -19.14611 -19.14592 -19.13935
 Alpha  occ. eigenvalues --  -10.28287 -10.27885 -10.27574 -10.23878 -10.23222
 Alpha  occ. eigenvalues --  -10.22562 -10.19254 -10.18368 -10.17494 -10.17491
 Alpha  occ. eigenvalues --  -10.17384  -1.06909  -1.06581  -1.03463  -1.00150
 Alpha  occ. eigenvalues --   -0.99574  -0.81169  -0.78821  -0.76333  -0.71364
 Alpha  occ. eigenvalues --   -0.68525  -0.67708  -0.65868  -0.63527  -0.61634
 Alpha  occ. eigenvalues --   -0.58824  -0.56751  -0.53166  -0.50814  -0.50419
 Alpha  occ. eigenvalues --   -0.49370  -0.48967  -0.48634  -0.46590  -0.45944
 Alpha  occ. eigenvalues --   -0.45184  -0.43504  -0.43159  -0.42847  -0.41245
 Alpha  occ. eigenvalues --   -0.40936  -0.39737  -0.39160  -0.38742  -0.38493
 Alpha  occ. eigenvalues --   -0.36795  -0.36581  -0.34618  -0.34202  -0.33925
 Alpha  occ. eigenvalues --   -0.33609  -0.32270  -0.31405  -0.30862  -0.28977
 Alpha  occ. eigenvalues --   -0.28015  -0.26637  -0.25628  -0.24570
 Alpha virt. eigenvalues --    0.05691   0.07155   0.08763   0.09740   0.10650
 Alpha virt. eigenvalues --    0.11060   0.11982   0.12431   0.13055   0.13898
 Alpha virt. eigenvalues --    0.14439   0.15070   0.15454   0.15592   0.15997
 Alpha virt. eigenvalues --    0.16735   0.16853   0.17353   0.17786   0.18134
 Alpha virt. eigenvalues --    0.18526   0.19117   0.19836   0.20346   0.20735
 Alpha virt. eigenvalues --    0.21838   0.22666   0.23283   0.23546   0.24105
 Alpha virt. eigenvalues --    0.25001   0.25568   0.26030   0.27558   0.28351
 Alpha virt. eigenvalues --    0.29228   0.30081   0.32994   0.40064   0.41697
 Alpha virt. eigenvalues --    0.43769   0.44815   0.44897   0.46142   0.46434
 Alpha virt. eigenvalues --    0.47256   0.48213   0.49102   0.49541   0.50725
 Alpha virt. eigenvalues --    0.51812   0.52380   0.53230   0.53913   0.54553
 Alpha virt. eigenvalues --    0.55429   0.56270   0.56978   0.59594   0.59928
 Alpha virt. eigenvalues --    0.60359   0.62095   0.62238   0.63238   0.63519
 Alpha virt. eigenvalues --    0.64382   0.65558   0.65999   0.67485   0.68462
 Alpha virt. eigenvalues --    0.69682   0.70498   0.71283   0.72312   0.72718
 Alpha virt. eigenvalues --    0.73319   0.73733   0.73761   0.74234   0.74735
 Alpha virt. eigenvalues --    0.75464   0.76209   0.76651   0.77055   0.77590
 Alpha virt. eigenvalues --    0.78003   0.79159   0.79745   0.80256   0.80980
 Alpha virt. eigenvalues --    0.81301   0.82001   0.83542   0.83976   0.85533
 Alpha virt. eigenvalues --    0.86263   0.86836   0.88505   0.88631   0.88972
 Alpha virt. eigenvalues --    0.89336   0.90133   0.91498   0.93295   0.94459
 Alpha virt. eigenvalues --    0.95259   0.96600   0.97161   0.98516   0.98660
 Alpha virt. eigenvalues --    1.00176   1.00458   1.02564   1.03769   1.04752
 Alpha virt. eigenvalues --    1.05773   1.08021   1.08596   1.10528   1.11832
 Alpha virt. eigenvalues --    1.14061   1.15427   1.16125   1.19162   1.20647
 Alpha virt. eigenvalues --    1.21265   1.22441   1.23371   1.25188   1.26468
 Alpha virt. eigenvalues --    1.28012   1.29046   1.30275   1.31476   1.32834
 Alpha virt. eigenvalues --    1.33715   1.34497   1.35100   1.36336   1.36830
 Alpha virt. eigenvalues --    1.37757   1.38638   1.40671   1.41251   1.42517
 Alpha virt. eigenvalues --    1.43102   1.43649   1.44896   1.45756   1.46053
 Alpha virt. eigenvalues --    1.47299   1.48985   1.49724   1.50801   1.52519
 Alpha virt. eigenvalues --    1.52711   1.54512   1.54817   1.56030   1.57243
 Alpha virt. eigenvalues --    1.57519   1.58427   1.59187   1.60579   1.62940
 Alpha virt. eigenvalues --    1.63215   1.64821   1.65466   1.66387   1.67773
 Alpha virt. eigenvalues --    1.68474   1.70093   1.71863   1.73205   1.74175
 Alpha virt. eigenvalues --    1.74797   1.75808   1.78308   1.78893   1.79107
 Alpha virt. eigenvalues --    1.80732   1.82411   1.84383   1.84988   1.86142
 Alpha virt. eigenvalues --    1.86834   1.87920   1.89844   1.90580   1.91003
 Alpha virt. eigenvalues --    1.92808   1.93984   1.94948   1.96468   1.96939
 Alpha virt. eigenvalues --    1.99161   2.00499   2.01425   2.05372   2.08521
 Alpha virt. eigenvalues --    2.10380   2.12548   2.15717   2.15846   2.18548
 Alpha virt. eigenvalues --    2.21859   2.23193   2.23932   2.25033   2.26386
 Alpha virt. eigenvalues --    2.28869   2.29231   2.29889   2.30384   2.31288
 Alpha virt. eigenvalues --    2.33327   2.36044   2.37495   2.42022   2.42808
 Alpha virt. eigenvalues --    2.43290   2.44493   2.47527   2.47852   2.51959
 Alpha virt. eigenvalues --    2.52714   2.54602   2.55390   2.57365   2.59327
 Alpha virt. eigenvalues --    2.60752   2.64711   2.65108   2.66159   2.67542
 Alpha virt. eigenvalues --    2.68629   2.68767   2.71914   2.73381   2.75017
 Alpha virt. eigenvalues --    2.75618   2.76831   2.78256   2.78825   2.79522
 Alpha virt. eigenvalues --    2.80093   2.80820   2.82422   2.82909   2.84154
 Alpha virt. eigenvalues --    2.86265   2.86862   2.88802   2.89380   2.89975
 Alpha virt. eigenvalues --    2.91812   2.92124   2.92785   2.93341   2.93799
 Alpha virt. eigenvalues --    2.95254   2.95887   2.96511   2.97239   2.98376
 Alpha virt. eigenvalues --    2.98947   3.00918   3.01512   3.03342   3.05057
 Alpha virt. eigenvalues --    3.06762   3.07663   3.11998   3.12564   3.13512
 Alpha virt. eigenvalues --    3.14151   3.15346   3.16821   3.19597   3.21161
 Alpha virt. eigenvalues --    3.23904   3.24981   3.26462   3.27062   3.29032
 Alpha virt. eigenvalues --    3.30986   3.33165   3.33863   3.36127   3.37091
 Alpha virt. eigenvalues --    3.37918   3.38549   3.39358   3.41024   3.41394
 Alpha virt. eigenvalues --    3.43151   3.44263   3.44882   3.45878   3.46763
 Alpha virt. eigenvalues --    3.48383   3.49014   3.49703   3.53312   3.53530
 Alpha virt. eigenvalues --    3.54692   3.55081   3.57551   3.58359   3.59541
 Alpha virt. eigenvalues --    3.61001   3.62799   3.64321   3.65569   3.67187
 Alpha virt. eigenvalues --    3.68089   3.69722   3.71622   3.73135   3.74166
 Alpha virt. eigenvalues --    3.76618   3.77124   3.79324   3.81038   3.83636
 Alpha virt. eigenvalues --    3.84551   3.87520   3.87728   3.89087   3.92121
 Alpha virt. eigenvalues --    3.94353   3.95707   3.97135   4.00221   4.01471
 Alpha virt. eigenvalues --    4.05174   4.07023   4.09554   4.14531   4.16550
 Alpha virt. eigenvalues --    4.20000   4.21375   4.23823   4.24456   4.25426
 Alpha virt. eigenvalues --    4.29817   4.30436   4.31476   4.31854   4.33865
 Alpha virt. eigenvalues --    4.34928   4.36117   4.36897   4.37416   4.39198
 Alpha virt. eigenvalues --    4.39595   4.40077   4.42021   4.42936   4.43823
 Alpha virt. eigenvalues --    4.44294   4.45326   4.46196   4.47585   4.48356
 Alpha virt. eigenvalues --    4.48520   4.49960   4.50998   4.52781   4.53494
 Alpha virt. eigenvalues --    4.55090   4.55462   4.56491   4.57866   4.58304
 Alpha virt. eigenvalues --    4.59838   4.60527   4.61301   4.62383   4.63128
 Alpha virt. eigenvalues --    4.63628   4.64392   4.65554   4.66522   4.66998
 Alpha virt. eigenvalues --    4.67716   4.68881   4.70777   4.71028   4.71375
 Alpha virt. eigenvalues --    4.71982   4.73048   4.73579   4.74684   4.76163
 Alpha virt. eigenvalues --    4.77544   4.78541   4.79647   4.79789   4.80971
 Alpha virt. eigenvalues --    4.81170   4.83009   4.84057   4.85228   4.85885
 Alpha virt. eigenvalues --    4.86110   4.86430   4.87035   4.88579   4.89147
 Alpha virt. eigenvalues --    4.91709   4.91962   4.95784   4.96082   4.97570
 Alpha virt. eigenvalues --    4.99028   5.02641   5.04949   5.07184   5.08195
 Alpha virt. eigenvalues --    5.10366   5.14890   5.17011   5.21605   5.24170
 Alpha virt. eigenvalues --    5.26625   5.29274   5.32055   5.35337   5.35505
 Alpha virt. eigenvalues --    5.37488   5.38262   5.40209   5.40623   5.41171
 Alpha virt. eigenvalues --    5.42398   5.45088   5.45288   5.48207   5.49614
 Alpha virt. eigenvalues --    5.50521   5.52544   5.58355   5.61382   5.65052
 Alpha virt. eigenvalues --    5.66585   5.68799   5.74140   5.78654   5.80500
 Alpha virt. eigenvalues --    5.82429   5.84071   5.87198   5.90026   5.92263
 Alpha virt. eigenvalues --    5.95101   5.96171   6.01545   6.02365   6.04182
 Alpha virt. eigenvalues --    6.08447   6.08821   6.11757   6.15054   6.16287
 Alpha virt. eigenvalues --    6.17695   6.21629   6.23772   6.27615   6.28711
 Alpha virt. eigenvalues --    6.41624   6.61976   6.87099   6.98974   7.10894
 Alpha virt. eigenvalues --    7.16098   7.24880   7.39932  11.14267  11.23521
 Alpha virt. eigenvalues --   11.24844  11.58268  11.83064  11.85466  12.01946
 Alpha virt. eigenvalues --   12.07185  12.46793  12.58723  12.75329  13.31320
 Alpha virt. eigenvalues --   13.43608  13.49669  13.67537  13.79012
          Condensed to atoms (all electrons):
               1          2          3          4          5          6
     1  C    4.832758   0.364213  -0.085517   0.002364  -0.000260   0.000082
     2  O    0.364213   7.686963   0.385061  -0.018507   0.001817  -0.000103
     3  C   -0.085517   0.385061   4.624613   0.370531  -0.068725   0.001771
     4  O    0.002364  -0.018507   0.370531   7.792441   0.321528  -0.040471
     5  C   -0.000260   0.001817  -0.068725   0.321528   4.649722   0.252830
     6  C    0.000082  -0.000103   0.001771  -0.040471   0.252830   5.310693
     7  C   -0.000038   0.000066  -0.005249   0.004538  -0.000699   0.349676
     8  O    0.000000  -0.000000   0.000062   0.000030   0.001161  -0.050370
     9  C   -0.000028   0.000005  -0.000142  -0.000010  -0.000002  -0.000169
    10  O   -0.000002  -0.000000  -0.000297  -0.000001   0.001470  -0.012751
    11  C    0.000000  -0.000000  -0.000003  -0.000000   0.000005   0.000129
    12  C    0.000000  -0.000000   0.000000   0.000000  -0.000001   0.000008
    13  C   -0.000000   0.000000  -0.000000   0.000000   0.000000   0.000028
    14  C   -0.000002  -0.000004   0.000435  -0.003230  -0.008760  -0.030604
    15  C    0.000001  -0.000016   0.000549  -0.001149  -0.082067  -0.015678
    16  O    0.000000  -0.000002   0.001727  -0.042931   0.392650  -0.031895
    17  H    0.388411  -0.017105   0.004288  -0.000035   0.000002   0.000000
    18  H    0.364904  -0.034203  -0.004979   0.000120  -0.000014   0.000028
    19  H    0.374520  -0.033877  -0.007128  -0.000223   0.000021  -0.000033
    20  H   -0.000239  -0.039172   0.361964  -0.038913  -0.003203  -0.007052
    21  H   -0.006237  -0.040225   0.339853  -0.040689  -0.006878   0.014096
    22  H    0.000004  -0.000073   0.000572  -0.034032   0.366760  -0.068127
    23  H   -0.000001  -0.000002  -0.000483   0.002119  -0.010464   0.336277
    24  H    0.000008  -0.000029   0.003685  -0.003272  -0.019936   0.340182
    25  H   -0.000093   0.000020  -0.006888   0.002331   0.001973  -0.069319
    26  H    0.000033  -0.000025  -0.000495  -0.000027   0.000149  -0.003309
    27  H   -0.000000   0.000000  -0.000000  -0.000000   0.000052   0.001021
    28  H   -0.000000   0.000000  -0.000000   0.000000  -0.000000  -0.000096
    29  H   -0.000000   0.000000   0.000000   0.000000  -0.000000  -0.000000
    30  H    0.000000   0.000000  -0.000000   0.000000  -0.000000   0.000035
    31  H    0.000000  -0.000000  -0.000000   0.000000   0.000000   0.000000
    32  H   -0.000000   0.000000   0.000000   0.000000  -0.000000  -0.000002
    33  H    0.000000   0.000000  -0.000000   0.000000  -0.000000  -0.000000
    34  H    0.000000   0.000000   0.000000   0.000000  -0.000000  -0.000005
    35  H   -0.000000   0.000000  -0.000015   0.000019   0.000251  -0.006965
    36  H   -0.000000  -0.000000  -0.000012   0.000019  -0.000022   0.006082
    37  H   -0.000000  -0.000000  -0.000008   0.000301   0.002507   0.000354
    38  H    0.000002   0.000044   0.000400   0.015981  -0.004611  -0.001551
               7          8          9         10         11         12
     1  C   -0.000038   0.000000  -0.000028  -0.000002   0.000000   0.000000
     2  O    0.000066  -0.000000   0.000005  -0.000000  -0.000000  -0.000000
     3  C   -0.005249   0.000062  -0.000142  -0.000297  -0.000003   0.000000
     4  O    0.004538   0.000030  -0.000010  -0.000001  -0.000000   0.000000
     5  C   -0.000699   0.001161  -0.000002   0.001470   0.000005  -0.000001
     6  C    0.349676  -0.050370  -0.000169  -0.012751   0.000129   0.000008
     7  C    4.593607   0.365755  -0.064348  -0.005295   0.001465   0.000684
     8  O    0.365755   7.770947   0.356991  -0.056957  -0.030658  -0.001111
     9  C   -0.064348   0.356991   4.612273   0.320748   0.428569  -0.029118
    10  O   -0.005295  -0.056957   0.320748   7.887835  -0.031342   0.003920
    11  C    0.001465  -0.030658   0.428569  -0.031342   4.715954   0.365260
    12  C    0.000684  -0.001111  -0.029118   0.003920   0.365260   5.039880
    13  C   -0.000160   0.001789  -0.028301  -0.015057   0.391565  -0.046297
    14  C    0.407665  -0.022130   0.001310  -0.000050  -0.000257   0.000004
    15  C   -0.019814   0.000955  -0.000098   0.000002   0.000001   0.000000
    16  O   -0.015587   0.000029   0.000005  -0.000004   0.000000   0.000000
    17  H    0.000000  -0.000000   0.000000  -0.000000  -0.000000  -0.000000
    18  H   -0.000107  -0.000001  -0.000116  -0.000003  -0.000000  -0.000000
    19  H    0.000004  -0.000000   0.000005   0.000000   0.000000  -0.000000
    20  H    0.001210  -0.000016   0.000093  -0.000094   0.000000  -0.000000
    21  H   -0.008139  -0.000091  -0.000529   0.000431   0.000022  -0.000002
    22  H    0.004354  -0.000046   0.000009   0.000008  -0.000000   0.000000
    23  H   -0.022766   0.001868   0.000680   0.000413  -0.000097  -0.000003
    24  H   -0.025438  -0.000012  -0.004201   0.020813   0.000303  -0.000015
    25  H    0.356536  -0.032498  -0.005037  -0.001341   0.000214  -0.000151
    26  H    0.000264  -0.034578   0.331338  -0.029323  -0.045726  -0.004930
    27  H    0.002210   0.006264  -0.061070   0.300815  -0.002530  -0.000262
    28  H    0.000208  -0.000626  -0.027957  -0.004086   0.342609  -0.037622
    29  H   -0.000035  -0.000076  -0.007091   0.000042  -0.028675   0.374040
    30  H   -0.000109   0.008020  -0.002981   0.000112  -0.021870   0.367940
    31  H   -0.000005   0.000146   0.002778  -0.000053  -0.017647   0.368311
    32  H    0.000006   0.000009  -0.005569   0.000283  -0.028950  -0.004285
    33  H   -0.000000  -0.000019   0.002548   0.000508  -0.022002  -0.003261
    34  H    0.000007   0.000156  -0.004099   0.014655  -0.021021   0.005269
    35  H   -0.027028   0.001207   0.000263  -0.000020   0.000008  -0.000003
    36  H   -0.022498   0.001350   0.000223   0.000003  -0.000001  -0.000008
    37  H    0.002799  -0.000025   0.000000  -0.000000  -0.000000   0.000000
    38  H   -0.008080   0.000035   0.000003  -0.000000   0.000000  -0.000000
              13         14         15         16         17         18
     1  C   -0.000000  -0.000002   0.000001   0.000000   0.388411   0.364904
     2  O    0.000000  -0.000004  -0.000016  -0.000002  -0.017105  -0.034203
     3  C   -0.000000   0.000435   0.000549   0.001727   0.004288  -0.004979
     4  O    0.000000  -0.003230  -0.001149  -0.042931  -0.000035   0.000120
     5  C    0.000000  -0.008760  -0.082067   0.392650   0.000002  -0.000014
     6  C    0.000028  -0.030604  -0.015678  -0.031895   0.000000   0.000028
     7  C   -0.000160   0.407665  -0.019814  -0.015587   0.000000  -0.000107
     8  O    0.001789  -0.022130   0.000955   0.000029  -0.000000  -0.000001
     9  C   -0.028301   0.001310  -0.000098   0.000005   0.000000  -0.000116
    10  O   -0.015057  -0.000050   0.000002  -0.000004  -0.000000  -0.000003
    11  C    0.391565  -0.000257   0.000001   0.000000  -0.000000  -0.000000
    12  C   -0.046297   0.000004   0.000000   0.000000  -0.000000  -0.000000
    13  C    5.020094   0.000002  -0.000000   0.000000   0.000000  -0.000000
    14  C    0.000002   5.056798   0.330817  -0.043452   0.000000   0.000003
    15  C   -0.000000   0.330817   4.802308   0.370314  -0.000000   0.000001
    16  O    0.000000  -0.043452   0.370314   7.702144  -0.000000  -0.000000
    17  H    0.000000   0.000000  -0.000000  -0.000000   0.556053  -0.034679
    18  H   -0.000000   0.000003   0.000001  -0.000000  -0.034679   0.635302
    19  H   -0.000000  -0.000000  -0.000000  -0.000000  -0.034453  -0.049717
    20  H   -0.000000  -0.000080   0.000083  -0.000225  -0.000331  -0.002247
    21  H   -0.000001   0.000344  -0.000516   0.000335   0.000022   0.016011
    22  H    0.000000  -0.000596   0.006361  -0.025433  -0.000000  -0.000000
    23  H    0.000005  -0.005734   0.000591  -0.000647  -0.000000   0.000001
    24  H    0.000005   0.005178  -0.000104   0.002748  -0.000001  -0.000016
    25  H    0.000025  -0.046673   0.001514  -0.000539   0.000001   0.000399
    26  H   -0.002560   0.000409   0.000020  -0.000000  -0.000002   0.000796
    27  H    0.000202   0.000012   0.000002   0.000001   0.000000   0.000000
    28  H   -0.043713   0.000001   0.000000  -0.000000   0.000000   0.000000
    29  H   -0.005498  -0.000001   0.000000  -0.000000   0.000000   0.000001
    30  H    0.005014   0.000032   0.000001   0.000000  -0.000000  -0.000000
    31  H   -0.003736  -0.000000   0.000000  -0.000000  -0.000000  -0.000000
    32  H    0.371882   0.000000   0.000000   0.000000   0.000000   0.000001
    33  H    0.370216  -0.000000   0.000000   0.000000  -0.000000  -0.000000
    34  H    0.364203   0.000000  -0.000000   0.000000   0.000000   0.000000
    35  H    0.000000   0.348866  -0.022738   0.000231   0.000000  -0.000000
    36  H    0.000000   0.342465  -0.019695   0.002529  -0.000000  -0.000000
    37  H    0.000000  -0.033535   0.373573  -0.017784  -0.000000  -0.000000
    38  H    0.000000  -0.043835   0.365426  -0.033695   0.000000  -0.000003
              19         20         21         22         23         24
     1  C    0.374520  -0.000239  -0.006237   0.000004  -0.000001   0.000008
     2  O   -0.033877  -0.039172  -0.040225  -0.000073  -0.000002  -0.000029
     3  C   -0.007128   0.361964   0.339853   0.000572  -0.000483   0.003685
     4  O   -0.000223  -0.038913  -0.040689  -0.034032   0.002119  -0.003272
     5  C    0.000021  -0.003203  -0.006878   0.366760  -0.010464  -0.019936
     6  C   -0.000033  -0.007052   0.014096  -0.068127   0.336277   0.340182
     7  C    0.000004   0.001210  -0.008139   0.004354  -0.022766  -0.025438
     8  O   -0.000000  -0.000016  -0.000091  -0.000046   0.001868  -0.000012
     9  C    0.000005   0.000093  -0.000529   0.000009   0.000680  -0.004201
    10  O    0.000000  -0.000094   0.000431   0.000008   0.000413   0.020813
    11  C    0.000000   0.000000   0.000022  -0.000000  -0.000097   0.000303
    12  C   -0.000000  -0.000000  -0.000002   0.000000  -0.000003  -0.000015
    13  C   -0.000000  -0.000000  -0.000001   0.000000   0.000005   0.000005
    14  C   -0.000000  -0.000080   0.000344  -0.000596  -0.005734   0.005178
    15  C   -0.000000   0.000083  -0.000516   0.006361   0.000591  -0.000104
    16  O   -0.000000  -0.000225   0.000335  -0.025433  -0.000647   0.002748
    17  H   -0.034453  -0.000331   0.000022  -0.000000  -0.000000  -0.000001
    18  H   -0.049717  -0.002247   0.016011  -0.000000   0.000001  -0.000016
    19  H    0.628163   0.012072  -0.003521   0.000001   0.000000   0.000065
    20  H    0.012072   0.697720  -0.081127   0.004865   0.000083   0.003649
    21  H   -0.003521  -0.081127   0.742346  -0.001193   0.000040  -0.004155
    22  H    0.000001   0.004865  -0.001193   0.663308  -0.002828  -0.001322
    23  H    0.000000   0.000083   0.000040  -0.002828   0.623513  -0.035197
    24  H    0.000065   0.003649  -0.004155  -0.001322  -0.035197   0.587523
    25  H   -0.000008   0.000534   0.003925  -0.000093   0.006919  -0.005265
    26  H    0.000003   0.000000   0.002865  -0.000000   0.000241  -0.001214
    27  H    0.000000   0.000006  -0.000022  -0.000004   0.001778  -0.002848
    28  H    0.000000   0.000000   0.000000   0.000000   0.000013  -0.000017
    29  H   -0.000000   0.000000  -0.000002   0.000000   0.000000  -0.000000
    30  H    0.000000   0.000000  -0.000000   0.000000   0.000000  -0.000001
    31  H    0.000000  -0.000000   0.000000   0.000000  -0.000000   0.000000
    32  H    0.000000   0.000000  -0.000002   0.000000  -0.000000  -0.000002
    33  H   -0.000000   0.000000  -0.000000  -0.000000  -0.000000   0.000000
    34  H   -0.000000   0.000000  -0.000000  -0.000000  -0.000001   0.000006
    35  H    0.000000   0.000001   0.000022  -0.000053   0.004155  -0.000096
    36  H    0.000000  -0.000000   0.000050   0.000021  -0.000100  -0.000142
    37  H    0.000000   0.000001  -0.000015  -0.000194  -0.000083   0.000020
    38  H    0.000000   0.000133  -0.000704   0.000496   0.000104   0.000090
              25         26         27         28         29         30
     1  C   -0.000093   0.000033  -0.000000  -0.000000  -0.000000   0.000000
     2  O    0.000020  -0.000025   0.000000   0.000000   0.000000   0.000000
     3  C   -0.006888  -0.000495  -0.000000  -0.000000   0.000000  -0.000000
     4  O    0.002331  -0.000027  -0.000000   0.000000   0.000000   0.000000
     5  C    0.001973   0.000149   0.000052  -0.000000  -0.000000  -0.000000
     6  C   -0.069319  -0.003309   0.001021  -0.000096  -0.000000   0.000035
     7  C    0.356536   0.000264   0.002210   0.000208  -0.000035  -0.000109
     8  O   -0.032498  -0.034578   0.006264  -0.000626  -0.000076   0.008020
     9  C   -0.005037   0.331338  -0.061070  -0.027957  -0.007091  -0.002981
    10  O   -0.001341  -0.029323   0.300815  -0.004086   0.000042   0.000112
    11  C    0.000214  -0.045726  -0.002530   0.342609  -0.028675  -0.021870
    12  C   -0.000151  -0.004930  -0.000262  -0.037622   0.374040   0.367940
    13  C    0.000025  -0.002560   0.000202  -0.043713  -0.005498   0.005014
    14  C   -0.046673   0.000409   0.000012   0.000001  -0.000001   0.000032
    15  C    0.001514   0.000020   0.000002   0.000000   0.000000   0.000001
    16  O   -0.000539  -0.000000   0.000001  -0.000000  -0.000000   0.000000
    17  H    0.000001  -0.000002   0.000000   0.000000   0.000000  -0.000000
    18  H    0.000399   0.000796   0.000000   0.000000   0.000001  -0.000000
    19  H   -0.000008   0.000003   0.000000   0.000000  -0.000000   0.000000
    20  H    0.000534   0.000000   0.000006   0.000000   0.000000   0.000000
    21  H    0.003925   0.002865  -0.000022   0.000000  -0.000002  -0.000000
    22  H   -0.000093  -0.000000  -0.000004   0.000000   0.000000   0.000000
    23  H    0.006919   0.000241   0.001778   0.000013   0.000000   0.000000
    24  H   -0.005265  -0.001214  -0.002848  -0.000017  -0.000000  -0.000001
    25  H    0.696484   0.012275   0.000332   0.000037   0.000026   0.000016
    26  H    0.012275   0.661194   0.008208   0.007205   0.005084   0.000396
    27  H    0.000332   0.008208   0.460794   0.006468   0.000026   0.000007
    28  H    0.000037   0.007205   0.006468   0.683557   0.006196  -0.002150
    29  H    0.000026   0.005084   0.000026   0.006196   0.606013  -0.030976
    30  H    0.000016   0.000396   0.000007  -0.002150  -0.030976   0.578959
    31  H   -0.000002  -0.000301  -0.000005  -0.003776  -0.031926  -0.030059
    32  H   -0.000001   0.005107   0.000107   0.006057   0.004873  -0.000035
    33  H    0.000000  -0.000165  -0.000087  -0.003048  -0.000073  -0.000063
    34  H    0.000000   0.000204   0.000218  -0.002269  -0.000031  -0.000205
    35  H    0.007162   0.000046   0.000020   0.000004   0.000000   0.000004
    36  H   -0.009008  -0.000030  -0.000003   0.000000   0.000000   0.000083
    37  H   -0.000215   0.000000   0.000000   0.000000   0.000000   0.000000
    38  H    0.003223   0.000000  -0.000000  -0.000000  -0.000000   0.000000
              31         32         33         34         35         36
     1  C    0.000000  -0.000000   0.000000   0.000000  -0.000000  -0.000000
     2  O   -0.000000   0.000000   0.000000   0.000000   0.000000  -0.000000
     3  C   -0.000000   0.000000  -0.000000   0.000000  -0.000015  -0.000012
     4  O    0.000000   0.000000   0.000000   0.000000   0.000019   0.000019
     5  C    0.000000  -0.000000  -0.000000  -0.000000   0.000251  -0.000022
     6  C    0.000000  -0.000002  -0.000000  -0.000005  -0.006965   0.006082
     7  C   -0.000005   0.000006  -0.000000   0.000007  -0.027028  -0.022498
     8  O    0.000146   0.000009  -0.000019   0.000156   0.001207   0.001350
     9  C    0.002778  -0.005569   0.002548  -0.004099   0.000263   0.000223
    10  O   -0.000053   0.000283   0.000508   0.014655  -0.000020   0.000003
    11  C   -0.017647  -0.028950  -0.022002  -0.021021   0.000008  -0.000001
    12  C    0.368311  -0.004285  -0.003261   0.005269  -0.000003  -0.000008
    13  C   -0.003736   0.371882   0.370216   0.364203   0.000000   0.000000
    14  C   -0.000000   0.000000  -0.000000   0.000000   0.348866   0.342465
    15  C    0.000000   0.000000   0.000000  -0.000000  -0.022738  -0.019695
    16  O   -0.000000   0.000000   0.000000   0.000000   0.000231   0.002529
    17  H   -0.000000   0.000000  -0.000000   0.000000   0.000000  -0.000000
    18  H   -0.000000   0.000001  -0.000000   0.000000  -0.000000  -0.000000
    19  H    0.000000   0.000000  -0.000000  -0.000000   0.000000   0.000000
    20  H   -0.000000   0.000000   0.000000   0.000000   0.000001  -0.000000
    21  H    0.000000  -0.000002  -0.000000  -0.000000   0.000022   0.000050
    22  H    0.000000   0.000000  -0.000000  -0.000000  -0.000053   0.000021
    23  H   -0.000000  -0.000000  -0.000000  -0.000001   0.004155  -0.000100
    24  H    0.000000  -0.000002   0.000000   0.000006  -0.000096  -0.000142
    25  H   -0.000002  -0.000001   0.000000   0.000000   0.007162  -0.009008
    26  H   -0.000301   0.005107  -0.000165   0.000204   0.000046  -0.000030
    27  H   -0.000005   0.000107  -0.000087   0.000218   0.000020  -0.000003
    28  H   -0.003776   0.006057  -0.003048  -0.002269   0.000004   0.000000
    29  H   -0.031926   0.004873  -0.000073  -0.000031   0.000000   0.000000
    30  H   -0.030059  -0.000035  -0.000063  -0.000205   0.000004   0.000083
    31  H    0.602019  -0.000170   0.003277  -0.000092  -0.000000   0.000000
    32  H   -0.000170   0.602276  -0.031247  -0.030158  -0.000000  -0.000000
    33  H    0.003277  -0.031247   0.603235  -0.030502   0.000000  -0.000000
    34  H   -0.000092  -0.030158  -0.030502   0.578232  -0.000000  -0.000000
    35  H   -0.000000  -0.000000   0.000000  -0.000000   0.622651  -0.037125
    36  H    0.000000  -0.000000  -0.000000  -0.000000  -0.037125   0.635522
    37  H   -0.000000   0.000000  -0.000000   0.000000  -0.005929   0.000311
    38  H    0.000000  -0.000000  -0.000000   0.000000   0.005620  -0.000299
              37         38
     1  C   -0.000000   0.000002
     2  O   -0.000000   0.000044
     3  C   -0.000008   0.000400
     4  O    0.000301   0.015981
     5  C    0.002507  -0.004611
     6  C    0.000354  -0.001551
     7  C    0.002799  -0.008080
     8  O   -0.000025   0.000035
     9  C    0.000000   0.000003
    10  O   -0.000000  -0.000000
    11  C   -0.000000   0.000000
    12  C    0.000000  -0.000000
    13  C    0.000000   0.000000
    14  C   -0.033535  -0.043835
    15  C    0.373573   0.365426
    16  O   -0.017784  -0.033695
    17  H   -0.000000   0.000000
    18  H   -0.000000  -0.000003
    19  H    0.000000   0.000000
    20  H    0.000001   0.000133
    21  H   -0.000015  -0.000704
    22  H   -0.000194   0.000496
    23  H   -0.000083   0.000104
    24  H    0.000020   0.000090
    25  H   -0.000215   0.003223
    26  H    0.000000   0.000000
    27  H    0.000000  -0.000000
    28  H    0.000000  -0.000000
    29  H    0.000000  -0.000000
    30  H    0.000000   0.000000
    31  H   -0.000000   0.000000
    32  H    0.000000  -0.000000
    33  H   -0.000000  -0.000000
    34  H    0.000000   0.000000
    35  H   -0.005929   0.005620
    36  H    0.000311  -0.000299
    37  H    0.608288  -0.041934
    38  H   -0.041934   0.627547
 Mulliken charges:
               1
     1  C   -0.234884
     2  O   -0.254845
     3  C    0.084430
     4  O   -0.288833
     5  C    0.212746
     6  C   -0.274791
     7  C    0.134342
     8  O   -0.287561
     9  C    0.183025
    10  O   -0.395380
    11  C    0.004673
    12  C   -0.398247
    13  C   -0.379706
    14  C   -0.255399
    15  C   -0.090644
    16  O   -0.260520
    17  H    0.137829
    18  H    0.108520
    19  H    0.114106
    20  H    0.090286
    21  H    0.073687
    22  H    0.087237
    23  H    0.099608
    24  H    0.139008
    25  H    0.083184
    26  H    0.086847
    27  H    0.278288
    28  H    0.073004
    29  H    0.108081
    30  H    0.127830
    31  H    0.111241
    32  H    0.109819
    33  H    0.110683
    34  H    0.125433
    35  H    0.109442
    36  H    0.100286
    37  H    0.111568
    38  H    0.115606
 Sum of Mulliken charges =  -0.00000
 Mulliken charges with hydrogens summed into heavy atoms:
               1
     1  C    0.125571
     2  O   -0.254845
     3  C    0.248402
     4  O   -0.288833
     5  C    0.299984
     6  C   -0.036176
     7  C    0.217526
     8  O   -0.287561
     9  C    0.269873
    10  O   -0.117092
    11  C    0.077677
    12  C   -0.051095
    13  C   -0.033771
    14  C   -0.045670
    15  C    0.136530
    16  O   -0.260520
 Electronic spatial extent (au):  <R**2>=           4636.4673
 Charge=             -0.0000 electrons
 Dipole moment (field-independent basis, Debye):
    X=              3.4371    Y=              0.4324    Z=             -0.2002  Tot=              3.4700
 Quadrupole moment (field-independent basis, Debye-Ang):
   XX=           -110.0532   YY=            -94.6114   ZZ=            -94.0274
   XY=              0.3892   XZ=              2.0739   YZ=             -1.5087
 Traceless Quadrupole moment (field-independent basis, Debye-Ang):
   XX=            -10.4892   YY=              4.9526   ZZ=              5.5366
   XY=              0.3892   XZ=              2.0739   YZ=             -1.5087
 Octapole moment (field-independent basis, Debye-Ang**2):
  XXX=             51.1875  YYY=             23.2089  ZZZ=             13.2799  XYY=             -4.8212
  XXY=            -11.6468  XXZ=              5.4326  XZZ=            -11.6244  YZZ=             -4.9667
  YYZ=            -10.3346  XYZ=            -14.7526
 Hexadecapole moment (field-independent basis, Debye-Ang**3):
 XXXX=          -3774.4000 YYYY=          -1612.5361 ZZZZ=           -570.1423 XXXY=             -8.5872
 XXXZ=             33.4517 YYYX=            -40.2566 YYYZ=            -24.4824 ZZZX=             19.0883
 ZZZY=            -20.3891 XXYY=           -951.2507 XXZZ=           -696.2593 YYZZ=           -367.2116
 XXYZ=              8.3715 YYXZ=             34.8727 ZZXY=            -16.4832
 N-N= 1.272053213741D+03 E-N=-4.432850278397D+03  KE= 8.027998592265D+02
 PrsmSu:  requested number of processors reduced to:  12 ShMem   1 Linda.
 Calling FoFJK, ICntrl=      2127 FMM=F ISym2X=0 I1Cent= 0 IOpClX= 0 NMat=1 NMatS=1 NMatT=0.
 ***** Axes restored to original set *****
 -------------------------------------------------------------------
 Center     Atomic                   Forces (Hartrees/Bohr)
 Number     Number              X              Y              Z
 -------------------------------------------------------------------
      1        6           0.012227802   -0.000363269    0.000906122
      2        8           0.011128922    0.002592368    0.004565666
      3        6          -0.002465364    0.000388641   -0.011737554
      4        8          -0.010293109   -0.002067140   -0.007188443
      5        6           0.016212879    0.011951385    0.003472084
      6        6          -0.012326700   -0.012114233   -0.004508104
      7        6           0.000010348    0.004463759    0.002150746
      8        8          -0.010864484   -0.000580001    0.000128199
      9        6           0.013566821    0.011338007    0.016515798
     10        8          -0.003870861   -0.005231520   -0.002254235
     11        6          -0.004604780    0.005842498   -0.008568698
     12        6           0.001581765    0.007266096   -0.002389928
     13        6           0.001171411   -0.004048599    0.006084526
     14        6          -0.003772139    0.010361745    0.003151000
     15        6          -0.000456043   -0.001759580   -0.000164866
     16        8          -0.006473100   -0.016640698   -0.005166446
     17        1           0.003492543   -0.002122434   -0.000264360
     18        1          -0.001983857    0.001780806    0.000798277
     19        1          -0.004602588   -0.000292741    0.001585975
     20        1           0.001021898   -0.004774788    0.005184560
     21        1          -0.005286186    0.006861629    0.005195350
     22        1           0.006990222    0.000088404   -0.003071621
     23        1           0.004256826   -0.003602631   -0.004174163
     24        1          -0.001653296    0.005416076    0.001016733
     25        1          -0.002661936   -0.008145626    0.001087054
     26        1           0.001269994   -0.005154017    0.002339576
     27        1          -0.001366811   -0.002097755    0.000360739
     28        1           0.003674920   -0.000987843   -0.000146422
     29        1          -0.001114795    0.000113439   -0.000578658
     30        1          -0.000619734   -0.000815068   -0.000210698
     31        1          -0.001236978    0.000132395   -0.001589228
     32        1          -0.001361815    0.000805502   -0.000386204
     33        1          -0.001273380    0.001837253   -0.002716633
     34        1          -0.000154925    0.001492605   -0.003563273
     35        1           0.001860861   -0.001069335    0.001338306
[...]
 -0.00000057,-0.00000588,-0.00000033,0.00000040,0.00000109,-0.00002016,
 0.00010117,0.00001864,-0.00000968,-0.00000698,0.00000343,-0.00002728,0
 .00021246,-0.00003138,-0.00103607,0.00054989,0.00003654,0.00124512,0.0
 0007019,-0.00079837,0.00008479,0.00009570,0.00024220,-0.00052443,-0.00
 194303,0.00122140,0.00007942,0.00023688,-0.00028581,0.00436636,0.01544
 520,-0.00717834,0.00105981,0.00618143,-0.00425109,0.07094697,-0.000014
 78,-0.00002851,0.00000534,-0.00000362,0.00005228,0.00000378,-0.0000101
 3,-0.00007621,-0.00000742,0.00002878,0.00006303,0.00002808,-0.00001125
 ,-0.00004219,-0.00006523,-0.00000893,0.00003695,0.00003545,0.00004081,
 -0.00017441,-0.00013287,-0.00040889,0.00030105,0.00040542,-0.00022968,
 -0.00061178,-0.00046548,0.00219101,-0.00130567,-0.00120561,-0.00009044
 ,0.00078856,-0.00042586,-0.00038879,0.00051423,-0.00064056,-0.05996268
 ,-0.24209370,0.10536219,-0.00001754,0.00004173,0.00005373,0.00000638,-
 0.00005624,-0.00001876,-0.00001146,0.00004718,0.00001026,-0.00000108,0
 .00000387,0.00000019,0.00000468,0.00000301,0.00000164,0.00000310,0.000
 00141,-0.00000315,-0.00000163,0.00000262,-0.00000131,0.00000193,0.0000
 0496,0.00000412,-0.00000712,0.00001045,0.00000920,-0.00000502,-0.00000
 144,-0.00000131,0.00001234,-0.00001122,-0.00000895,-0.00000058,0.00001
 025,0.00001698,-0.00003782,0.00001199,0.00003509,0.00017059,-0.0000695
 1,0.00013750,-0.00046460,0.00029585,-0.00012633,0.00010474,0.00002251,
 -0.00003202,0.00011620,0.00012406,0.00021690,0.00019637,0.00033098,0.0
 0001708,-0.00003423,-0.00136780,-0.00016097,-0.00575737,-0.01942239,0.
 01178139,0.06459306,0.26258168,-0.00000251,-0.00001599,-0.00000485,-0.
 00002589,0.00003194,0.00001457,0.00004260,-0.00002064,-0.00003681,-0.0
 0002958,0.00000279,0.00001773,0.00006169,-0.00002363,-0.00005599,0.000
 02368,0.00007199,0.00001813,0.00006015,-0.00001781,-0.00011470,-0.0004
 6930,-0.00047960,0.00021848,0.00083751,0.00258945,-0.00087273,-0.00142
 015,-0.00066178,0.00098104,0.00089343,0.00442354,-0.00426995,0.0018873
 9,-0.00064776,0.00033701,0.03053629,0.10321210,-0.10255023,0.00000542,
 0.00002015,-0.00000305,-0.00001337,0.00002790,-0.00001390,-0.00004863,
 -0.00004253,0.00005279,-0.00000299,0.00000339,0.00000111,0.00000275,0.
 00000098,-0.00000059,0.00000235,-0.00000014,0.00000300,-0.00000480,-0.
 00000773,0.00001675,-0.00000150,-0.00000015,-0.00000140,-0.00000437,0.
 00000142,0.00000338,-0.00000545,-0.00000280,-0.00000150,0.00001234,-0.
 00007381,-0.00000735,0.00000325,0.00000826,-0.00001061,0.00005896,-0.0
 0007607,-0.00001905,0.00013311,-0.00007612,0.00016253,0.00017366,-0.00
 048524,0.00049837,-0.00016779,-0.00035030,0.00046944,0.00019876,0.0006
 6845,0.00025273,-0.00007384,0.00028921,0.00006634,0.00742394,0.0237516
 4,-0.01233510,-0.00590221,-0.01727830,0.00978623,-0.03416906,-0.114826
 10,0.10737437,0.00001571,0.00003199,-0.00000859,0.00002943,-0.00009080
 ,-0.00000609,-0.00000090,0.00015325,-0.00003654,0.00015467,-0.00007980
 ,-0.00000292,-0.00013900,-0.00008425,0.00014034,0.00081680,0.00152498,
 -0.00067423,-0.02230121,-0.00744632,-0.02131137,0.00299258,0.00024074,
 -0.00042188,-0.00033540,0.00011452,-0.00010766,0.00022906,0.00023799,-
 0.00000862,0.00002135,-0.00004780,0.00009053,-0.00010976,0.00000918,0.
 00001857,0.00000682,0.00002108,-0.00000414,-0.15417476,-0.03602701,-0.
 12188458,0.01056579,0.00432345,0.01376879,0.00030583,-0.00174144,-0.00
 063855,0.00000158,-0.00000733,0.00000031,-0.00000585,-0.00000347,0.000
 00068,-0.00000433,-0.00000218,0.00000237,0.00000419,0.00002073,-0.0000
 0025,-0.00000061,-0.00000288,0.00001241,0.00004816,-0.00004176,-0.0000
 8736,0.00059232,-0.00059551,0.00062860,0.00017432,0.00026131,0.0003516
 9,-0.00343351,-0.00251576,0.00328973,0.00033075,0.00000430,0.00019010,
 -0.00003965,-0.00001933,0.00002541,-0.00001694,0.00002899,0.00006540,0
 .00005901,-0.00001543,0.00001368,-0.00002659,0.00004165,-0.00003932,0.
 00002161,0.00000799,0.00000718,0.00001333,-0.00000794,0.00000281,-0.00
 000593,0.00000578,0.00000414,0.00001216,0.00000358,-0.00000857,0.16960
 907,0.00000102,-0.00000560,-0.00000871,0.00001544,-0.00002385,0.000024
 47,0.00002816,0.00000730,0.00003716,0.00031377,0.00011081,0.00032031,-
 0.00064915,-0.00057708,-0.00020635,-0.00028981,0.00072649,-0.00122276,
 -0.01137968,-0.00445089,-0.01236233,0.00138192,0.00036412,0.00020252,0
 .00005558,0.00005112,-0.00002811,0.00004013,-0.00003003,0.00003901,-0.
 00000821,-0.00001496,0.00003308,0.00005717,-0.00000836,0.00000590,0.00
 000607,-0.00000201,-0.00000019,-0.03605050,-0.06104585,-0.03729727,-0.
 01248100,-0.00544801,-0.01585644,-0.00021992,0.00210895,0.00094194,-0.
 00000055,-0.00000330,-0.00000130,0.00000321,0.00000110,0.00000365,-0.0
 0000285,-0.00000085,0.00000228,-0.00001630,-0.00001640,0.00000326,0.00
 002064,0.00002708,0.00001106,0.00003143,-0.00005463,-0.00001103,-0.000
 00091,-0.00031439,0.00054600,0.00018051,0.00018570,0.00023463,-0.00236
 655,-0.00066819,0.00125313,0.00007799,-0.00004632,0.00003551,-0.000026
 04,0.00003206,0.00001089,-0.00000277,0.00002059,0.00000117,-0.00004167
 ,0.00000379,-0.00000810,0.00002928,-0.00002345,0.00001612,-0.00001049,
 0.00000437,-0.00001027,-0.00000305,-0.00000202,-0.00000170,-0.00000409
 ,0.00000280,0.00000095,-0.00000417,-0.00000345,0.00000055,0.04171369,0
 .06342864,0.00002524,0.00005013,-0.00001833,0.00000355,-0.00010438,0.0
 0002044,0.00008860,0.00018895,0.00002999,-0.00017812,-0.00016372,0.000
 18881,0.00036303,-0.00008921,-0.00052570,-0.00006274,-0.00032364,0.000
 76775,0.00962822,0.00300492,0.00875525,-0.00119888,0.00061522,0.001509
 79,0.00038381,0.00015224,0.00027821,-0.00007051,-0.00009840,-0.0000080
 3,-0.00007839,-0.00001143,-0.00003906,-0.00005250,-0.00000207,0.000004
 97,-0.00000365,0.00003340,0.00000538,-0.12185808,-0.03947516,-0.183031
 77,-0.01537558,-0.00434444,-0.02070323,0.00049374,0.00078633,0.0030255
 5,0.00000160,-0.00000960,-0.00000166,-0.00000546,-0.00000487,-0.000000
 02,-0.00000764,-0.00000459,0.00000797,-0.00001786,-0.00004762,0.000033
 58,0.00000282,-0.00000191,-0.00000701,-0.00010029,-0.00005042,0.000038
 67,0.00000065,-0.00018975,0.00002335,-0.00001781,-0.00018940,0.0000112
 5,0.00240224,0.00109203,-0.00055122,0.00000921,-0.00007606,-0.00018788
 ,0.00000839,0.00000532,-0.00001031,0.00000268,-0.00001919,-0.00000956,
 0.00002726,-0.00000235,0.00000420,-0.00001072,0.00000291,-0.00001287,0
 .00000466,0.00000693,0.00000771,0.00000004,-0.00000031,0.00000266,-0.0
 0001122,0.00000167,0.00000534,0.00000470,-0.00000113,-0.00000184,0.130
 94312,0.04496572,0.20139946,-0.00001104,-0.00002350,0.00001684,0.00004
 298,0.00001797,-0.00002901,-0.00007144,-0.00011563,0.00013335,0.000418
 02,0.00019738,-0.00008973,-0.00203007,-0.00044573,0.00110847,-0.004606
 41,-0.00176920,0.00224672,0.00708173,-0.02551269,0.01327493,0.00195957
 ,0.00035899,-0.00212086,-0.00026182,-0.00026277,0.00003406,0.00007433,
 0.00030521,-0.00008778,0.00000130,0.00004094,-0.00000381,0.00004881,-0
 .00000398,0.00003312,-0.00000627,-0.00001793,-0.00000232,-0.06791435,0
 .06446543,-0.03361318,-0.00395498,0.01008536,-0.00957122,-0.00019879,0
 .00440403,0.00234911,-0.00000089,0.00000040,-0.00000200,0.00000535,0.0
 0000383,-0.00000095,0.00000336,0.00000530,-0.00000728,0.00004756,0.000
 04231,-0.00005998,0.00002564,0.00002804,-0.00002163,0.00016458,0.00004
 563,-0.00018752,0.00003538,-0.00010087,0.00022948,0.00049264,-0.001561
 78,0.00066521,0.00141387,0.00055590,-0.00053370,-0.00003112,-0.0000269
 3,-0.00002701,0.00001980,-0.00004960,-0.00002026,0.00000121,-0.0000001
 7,-0.00001996,-0.00005980,0.00002216,-0.00001644,0.00000999,0.00003711
 ,0.00004732,-0.00000002,0.00000345,-0.00003168,-0.00000371,0.00000123,
 0.00000050,0.00000882,-0.00000230,-0.00000602,0.00000401,0.00000460,-0
 .00000436,-0.00594084,0.01767975,-0.00829079,0.07266343,0.00006806,0.0
 0014310,-0.00000227,-0.00001026,-0.00024322,-0.00006638,0.00007216,0.0
 0038420,0.00008227,-0.00045587,-0.00035070,-0.00032295,0.00117324,0.00
 143796,0.00004579,-0.00367527,0.00037303,0.00057273,0.00491903,-0.0152
 2085,0.00648662,0.00013755,0.00201533,-0.00091072,0.00004184,-0.000098
 40,0.00026468,-0.00004391,0.00029449,-0.00006329,-0.00009842,-0.000053
 90,0.00003899,-0.00001417,-0.00003859,0.00001386,0.00001058,0.00004370
 ,0.00002176,0.06176504,-0.23340778,0.09687879,0.00359355,-0.01531165,0
 .01127441,0.00196464,-0.00301007,-0.00328863,0.00000536,-0.00001948,0.
 00000030,-0.00002873,-0.00001980,-0.00001179,-0.00001159,-0.00000809,0
 .00000591,0.00002164,-0.00001699,-0.00001373,-0.00004041,-0.00006433,-
 0.00004825,-0.00001992,-0.00001777,0.00001336,0.00005588,0.00002474,0.
 00006954,0.00048197,-0.00082327,0.00030990,0.00000191,0.00053463,-0.00
 050173,-0.00005080,-0.00002725,-0.00003759,0.00005288,-0.00006333,-0.0
 0005654,-0.00000174,0.00000859,-0.00002249,-0.00004430,0.00002080,-0.0
 0002125,0.00005057,0.00001431,0.00003853,0.00002300,0.00001192,-0.0000
 3903,-0.00000918,-0.00000305,-0.00000478,-0.00001699,0.00000643,0.0000
 0509,0.00001912,0.00000539,-0.00001486,-0.00211559,0.00652350,-0.00328
 091,-0.06747192,0.25593619,-0.00000992,-0.00002057,-0.00000996,-0.0000
 4465,0.00005442,0.00002845,0.00005892,-0.00002638,-0.00009933,-0.00023
 918,-0.00001173,0.00011696,0.00163704,0.00033248,-0.00131947,0.0029645
 4,0.00116828,-0.00022370,-0.00458668,0.01110411,-0.00649821,-0.0009870
 3,-0.00065457,0.00105443,0.00036269,0.00028628,-0.00006043,-0.00010142
 ,-0.00039255,0.00007403,-0.00004066,0.00008064,-0.00006823,0.00022012,
 0.00004252,0.00002658,0.00001102,-0.00006069,0.00002573,-0.03357817,0.
 09732915,-0.09933862,0.00427167,-0.01782026,0.01165385,0.00280079,-0.0
 0583637,-0.00165242,-0.00000126,0.00000474,0.00000106,0.00000232,0.000
 00045,0.00000330,0.00000085,-0.00000149,0.00000274,-0.00003675,-0.0000
 2517,0.00004429,-0.00001763,-0.00001699,0.00001873,-0.00024162,-0.0000
 5018,0.00016062,0.00010480,-0.00048678,0.00029555,-0.00023522,0.001113
 09,0.00002370,0.00030934,-0.00073127,0.00065199,0.00000779,0.00001990,
 -0.00002279,-0.00004559,0.00006730,0.00001672,0.00000399,-0.00002154,0
 .00001854,0.00003068,-0.00001785,0.00000922,-0.00005213,-0.00012515,-0
 .00018730,-0.00008037,-0.00002040,0.00004977,0.00000335,0.00000760,-0.
 00000290,0.00000579,-0.00000027,-0.00000577,-0.00003639,-0.00001351,0.
 00001888,-0.00618630,0.02000650,-0.00991190,0.03469013,-0.10687659,0.1
 0385062,0.00005065,0.00007061,-0.00001310,0.00004090,-0.00026998,-0.00
 000446,0.00019939,0.00036902,0.00012912,0.00006325,-0.00044180,0.00034
 523,0.00057364,0.00243049,-0.00183753,0.00010837,0.00027181,-0.0002707
 5,0.00132987,0.00276486,0.00059286,-0.00146609,-0.00013329,0.00094281,
 0.00078465,0.00012985,0.00005570,-0.00024058,-0.00015463,0.00014988,-0
 .00010716,-0.00006360,-0.00002560,-0.00000314,0.00000257,0.00002794,0.
 00002058,0.00006189,0.00002581,-0.01098905,-0.00514584,0.00326838,-0.2
 5401893,-0.09182595,0.07242822,0.01152882,0.00452307,-0.00354462,0.000
 00162,-0.00002479,0.00000121,-0.00001560,-0.00000961,-0.00000272,-0.00
 000839,-0.00000604,0.00000127,-0.00002815,-0.00005381,0.00001115,0.000
 00104,-0.00000080,-0.00000650,0.00022091,0.00015066,-0.00018279,0.0000
 1162,-0.00003682,0.00004858,0.00002578,-0.00011892,-0.00002195,0.00031
 069,0.00014807,-0.00016649,-0.00003932,-0.00002520,-0.00003343,0.00004
 450,0.00001453,-0.00005235,0.00000293,0.00000314,-0.00000272,-0.000001
 90,-0.00000563,-0.00000794,-0.00000474,-0.00003984,-0.00000276,-0.0000
 1486,0.00003010,0.00000871,-0.00000456,-0.00000420,-0.00000573,-0.0000
 3122,0.00001426,0.00001467,0.00001038,-0.00001041,-0.00000802,0.001223
 22,0.00013007,0.00001339,-0.00008928,0.00039116,-0.00011621,0.26629347
 ,0.00007817,0.00018497,-0.00003499,-0.00004300,-0.00033546,-0.00008029
 ,0.00015678,0.00066761,-0.00000083,-0.00054015,-0.00018753,-0.00009768
 ,0.00451550,-0.00370884,0.00098737,-0.00014325,-0.00026277,-0.00005576
 ,-0.00003422,-0.00339657,-0.00194382,0.00194875,0.00029997,-0.00112626
 ,-0.00055597,-0.00030844,-0.00024578,0.00012996,0.00028150,-0.00009647
 ,0.00013962,0.00005620,0.00002037,0.00000170,0.00000524,-0.00001473,-0
 .00001287,-0.00005868,-0.00002414,0.01853566,0.01020646,-0.00773031,-0
 .08152048,-0.08069282,0.02748438,-0.02743731,-0.02566855,0.01790444,0.
 00000499,-0.00003269,0.00000247,-0.00003483,-0.00003048,-0.00000788,-0
 .00001219,-0.00001166,0.00001189,-0.00000529,-0.00006751,0.00003844,-0
 .00005879,-0.00011460,-0.00005671,-0.00114335,-0.00073126,0.00073497,-
 0.00003840,0.00007904,-0.00000540,-0.00010997,0.00024901,0.00006627,0.
 00001216,-0.00004901,0.00012603,0.00002999,0.00001429,0.00003089,0.000
 00022,-0.00004540,0.00001398,-0.00000460,0.00000165,0.00000049,-0.0000
 0016,0.00000163,0.00000390,0.00000432,0.00002062,0.00000134,0.00000692
 ,-0.00001514,-0.00000276,0.00000301,0.00000058,0.00000349,0.00002634,-
 0.00000465,-0.00000866,-0.00000192,0.00000737,-0.00000070,-0.00055404,
 0.00069023,0.00061111,-0.00061373,0.00046520,0.00090240,0.09334209,0.1
 0283605,0.00000859,-0.00004745,-0.00000717,0.00002291,-0.00005168,0.00
 006353,0.00020213,0.00003622,0.00013403,0.00019975,-0.00031315,0.00058
 507,-0.00275827,0.00165475,-0.00092899,-0.00011842,-0.00011496,0.00030
 356,-0.00059050,-0.00398801,-0.00103935,0.00205117,0.00007919,-0.00092
 301,-0.00064420,-0.00014390,-0.00027083,0.00025460,0.00015365,-0.00011
 972,0.00012777,0.00005159,0.00003459,0.00000854,-0.00000001,-0.0000299
 2,-0.00001708,-0.00005996,-0.00002936,0.02144432,0.00774158,-0.0082596
 2,0.06587175,0.02825503,-0.07356074,0.01330227,0.01322955,-0.00716900,
 -0.00000422,-0.00000400,0.00000088,0.00000638,0.00000812,0.00000276,-0
 .00000020,-0.00000031,0.00000040,-0.00006074,-0.00006055,0.00002441,0.
 00002950,0.00005185,0.00000428,0.00052823,0.00042988,-0.00022107,-0.00
 001393,0.00005932,-0.00002446,0.00002919,-0.00001919,-0.00003462,0.000
 30174,0.00009797,0.00012349,0.00004996,0.00000478,0.00003406,-0.000034
 95,-0.00000854,0.00005555,-0.00000397,0.00000246,0.00000081,-0.0000003
 6,0.00000044,0.00000618,0.00000360,0.00003036,0.00000633,0.00001050,-0
 .00002482,-0.00000230,0.00000366,0.00000168,0.00000491,0.00002993,-0.0
 0001046,-0.00001106,-0.00000983,0.00000891,0.00000660,-0.00048822,0.00
 092475,0.00074547,-0.00026784,-0.00018829,0.00053252,-0.07786019,-0.03
 822014,0.08098073,-0.00004672,-0.00010981,0.00000593,-0.00004771,0.000
 17776,0.00007661,0.00036956,-0.00033378,0.00019915,0.00064037,-0.00066
 247,0.00124383,-0.00280646,-0.00168790,0.00117316,0.00017124,0.0000511
 7,0.00020811,0.00150899,0.00049104,0.00039728,-0.00013614,-0.00018138,
 -0.00017302,-0.00009026,0.00005435,-0.00008701,0.00004112,-0.00009173,
 -0.00000126,0.00000946,0.00000554,-0.00000474,0.00001220,-0.00000113,-
 0.00001153,-0.00000306,-0.00001034,-0.00000450,0.00935328,0.00285396,0
 .01303973,-0.14327352,-0.02792105,-0.11483630,-0.00178407,0.00846328,-
 0.01035368,-0.00000580,0.00001603,-0.00000560,0.00002700,0.00001278,0.
 00000647,0.00000491,0.00000492,0.00000172,-0.00000490,0.00002913,0.000
 00083,0.00008258,0.00014060,-0.00001675,0.00007219,0.00009924,-0.00008
 888,-0.00004343,0.00001084,-0.00000174,0.00007398,-0.00010314,-0.00004
 619,-0.00008256,0.00010648,-0.00019626,-0.00002747,0.00000778,0.000005
 63,-0.00001700,0.00001927,0.00001658,0.00000383,-0.00000372,0.00000093
 ,0.00000216,0.00000055,0.00000335,-0.00000008,-0.00000072,-0.00000191,
 -0.00000216,-0.00000640,0.00000183,0.00000142,0.00000184,0.00000201,0.
 00000458,-0.00000364,-0.00000249,-0.00000646,-0.00000011,0.00000512,-0
 .00069247,0.00179189,0.00293329,0.00065845,-0.00074009,-0.00084867,-0.
 01578331,-0.00607166,-0.02161354,0.15181627,-0.00000808,0.00000560,0.0
 0000400,-0.00006084,0.00005892,-0.00005140,0.00015543,0.00002487,-0.00
 041304,-0.00205128,-0.00138847,-0.00095663,0.00594630,0.00424583,0.000
 07705,-0.00048979,-0.00048167,0.00003045,-0.00080223,-0.00034157,0.000
 74730,0.00032816,0.00005985,0.00007527,-0.00012580,-0.00006147,0.00008
 371,0.00002437,0.00011838,-0.00003221,0.00001039,0.00000606,0.00000424
 ,-0.00003459,0.00000170,-0.00000436,-0.00000495,-0.00000220,-0.0000069
 1,-0.01178802,-0.00279223,-0.01654369,-0.03327282,-0.05528844,-0.03955
 013,0.02270816,-0.01092705,0.03480229,0.00000172,0.00001057,0.00000334
 ,-0.00000747,-0.00000330,-0.00000459,0.00000704,0.00000341,-0.00000038
 ,0.00012054,0.00018937,-0.00001509,-0.00007550,-0.00011604,-0.00000687
 ,-0.00044172,-0.00022191,-0.00015366,0.00006001,-0.00010436,-0.0000472
 1,-0.00016595,0.00023458,0.00011853,0.00045174,0.00032009,0.00002734,0
 .00004379,0.00000172,-0.00000371,-0.00000123,-0.00002362,-0.00000094,-
 0.00000292,-0.00000347,0.00000714,0.00001403,-0.00000051,0.00000490,-0
 .00000058,0.00001871,-0.00000306,0.00001002,-0.00000289,-0.00000124,0.
 00000337,-0.00000022,0.00000266,0.00000405,-0.00000139,-0.00000190,0.0
 0000394,0.00000310,-0.00000174,0.00265342,-0.00154901,-0.00302631,-0.0
 0032627,0.00055502,0.00069046,-0.00647708,-0.00034555,-0.00956663,0.02
 359064,0.06779759,0.00005029,-0.00000265,-0.00003344,0.00001649,-0.000
 26294,0.00009302,0.00053582,0.00032097,0.00040489,0.00109387,-0.000677
 47,0.00154253,-0.00554559,-0.00254252,-0.00062191,0.00054755,0.0002510
 2,-0.00014963,-0.00194968,0.00006108,0.00006218,0.00052321,0.00001643,
 0.00047175,-0.00013045,0.00004362,-0.00007687,0.00012511,0.00001280,-0
 .00002703,0.00001748,-0.00000810,0.00001595,-0.00004117,-0.00000221,-0
 .00001270,-0.00000738,-0.00000066,-0.00001284,-0.01342311,-0.00628027,
 -0.01745623,-0.11141238,-0.03574968,-0.20033869,-0.00954038,0.01304286
 ,-0.01341957,-0.00000498,-0.00002877,-0.00000287,0.00000316,0.00000031
 ,0.00000610,-0.00000993,-0.00000368,0.00000724,-0.00011320,-0.00015476
 ,0.00006530,0.00005351,0.00009795,-0.00002604,0.00033289,0.00014109,0.
 00008637,0.00003432,-0.00002732,0.00024245,0.00012477,-0.00003229,-0.0
 0010958,0.00101953,0.00021393,-0.00011572,0.00006872,-0.00001769,0.000
 01517,-0.00002819,0.00000713,0.00002979,-0.00000145,0.00000154,0.00001
 554,0.00001742,-0.00000377,0.00000831,0.00000027,0.00002371,0.00000063
 ,0.00001256,-0.00000405,0.00000035,0.00000645,-0.00000253,0.00000545,0
 .00000530,-0.00000210,-0.00000053,0.00000036,0.00000336,0.00000015,0.0
 0235936,-0.00260595,-0.00184542,0.00018606,-0.00035046,0.00072274,0.00
 610091,0.00080905,0.00898102,0.12897249,0.03371302,0.22147216\\-0.0000
 0243,-0.00000235,0.00000198,0.00000295,-0.00000933,-0.00000041,-0.0000
 0884,0.00000902,-0.00000029,0.00000373,0.00000320,-0.00000423,-0.00000
 591,-0.00000737,0.00001029,-0.00000169,0.00000778,-0.00000312,-0.00000
 097,-0.00000483,-0.00000044,0.00000203,-0.00000211,0.00000517,-0.00000
 452,-0.00000143,0.00000353,-0.00000026,0.00000263,-0.00000379,0.000002
 46,0.00000135,-0.00000170,0.00000023,0.00000173,-0.00000022,-0.0000019
 0,-0.00000010,-0.00000088,0.00000314,0.00000106,-0.00000107,-0.0000029
 1,-0.00000010,-0.00000088,0.00000533,-0.00000065,0.00000024,0.00000143
 ,-0.00000010,-0.00000096,0.00000173,0.00000060,0.00000072,0.00000128,0
 .00000115,-0.00000087,-0.00000019,-0.00000083,0.00000204,0.00000512,-0
 .00000014,0.00000183,0.00000051,0.00000219,-0.00000336,0.00000041,0.00
 000020,-0.00000103,-0.00000221,-0.00000173,0.00000103,0.00000067,0.000
 00022,0.00000144,0.00000035,-0.00000130,-0.00000010,0.00000108,0.00000
 045,-0.00000159,-0.00000103,0.,-0.00000059,0.00000029,0.00000019,-0.00
 000073,-0.00000035,-0.00000005,-0.00000056,-0.00000031,-0.00000010,-0.
 00000051,0.00000004,0.00000048,-0.00000084,-0.00000031,0.00000043,-0.0
 0000092,-0.00000004,0.00000009,-0.00000075,-0.00000028,0.00000035,0.00
 000071,0.00000040,0.00000024,0.00000007,0.00000055,-0.00000102,0.00000
 053,0.00000042,0.00000019,0.00000027\\\@


 The cat could very well be man's best friend
 but would never stoop to admitting it.
                               -- Doug Larson
 Job cpu time:       0 days 13 hours  9 minutes  9.2 seconds.
 Elapsed time:       0 days  3 hours 17 minutes 21.9 seconds.
 File lengths (MBytes):  RWF=    865 Int=      0 D2E=      0 Chk=     26 Scr=      1
 Normal termination of Gaussian 16 at Mon May 22 18:04:39 2023.
### All Done ###
