### Starting Gaussian ###
 Entering Gaussian System, Link 0=g16
 Initial command:
 /cluster/software/gaussian/gaussian-16-A.03/avx2/g16/l1.exe "/local/scratch/yxie/Gau-18854.inp" -scrdir="/local/scratch/yxie/"
 Entering Link 1 = /cluster/software/gaussian/gaussian-16-A.03/avx2/g16/l1.exe PID=     18858.
  
 Copyright (c) 1988,1990,1992,1993,1995,1998,2003,2009,2016,
            Gaussian, Inc.  All Rights Reserved.
  
 This is part of the Gaussian(R) 16 program.  It is based on
 the Gaussian(R) 09 system (copyright 2009, Gaussian, Inc.),
 the Gaussian(R) 03 system (copyright 2003, Gaussian, Inc.),
 the Gaussian(R) 98 system (copyright 1998, Gaussian, Inc.),
 the Gaussian(R) 94 system (copyright 1995, Gaussian, Inc.),
 the Gaussian 92(TM) system (copyright 1992, Gaussian, Inc.),
 the Gaussian 90(TM) system (copyright 1990, Gaussian, Inc.),
 the Gaussian 88(TM) system (copyright 1988, Gaussian, Inc.),
 the Gaussian 86(TM) system (copyright 1986, Carnegie Mellon
 University), and the Gaussian 82(TM) system (copyright 1983,
 Carnegie Mellon University). Gaussian is a federally registered
 trademark of Gaussian, Inc.
  
 This software contains proprietary and confidential information,
 including trade secrets, belonging to Gaussian, Inc.
  
 This software is provided under written license and may be
 used, copied, transmitted, or stored only in accord with that
 written license.
  
 The following legend is applicable only to US Government
 contracts under FAR:
  
                    RESTRICTED RIGHTS LEGEND
  
 Use, reproduction and disclosure by the US Government is
 subject to restrictions as set forth in subparagraphs (a)
 and (c) of the Commercial Computer Software - Restricted
 Rights clause in FAR 52.227-19.
  
 Gaussian, Inc.
 340 Quinnipiac St., Bldg. 40, Wallingford CT 06492
  
  
 ---------------------------------------------------------------
 Warning -- This program may not be used in any manner that
 competes with the business of Gaussian, Inc. or will provide
 assistance to any competitor of Gaussian, Inc.  The licensee
 of this program is prohibited from giving any competitor of
 Gaussian, Inc. access to this program.  By using this program,
 the user acknowledges that Gaussian, Inc. is engaged in the
 business of creating and licensing software in the field of
 computational chemistry and represents and warrants to the
 licensee that it is not a competitor of Gaussian, Inc. and that
 it will not use this program in any manner prohibited above.
 ---------------------------------------------------------------
  

 Cite this work as:
 Gaussian 16, Revision A.03,
 M. J. Frisch, G. W. Trucks, H. B. Schlegel, G. E. Scuseria, 
 M. A. Robb, J. R. Cheeseman, G. Scalmani, V. Barone, 
 G. A. Petersson, H. Nakatsuji, X. Li, M. Caricato, A. V. Marenich, 
 J. Bloino, B. G. Janesko, R. Gomperts, B. Mennucci, H. P. Hratchian, 
 J. V. Ortiz, A. F. Izmaylov, J. L. Sonnenberg, D. Williams-Young, 
 F. Ding, F. Lipparini, F. Egidi, J. Goings, B. Peng, A. Petrone, 
 T. Henderson, D. Ranasinghe, V. G. Zakrzewski, J. Gao, N. Rega, 
 G. Zheng, W. Liang, M. Hada, M. Ehara, K. Toyota, R. Fukuda, 
 J. Hasegawa, M. Ishida, T. Nakajima, Y. Honda, O. Kitao, H. Nakai, 
 T. Vreven, K. Throssell, J. A. Montgomery, Jr., J. E. Peralta, 
 F. Ogliaro, M. J. Bearpark, J. J. Heyd, E. N. Brothers, K. N. Kudin, 
 V. N. Staroverov, T. A. Keith, R. Kobayashi, J. Normand, 
 K. Raghavachari, A. P. Rendell, J. C. Burant, S. S. Iyengar, 
 J. Tomasi, M. Cossi, J. M. Millam, M. Klene, C. Adamo, R. Cammi, 
 J. W. Ochterski, R. L. Martin, K. Morokuma, O. Farkas, 
 J. B. Foresman, and D. J. Fox, Gaussian, Inc., Wallingford CT, 2016.
 
 ******************************************
 Gaussian 16:  ES64L-G16RevA.03 25-Dec-2016
                23-May-2023 
 ******************************************
 %chk=COCqCOrCCCCCqOrCCqCrC.chk
 %NProcShared=20
 Will use up to   20 processors via shared memory.
 -----------------------------
 # opt freq b3lyp/6-31g(2df,p)
 -----------------------------
 1/18=20,19=15,26=3,38=1/1,3;
 2/9=110,12=2,17=6,18=5,40=1/2;
 3/5=1,6=6,7=104,11=2,25=1,30=1,71=1,74=-5/1,2,3;
 4//1;
 5/5=2,38=5/2;
 6/7=2,8=2,9=2,10=2,28=1/1;
 7//1,2,3,16;
 1/18=20,19=15,26=3/3(2);
 2/9=110/2;
 99//99;
 2/9=110/2;
 3/5=1,6=6,7=104,11=2,25=1,30=1,71=1,74=-5/1,2,3;
 4/5=5,16=3,69=1/1;
 5/5=2,38=5/2;
 7//1,2,3,16;
 1/18=20,19=15,26=3/3(-5);
 2/9=110/2;
 6/7=2,8=2,9=2,10=2,19=2,28=1/1;
 99/9=1/99;
 -------------------
 Title Card Required
 -------------------
 Symbolic Z-matrix:
 Charge =  0 Multiplicity = 1
 C                     0.89969   0.18518   0.14955 
 O                     2.30782   0.07748  -0.00829 
 C                     2.72965  -1.14729  -0.62803 
 C                     2.23378  -1.27751  -2.08785 
 O                     0.82306  -1.46218  -2.18903 
 C                     4.2643   -1.14755  -0.57821 
 C                     4.84072  -2.42266  -1.17712 
 C                     6.35     -2.40948  -1.17687 
 C                     6.86123  -3.69129  -1.83372 
 C                     8.37921  -3.7079   -1.79239 
 O                     8.75099  -3.58956  -0.42177 
 C                     8.94163  -4.98993  -2.40703 
 C                     10.48154  -5.02926  -2.42802 
 C                     11.10753  -4.95988  -1.03361 
 C                     10.95045  -6.31019  -3.11661 
 H                     0.68195   1.06437   0.75936 
 H                     0.49502  -0.70103   0.64875 
 H                     0.41391   0.34172  -0.81519 
 H                     2.35574  -1.98208  -0.02129 
 H                     2.6594   -2.15051  -2.58278 
 H                     2.50826  -0.38688  -2.66066 
 H                     0.56669  -2.12385  -1.52991 
 H                     4.60238  -1.03697   0.46183 
 H                     4.65629  -0.26712  -1.1048 
 H                     4.53485  -2.5423   -2.21845 
 H                     4.46959  -3.29209  -0.62148 
 H                     6.7099   -2.3198   -0.14594 
 H                     6.72331  -1.53988  -1.73165 
 H                     6.50101  -3.76662  -2.86736 
 H                     6.46287  -4.55478  -1.28443 
 H                     8.77269  -2.83756  -2.32927 
 H                     8.4846   -4.40323   0.03169 
 H                     8.5679   -5.08171  -3.4367 
 H                     8.56456  -5.86051  -1.85493 
 H                     10.84191  -4.17288  -3.01211 
 H                     10.68956  -5.73278  -0.37906 
 H                     10.95266  -3.98524  -0.56467 
 H                     12.19122  -5.09335  -1.08032 
 H                     10.60146  -7.19625  -2.575 
 H                     12.04383  -6.34587  -3.15665 
 H                     10.57341  -6.36635  -4.1425 
 

 GradGradGradGradGradGradGradGradGradGradGradGradGradGradGradGradGradGrad
 Berny optimization.
 Initialization pass.
                           ----------------------------
                           !    Initial Parameters    !
                           ! (Angstroms and Degrees)  !
 --------------------------                            --------------------------
 ! Name  Definition              Value          Derivative Info.                !
 --------------------------------------------------------------------------------
 ! R1    R(1,2)                  1.421          estimate D2E/DX2                !
 ! R2    R(1,16)                 1.0919         estimate D2E/DX2                !
 ! R3    R(1,17)                 1.0947         estimate D2E/DX2                !
 ! R4    R(1,18)                 1.0914         estimate D2E/DX2                !
 ! R5    R(2,3)                  1.436          estimate D2E/DX2                !
 ! R6    R(3,4)                  1.5472         estimate D2E/DX2                !
 ! R7    R(3,6)                  1.5355         estimate D2E/DX2                !
 ! R8    R(3,19)                 1.0976         estimate D2E/DX2                !
 ! R9    R(4,5)                  1.4263         estimate D2E/DX2                !
 ! R10   R(4,20)                 1.0901         estimate D2E/DX2                !
 ! R11   R(4,21)                 1.0939         estimate D2E/DX2                !
 ! R12   R(5,22)                 0.9685         estimate D2E/DX2                !
 ! R13   R(6,7)                  1.5221         estimate D2E/DX2                !
 ! R14   R(6,23)                 1.0992         estimate D2E/DX2                !
 ! R15   R(6,24)                 1.0982         estimate D2E/DX2                !
 ! R16   R(7,8)                  1.5093         estimate D2E/DX2                !
 ! R17   R(7,25)                 1.0919         estimate D2E/DX2                !
 ! R18   R(7,26)                 1.0965         estimate D2E/DX2                !
 ! R19   R(8,9)                  1.5283         estimate D2E/DX2                !
 ! R20   R(8,27)                 1.0956         estimate D2E/DX2                !
 ! R21   R(8,28)                 1.097          estimate D2E/DX2                !
 ! R22   R(9,10)                 1.5186         estimate D2E/DX2                !
 ! R23   R(9,29)                 1.0972         estimate D2E/DX2                !
 ! R24   R(9,30)                 1.0982         estimate D2E/DX2                !
 ! R25   R(10,11)                1.4251         estimate D2E/DX2                !
 ! R26   R(10,12)                1.529          estimate D2E/DX2                !
 ! R27   R(10,31)                1.0957         estimate D2E/DX2                !
 ! R28   R(11,32)                0.9688         estimate D2E/DX2                !
 ! R29   R(12,13)                1.5406         estimate D2E/DX2                !
 ! R30   R(12,33)                1.0992         estimate D2E/DX2                !
 ! R31   R(12,34)                1.0977         estimate D2E/DX2                !
 ! R32   R(13,14)                1.5301         estimate D2E/DX2                !
 ! R33   R(13,15)                1.528          estimate D2E/DX2                !
 ! R34   R(13,35)                1.0975         estimate D2E/DX2                !
 ! R35   R(14,36)                1.0957         estimate D2E/DX2                !
 ! R36   R(14,37)                1.0926         estimate D2E/DX2                !
 ! R37   R(14,38)                1.0929         estimate D2E/DX2                !
 ! R38   R(15,39)                1.0956         estimate D2E/DX2                !
 ! R39   R(15,40)                1.0947         estimate D2E/DX2                !
 ! R40   R(15,41)                1.0944         estimate D2E/DX2                !
 ! A1    A(2,1,16)             108.7029         estimate D2E/DX2                !
 ! A2    A(2,1,17)             110.8307         estimate D2E/DX2                !
 ! A3    A(2,1,18)             110.7159         estimate D2E/DX2                !
 ! A4    A(16,1,17)            108.8718         estimate D2E/DX2                !
 ! A5    A(16,1,18)            106.823          estimate D2E/DX2                !
 ! A6    A(17,1,18)            110.7731         estimate D2E/DX2                !
 ! A7    A(1,2,3)              113.8075         estimate D2E/DX2                !
 ! A8    A(2,3,4)              112.6333         estimate D2E/DX2                !
 ! A9    A(2,3,6)              106.2448         estimate D2E/DX2                !
 ! A10   A(2,3,19)             108.0613         estimate D2E/DX2                !
 ! A11   A(4,3,6)              110.5436         estimate D2E/DX2                !
 ! A12   A(4,3,19)             110.3868         estimate D2E/DX2                !
 ! A13   A(6,3,19)             108.8084         estimate D2E/DX2                !
 ! A14   A(3,4,5)              113.2537         estimate D2E/DX2                !
 ! A15   A(3,4,20)             111.756          estimate D2E/DX2                !
 ! A16   A(3,4,21)             110.1884         estimate D2E/DX2                !
 ! A17   A(5,4,20)             104.494          estimate D2E/DX2                !
 ! A18   A(5,4,21)             108.4471         estimate D2E/DX2                !
 ! A19   A(20,4,21)            108.4405         estimate D2E/DX2                !
 ! A20   A(4,5,22)             107.577          estimate D2E/DX2                !
 ! A21   A(3,6,7)              111.4612         estimate D2E/DX2                !
 ! A22   A(3,6,23)             109.7608         estimate D2E/DX2                !
 ! A23   A(3,6,24)             109.9407         estimate D2E/DX2                !
 ! A24   A(7,6,23)             109.8828         estimate D2E/DX2                !
 ! A25   A(7,6,24)             110.3498         estimate D2E/DX2                !
 ! A26   A(23,6,24)            105.2634         estimate D2E/DX2                !
 ! A27   A(6,7,8)              111.7958         estimate D2E/DX2                !
 ! A28   A(6,7,25)             111.1589         estimate D2E/DX2                !
 ! A29   A(6,7,26)             109.6739         estimate D2E/DX2                !
 ! A30   A(8,7,25)             106.3337         estimate D2E/DX2                !
 ! A31   A(8,7,26)             110.1992         estimate D2E/DX2                !
 ! A32   A(25,7,26)            107.5519         estimate D2E/DX2                !
 ! A33   A(7,8,9)              109.0923         estimate D2E/DX2                !
 ! A34   A(7,8,27)             109.2292         estimate D2E/DX2                !
 ! A35   A(7,8,28)             110.3122         estimate D2E/DX2                !
 ! A36   A(9,8,27)             111.2951         estimate D2E/DX2                !
 ! A37   A(9,8,28)             109.4914         estimate D2E/DX2                !
 ! A38   A(27,8,28)            107.4096         estimate D2E/DX2                !
 ! A39   A(8,9,10)             109.38           estimate D2E/DX2                !
 ! A40   A(8,9,29)             110.6492         estimate D2E/DX2                !
 ! A41   A(8,9,30)             108.8533         estimate D2E/DX2                !
 ! A42   A(10,9,29)            110.6743         estimate D2E/DX2                !
 ! A43   A(10,9,30)            109.8996         estimate D2E/DX2                !
 ! A44   A(29,9,30)            107.3452         estimate D2E/DX2                !
 ! A45   A(9,10,11)            106.621          estimate D2E/DX2                !
 ! A46   A(9,10,12)            111.4641         estimate D2E/DX2                !
 ! A47   A(9,10,31)            109.6903         estimate D2E/DX2                !
 ! A48   A(11,10,12)           111.1189         estimate D2E/DX2                !
 ! A49   A(11,10,31)           108.1567         estimate D2E/DX2                !
 ! A50   A(12,10,31)           109.6922         estimate D2E/DX2                !
 ! A51   A(10,11,32)           107.9801         estimate D2E/DX2                !
 ! A52   A(10,12,13)           113.2395         estimate D2E/DX2                !
 ! A53   A(10,12,33)           108.754          estimate D2E/DX2                !
 ! A54   A(10,12,34)           109.6618         estimate D2E/DX2                !
 ! A55   A(13,12,33)           108.9628         estimate D2E/DX2                !
 ! A56   A(13,12,34)           109.2673         estimate D2E/DX2                !
 ! A57   A(33,12,34)           106.7458         estimate D2E/DX2                !
 ! A58   A(12,13,14)           113.2899         estimate D2E/DX2                !
 ! A59   A(12,13,15)           109.5293         estimate D2E/DX2                !
 ! A60   A(12,13,35)           108.3946         estimate D2E/DX2                !
 ! A61   A(14,13,15)           108.8538         estimate D2E/DX2                !
 ! A62   A(14,13,35)           108.3795         estimate D2E/DX2                !
 ! A63   A(15,13,35)           108.2727         estimate D2E/DX2                !
 ! A64   A(13,14,36)           110.8777         estimate D2E/DX2                !
 ! A65   A(13,14,37)           111.9378         estimate D2E/DX2                !
 ! A66   A(13,14,38)           111.174          estimate D2E/DX2                !
 ! A67   A(36,14,37)           108.5889         estimate D2E/DX2                !
 ! A68   A(36,14,38)           108.5208         estimate D2E/DX2                !
 ! A69   A(37,14,38)           105.5355         estimate D2E/DX2                !
 ! A70   A(13,15,39)           110.9441         estimate D2E/DX2                !
 ! A71   A(13,15,40)           110.5065         estimate D2E/DX2                !
 ! A72   A(13,15,41)           111.083          estimate D2E/DX2                !
 ! A73   A(39,15,40)           108.0526         estimate D2E/DX2                !
 ! A74   A(39,15,41)           108.1899         estimate D2E/DX2                !
 ! A75   A(40,15,41)           107.947          estimate D2E/DX2                !
 ! D1    D(16,1,2,3)           171.4303         estimate D2E/DX2                !
 ! D2    D(17,1,2,3)            51.8152         estimate D2E/DX2                !
 ! D3    D(18,1,2,3)           -71.524          estimate D2E/DX2                !
 ! D4    D(1,2,3,4)             64.6352         estimate D2E/DX2                !
 ! D5    D(1,2,3,6)           -174.2003         estimate D2E/DX2                !
 ! D6    D(1,2,3,19)           -57.5698         estimate D2E/DX2                !
 ! D7    D(2,3,4,5)            -69.1787         estimate D2E/DX2                !
 ! D8    D(2,3,4,20)           173.1247         estimate D2E/DX2                !
 ! D9    D(2,3,4,21)            52.4865         estimate D2E/DX2                !
 ! D10   D(6,3,4,5)            172.1414         estimate D2E/DX2                !
 ! D11   D(6,3,4,20)            54.4448         estimate D2E/DX2                !
 ! D12   D(6,3,4,21)           -66.1934         estimate D2E/DX2                !
 ! D13   D(19,3,4,5)            51.7052         estimate D2E/DX2                !
 ! D14   D(19,3,4,20)          -65.9914         estimate D2E/DX2                !
 ! D15   D(19,3,4,21)          173.3704         estimate D2E/DX2                !
 ! D16   D(2,3,6,7)            178.4975         estimate D2E/DX2                !
 ! D17   D(2,3,6,23)            56.5237         estimate D2E/DX2                !
 ! D18   D(2,3,6,24)           -58.811          estimate D2E/DX2                !
 ! D19   D(4,3,6,7)            -59.0058         estimate D2E/DX2                !
 ! D20   D(4,3,6,23)           179.0203         estimate D2E/DX2                !
 ! D21   D(4,3,6,24)            63.6857         estimate D2E/DX2                !
 ! D22   D(19,3,6,7)            62.3692         estimate D2E/DX2                !
 ! D23   D(19,3,6,23)          -59.6047         estimate D2E/DX2                !
 ! D24   D(19,3,6,24)         -174.9394         estimate D2E/DX2                !
 ! D25   D(3,4,5,22)           -45.0304         estimate D2E/DX2                !
 ! D26   D(20,4,5,22)           76.8246         estimate D2E/DX2                !
 ! D27   D(21,4,5,22)         -167.6668         estimate D2E/DX2                !
 ! D28   D(3,6,7,8)            177.9674         estimate D2E/DX2                !
 ! D29   D(3,6,7,25)            59.3111         estimate D2E/DX2                !
 ! D30   D(3,6,7,26)           -59.492          estimate D2E/DX2                !
 ! D31   D(23,6,7,8)           -60.1293         estimate D2E/DX2                !
 ! D32   D(23,6,7,25)         -178.7856         estimate D2E/DX2                !
 ! D33   D(23,6,7,26)           62.4113         estimate D2E/DX2                !
 ! D34   D(24,6,7,8)            55.5108         estimate D2E/DX2                !
 ! D35   D(24,6,7,25)          -63.1455         estimate D2E/DX2                !
 ! D36   D(24,6,7,26)          178.0514         estimate D2E/DX2                !
 ! D37   D(6,7,8,9)           -178.0212         estimate D2E/DX2                !
 ! D38   D(6,7,8,27)            60.1251         estimate D2E/DX2                !
 ! D39   D(6,7,8,28)           -57.7149         estimate D2E/DX2                !
 ! D40   D(25,7,8,9)           -56.5355         estimate D2E/DX2                !
 ! D41   D(25,7,8,27)         -178.3893         estimate D2E/DX2                !
 ! D42   D(25,7,8,28)           63.7707         estimate D2E/DX2                !
 ! D43   D(26,7,8,9)            59.7386         estimate D2E/DX2                !
 ! D44   D(26,7,8,27)          -62.1151         estimate D2E/DX2                !
 ! D45   D(26,7,8,28)         -179.9552         estimate D2E/DX2                !
 ! D46   D(7,8,9,10)          -177.9932         estimate D2E/DX2                !
 ! D47   D(7,8,9,29)            59.831          estimate D2E/DX2                !
 ! D48   D(7,8,9,30)           -57.9012         estimate D2E/DX2                !
 ! D49   D(27,8,9,10)          -57.3976         estimate D2E/DX2                !
 ! D50   D(27,8,9,29)         -179.5734         estimate D2E/DX2                !
 ! D51   D(27,8,9,30)           62.6943         estimate D2E/DX2                !
 ! D52   D(28,8,9,10)           61.1973         estimate D2E/DX2                !
 ! D53   D(28,8,9,29)          -60.9786         estimate D2E/DX2                !
 ! D54   D(28,8,9,30)         -178.7108         estimate D2E/DX2                !
 ! D55   D(8,9,10,11)           57.1252         estimate D2E/DX2                !
 ! D56   D(8,9,10,12)          178.552          estimate D2E/DX2                !
 ! D57   D(8,9,10,31)          -59.7615         estimate D2E/DX2                !
 ! D58   D(29,9,10,11)         179.286          estimate D2E/DX2                !
 ! D59   D(29,9,10,12)         -59.2872         estimate D2E/DX2                !
 ! D60   D(29,9,10,31)          62.3993         estimate D2E/DX2                !
 ! D61   D(30,9,10,11)         -62.3234         estimate D2E/DX2                !
 ! D62   D(30,9,10,12)          59.1034         estimate D2E/DX2                !
 ! D63   D(30,9,10,31)        -179.2101         estimate D2E/DX2                !
 ! D64   D(9,10,11,32)          68.0143         estimate D2E/DX2                !
 ! D65   D(12,10,11,32)        -53.6317         estimate D2E/DX2                !
 ! D66   D(31,10,11,32)       -174.0844         estimate D2E/DX2                !
 ! D67   D(9,10,12,13)         178.1198         estimate D2E/DX2                !
 ! D68   D(9,10,12,33)          56.836          estimate D2E/DX2                !
 ! D69   D(9,10,12,34)         -59.5512         estimate D2E/DX2                !
 ! D70   D(11,10,12,13)        -63.1063         estimate D2E/DX2                !
 ! D71   D(11,10,12,33)        175.6099         estimate D2E/DX2                !
 ! D72   D(11,10,12,34)         59.2227         estimate D2E/DX2                !
 ! D73   D(31,10,12,13)         56.4345         estimate D2E/DX2                !
 ! D74   D(31,10,12,33)        -64.8494         estimate D2E/DX2                !
 ! D75   D(31,10,12,34)        178.7634         estimate D2E/DX2                !
 ! D76   D(10,12,13,14)         60.944          estimate D2E/DX2                !
 ! D77   D(10,12,13,15)       -177.3218         estimate D2E/DX2                !
 ! D78   D(10,12,13,35)        -59.3818         estimate D2E/DX2                !
 ! D79   D(33,12,13,14)       -177.8898         estimate D2E/DX2                !
 ! D80   D(33,12,13,15)        -56.1556         estimate D2E/DX2                !
 ! D81   D(33,12,13,35)         61.7844         estimate D2E/DX2                !
 ! D82   D(34,12,13,14)        -61.6043         estimate D2E/DX2                !
 ! D83   D(34,12,13,15)         60.13           estimate D2E/DX2                !
 ! D84   D(34,12,13,35)        178.0699         estimate D2E/DX2                !
 ! D85   D(12,13,14,36)         53.3449         estimate D2E/DX2                !
 ! D86   D(12,13,14,37)        -68.0833         estimate D2E/DX2                !
 ! D87   D(12,13,14,38)        174.1639         estimate D2E/DX2                !
 ! D88   D(15,13,14,36)        -68.7668         estimate D2E/DX2                !
 ! D89   D(15,13,14,37)        169.8051         estimate D2E/DX2                !
 ! D90   D(15,13,14,38)         52.0522         estimate D2E/DX2                !
 ! D91   D(35,13,14,36)        173.6793         estimate D2E/DX2                !
 ! D92   D(35,13,14,37)         52.2511         estimate D2E/DX2                !
 ! D93   D(35,13,14,38)        -65.5018         estimate D2E/DX2                !
 ! D94   D(12,13,15,39)        -61.203          estimate D2E/DX2                !
 ! D95   D(12,13,15,40)        178.9679         estimate D2E/DX2                !
 ! D96   D(12,13,15,41)         59.1808         estimate D2E/DX2                !
 ! D97   D(14,13,15,39)         63.1593         estimate D2E/DX2                !
 ! D98   D(14,13,15,40)        -56.6698         estimate D2E/DX2                !
 ! D99   D(14,13,15,41)       -176.457          estimate D2E/DX2                !
 ! D100  D(35,13,15,39)       -179.219          estimate D2E/DX2                !
 ! D101  D(35,13,15,40)         60.9519         estimate D2E/DX2                !
 ! D102  D(35,13,15,41)        -58.8353         estimate D2E/DX2                !
 --------------------------------------------------------------------------------
 Trust Radius=3.00D-01 FncErr=1.00D-07 GrdErr=1.00D-06 EigMax=2.50D+02 EigMin=1.00D-04
 Number of steps in this run=    227 maximum allowed number of steps=    246.
 GradGradGradGradGradGradGradGradGradGradGradGradGradGradGradGradGradGrad

                          Input orientation:                          
 ---------------------------------------------------------------------
 Center     Atomic      Atomic             Coordinates (Angstroms)
 Number     Number       Type             X           Y           Z
 ---------------------------------------------------------------------
      1          6           0        0.899690    0.185180    0.149550
      2          8           0        2.307820    0.077480   -0.008290
      3          6           0        2.729650   -1.147290   -0.628030
      4          6           0        2.233780   -1.277510   -2.087850
      5          8           0        0.823060   -1.462180   -2.189030
      6          6           0        4.264300   -1.147550   -0.578210
      7          6           0        4.840720   -2.422660   -1.177120
      8          6           0        6.350000   -2.409480   -1.176870
      9          6           0        6.861230   -3.691290   -1.833720
     10          6           0        8.379210   -3.707900   -1.792390
     11          8           0        8.750990   -3.589560   -0.421770
     12          6           0        8.941630   -4.989930   -2.407030
     13          6           0       10.481540   -5.029260   -2.428020
     14          6           0       11.107530   -4.959880   -1.033610
     15          6           0       10.950450   -6.310190   -3.116610
     16          1           0        0.681950    1.064370    0.759360
     17          1           0        0.495020   -0.701030    0.648750
     18          1           0        0.413910    0.341720   -0.815190
     19          1           0        2.355740   -1.982080   -0.021290
     20          1           0        2.659400   -2.150510   -2.582780
     21          1           0        2.508260   -0.386880   -2.660660
     22          1           0        0.566690   -2.123850   -1.529910
     23          1           0        4.602380   -1.036970    0.461830
     24          1           0        4.656290   -0.267120   -1.104800
     25          1           0        4.534850   -2.542300   -2.218450
     26          1           0        4.469590   -3.292090   -0.621480
     27          1           0        6.709900   -2.319800   -0.145940
     28          1           0        6.723310   -1.539880   -1.731650
     29          1           0        6.501010   -3.766620   -2.867360
     30          1           0        6.462870   -4.554780   -1.284430
     31          1           0        8.772690   -2.837560   -2.329270
     32          1           0        8.484600   -4.403230    0.031690
     33          1           0        8.567900   -5.081710   -3.436700
     34          1           0        8.564560   -5.860510   -1.854930
     35          1           0       10.841910   -4.172880   -3.012110
     36          1           0       10.689560   -5.732780   -0.379060
     37          1           0       10.952660   -3.985240   -0.564670
     38          1           0       12.191220   -5.093350   -1.080320
     39          1           0       10.601460   -7.196250   -2.575000
     40          1           0       12.043830   -6.345870   -3.156650
     41          1           0       10.573410   -6.366350   -4.142500
 ---------------------------------------------------------------------
                    Distance matrix (angstroms):
                    1          2          3          4          5
     1  C    0.000000
     2  O    1.421036   0.000000
     3  C    2.393504   1.435994   0.000000
     4  C    2.987510   2.483153   1.547229   0.000000
     5  O    2.861577   3.054618   2.484142   1.426349   0.000000
     6  C    3.691396   2.377671   1.535458   2.533558   3.812593
     7  C    4.908421   3.745991   2.526793   2.989470   4.253008
     8  C    6.180415   4.887716   3.873149   4.365147   5.698150
     9  C    7.382434   6.186224   4.999558   5.225343   6.446291
    10  C    8.652770   7.373865   6.311100   6.615165   7.892781
    11  O    8.730291   7.425132   6.501058   7.113046   8.396489
    12  C    9.899023   8.685622   7.517940   7.673278   8.854588
    13  C   11.209197   9.936981   8.854460   9.067353  10.298903
    14  C   11.492237  10.191230   9.213534   9.665129  10.924249
    15  C   12.404653  11.187450  10.021483  10.117636  11.266216
    16  H    1.091904   2.051022   3.318037   3.999898   3.885405
    17  H    1.094681   2.079429   2.612066   3.293113   2.956341
    18  H    1.091426   2.075525   2.759498   2.748362   2.304104
    19  H    2.616540   2.060158   1.097641   2.186770   2.705273
    20  H    4.002206   3.422798   2.198280   1.090063   2.000245
    21  H    3.288165   2.700162   2.181472   1.093925   2.053924
    22  H    2.874560   3.192603   2.538790   1.951096   0.968490
    23  H    3.911660   2.593842   2.169581   3.488408   4.635852
    24  H    3.986228   2.614650   2.171163   2.802825   4.159011
    25  H    5.124545   4.087507   2.781049   2.629006   3.865865
    26  H    5.042825   4.050093   2.761811   3.347778   4.370694
    27  H    6.334097   5.014400   4.177270   4.989292   6.290041
    28  H    6.358404   5.008231   4.161902   4.511274   5.918461
    29  H    7.489543   6.366650   5.108683   5.001255   6.165200
    30  H    7.447986   6.352228   5.096938   5.410285   6.495378
    31  H    8.790087   7.461833   6.501505   6.726766   8.068950
    32  H    8.865566   7.630922   6.644985   7.303104   8.501798
    33  H    9.970093   8.806806   7.579805   7.510820   8.639457
    34  H    9.965869   8.821372   7.600388   7.819010   8.909980
    35  H   11.306481   9.995959   8.980356   9.128928  10.411662
    36  H   11.451779  10.205398   9.189607   9.709254  10.902378
    37  H   10.907095   9.568099   8.699188   9.255849  10.564714
    38  H   12.524939  11.205727  10.261445  10.711039  11.985395
    39  H   12.491318  11.326059  10.116620  10.260939  11.342206
    40  H   13.333320  12.081452  10.962349  11.093588  12.275683
    41  H   12.446891  11.266526  10.055578   9.983352  11.087662
                    6          7          8          9         10
     6  C    0.000000
     7  C    1.522123   0.000000
     8  C    2.510180   1.509338   0.000000
     9  C    3.845902   2.474471   1.528347   0.000000
    10  C    4.996210   3.814618   2.486454   1.518633   0.000000
    11  O    5.110604   4.149990   2.779841   2.361174   1.425070
    12  C    6.323439   4.992095   3.858570   2.518574   1.528954
    13  C    7.559335   6.338609   5.049579   3.905125   2.563164
    14  C    7.846722   6.762469   5.399922   4.503394   3.096277
    15  C    8.820483   7.496887   6.335793   5.022565   3.890597
    16  H    4.417569   5.762352   6.924118   8.217291   9.409240
    17  H    3.989020   5.018259   6.366512   7.458749   8.784127
    18  H    4.135165   5.231581   6.552639   7.672712   8.988901
    19  H    2.156201   2.775820   4.179970   5.148373   6.511332
    20  H    2.756798   2.609234   3.957799   4.537672   5.980502
    21  H    2.828231   3.433025   4.588192   5.527323   6.800818
    22  H    3.940966   4.298963   5.801112   6.493874   7.975812
    23  H    1.099186   2.159421   2.761032   4.173412   5.145855
    24  H    1.098230   2.164624   2.731951   4.137393   5.115846
    25  H    2.170003   1.091897   2.096974   2.623021   4.039710
    26  H    2.154778   1.096532   2.150209   2.710872   4.102323
    27  H    2.746268   2.137229   1.095622   2.180020   2.724741
    28  H    2.744281   2.151964   1.096971   2.158241   2.728737
    29  H    4.135530   2.723913   2.173106   1.097199   2.164866
    30  H    4.116026   2.681198   2.150958   1.098192   2.155827
    31  H    5.123273   4.118250   2.716745   2.151303   1.095700
    32  H    5.364920   4.319924   3.161040   2.573314   1.954957
    33  H    6.493809   5.105695   4.143275   2.723148   2.150980
    34  H    6.506477   5.113240   4.156158   2.758133   2.161480
    35  H    7.638157   6.514963   5.162842   4.179276   2.787259
    36  H    7.896073   6.767771   5.523822   4.576006   3.381621
    37  H    7.265454   6.338183   4.903294   4.293797   2.864762
    38  H    8.868907   7.821241   6.429023   5.562569   4.118001
    39  H    8.985184   7.611002   6.553079   5.179147   4.209449
    40  H    9.705255   8.437708   7.199611   5.971288   4.716941
    41  H    8.930000   7.563723   6.502997   5.125104   4.171916
                   11         12         13         14         15
    11  O    0.000000
    12  C    2.436932   0.000000
    13  C    3.015390   1.540555   0.000000
    14  C    2.793816   2.564821   1.530051   0.000000
    15  C    4.416063   2.506381   1.528010   2.487348   0.000000
    16  H    9.389544  10.719276  11.971787  12.173703  13.223062
    17  H    8.811961   9.953777  11.310644  11.558266  12.448158
    18  H    9.225868  10.182458  11.524141  11.937679  12.671350
    19  H    6.606330   7.623179   9.005903   9.299780  10.108540
    20  H    6.621805   6.896347   8.336488   9.036780   9.291363
    21  H    7.364881   7.914584   9.229247   9.874567  10.322987
    22  H    8.388030   8.895132  10.370741  10.926971  11.307764
    23  H    4.950498   6.533402   7.671645   7.742257   8.995003
    24  H    5.317114   6.508831   7.639530   7.977817   8.954470
    25  H    4.701133   5.044419   6.449187   7.102722   7.494238
    26  H    4.296366   5.105878   6.513439   6.856648   7.572064
    27  H    2.419591   4.150029   5.174392   5.205490   6.536846
    28  H    3.166774   4.156913   5.175422   5.604020   6.522475
    29  H    3.327863   2.768577   4.199035   5.099660   5.131217
    30  H    2.628940   2.755692   4.205073   4.669035   5.155262
    31  H    2.050495   2.160390   2.780912   3.410932   4.173931
    32  H    0.968839   2.549598   3.229529   2.885218   4.430429
    33  H    3.368952   1.099235   2.163840   3.498486   2.699660
    34  H    2.691824   1.097682   2.166615   2.820000   2.736151
    35  H    3.379655   2.155170   1.097458   2.145783   2.142614
    36  H    2.890202   2.778443   2.176339   1.095677   2.809919
    37  H    2.241503   2.906533   2.187237   1.092617   3.452216
    38  H    3.811857   3.511508   2.177937   1.092877   2.677067
    39  H    4.590082   2.766062   2.175277   2.762850   1.095554
    40  H    5.091130   3.467585   2.169127   2.702762   1.094695
    41  H    4.987545   2.751199   2.176164   3.453786   1.094424
                   16         17         18         19         20
    16  H    0.000000
    17  H    1.778711   0.000000
    18  H    1.753076   1.799174   0.000000
    19  H    3.562562   2.356336   3.130659   0.000000
    20  H    5.041395   4.150701   3.791808   2.584920   0.000000
    21  H    4.139815   3.886389   2.884947   3.087750   1.771807
    22  H    3.926677   2.603097   2.571615   2.344511   2.342793
    23  H    4.458018   4.125312   4.590735   2.484759   3.779523
    24  H    4.587302   4.536451   4.295620   3.067183   3.117556
    25  H    6.059724   5.285011   5.221959   3.144818   1.950269
    26  H    5.935628   4.911648   5.448912   2.558264   2.902876
    27  H    6.971969   6.471220   6.868120   4.369016   4.730053
    28  H    7.034577   6.720236   6.647469   4.711320   4.196743
    29  H    8.387671   7.604787   7.625133   5.335538   4.177411
    30  H    8.316908   7.362324   7.796526   5.008276   4.683227
    31  H    9.498672   9.052800   9.070252   6.872835   6.156998
    32  H    9.555391   8.827255   9.400415   6.589970   6.770757
    33  H   10.842944  10.052495  10.137725   7.737161   6.650676
    34  H   10.813141   9.899804  10.294747   7.546781   7.011760
    35  H   12.036509  11.511463  11.573731   9.260653   8.439655
    36  H   12.151111  11.415058  11.944821   9.145945   9.064905
    37  H   11.521246  11.028176  11.395201   8.843921   8.730244
    38  H   13.182004  12.612821  12.973639  10.370063  10.088275
    39  H   13.332385  12.438673  12.794690  10.084687   9.409350
    40  H   14.118750  13.405980  13.618419  11.078458  10.295528
    41  H   13.307322  12.515026  12.620802  10.185102   9.101516
                   21         22         23         24         25
    21  H    0.000000
    22  H    2.839957   0.000000
    23  H    3.815482   4.629809   0.000000
    24  H    2.655010   4.511429   1.746398   0.000000
    25  H    2.991396   4.049133   3.074814   2.536022   0.000000
    26  H    4.055282   4.174046   2.505346   3.069022   1.765434
    27  H    5.264387   6.300222   2.540999   3.057813   3.012581
    28  H    4.467563   6.187543   3.092348   2.507076   2.455846
    29  H    5.235210   6.301081   4.705241   4.330832   2.405375
    30  H    5.907989   6.382368   4.345783   4.656182   2.939342
    31  H    6.734889   8.275675   5.331402   5.005121   4.249558
    32  H    7.687422   8.386147   5.156390   5.749345   4.911895
    33  H    7.704733   8.740946   6.876322   6.627121   4.919169
    34  H    8.202963   8.833696   6.658287   6.864640   5.232707
    35  H    9.160078  10.581852   7.799611   7.560072   6.562598
    36  H   10.035837  10.808392   7.733789   8.173156   7.172376
    37  H    9.415374  10.595510   7.076161   7.332151   6.782724
    38  H   10.881546  12.006238   8.742021   8.948087   8.150043
    39  H   10.577086  11.292390   9.118554   9.247669   7.654419
    40  H   11.255339  12.336794   9.831225   9.784531   8.469483
    41  H   10.148722  11.178501   9.233382   9.024441   7.401995
                   26         27         28         29         30
    26  H    0.000000
    27  H    2.488067   0.000000
    28  H    3.063000   1.767182   0.000000
    29  H    3.065261   3.089183   2.509507   0.000000
    30  H    2.450929   2.520381   3.058996   1.768705   0.000000
    31  H    4.651861   3.047968   2.498216   2.512613   3.061993
    32  H    4.216820   2.742589   3.796088   3.569929   2.417133
    33  H    5.284349   4.680749   4.342150   2.515083   3.056317
    34  H    4.988683   4.347072   4.698217   3.109281   2.539193
    35  H    6.862752   5.359323   5.053230   4.362271   4.722999
    36  H    6.686087   5.247902   5.927989   5.253701   4.480211
    37  H    6.520267   4.577121   5.022851   5.016708   4.582646
    38  H    7.942206   6.213736   6.553581   6.110009   5.757231
    39  H    7.527186   6.695098   6.909834   5.353646   5.076501
    40  H    8.551127   7.329695   7.310000   6.120382   6.153074
    41  H    7.687996   6.875592   6.627992   4.996901   5.324180
                   31         32         33         34         35
    31  H    0.000000
    32  H    2.847534   0.000000
    33  H    2.510886   3.535110   0.000000
    34  H    3.067009   2.385245   1.763104   0.000000
    35  H    2.555586   3.856772   2.485432   3.061615   0.000000
    36  H    3.982463   2.607349   3.778160   2.590392   3.064221
    37  H    3.030388   2.573263   3.890743   3.299156   2.457120
    38  H    4.281917   3.930886   4.322165   3.786980   2.529766
    39  H    4.733177   4.367710   3.057642   2.540013   3.064253
    40  H    4.867561   5.158244   3.709261   3.746381   2.487446
    41  H    4.356920   5.063677   2.484054   3.086151   2.482173
                   36         37         38         39         40
    36  H    0.000000
    37  H    1.776955   0.000000
    38  H    1.776406   1.740067   0.000000
    39  H    2.640390   3.804649   3.030444   0.000000
    40  H    3.150386   3.671728   2.429337   1.772539   0.000000
    41  H    3.818165   4.314439   3.689822   1.773859   1.770439
                   41
    41  H    0.000000
 Stoichiometry    C12H26O3
 Framework group  C1[X(C12H26O3)]
 Deg. of freedom   117
 Full point group                 C1      NOp   1
 Largest Abelian subgroup         C1      NOp   1
 Largest concise Abelian subgroup C1      NOp   1
                         Standard orientation:                         
 ---------------------------------------------------------------------
 Center     Atomic      Atomic             Coordinates (Angstroms)
 Number     Number       Type             X           Y           Z
 ---------------------------------------------------------------------
      1          6           0        6.041042   -0.797365    0.209140
      2          8           0        4.736033   -1.120892   -0.250888
      3          6           0        3.720927   -0.209332    0.197104
      4          6           0        3.912942    1.219063   -0.365689
      5          8           0        5.052344    1.887728    0.172012
      6          6           0        2.380689   -0.796299   -0.268583
      7          6           0        1.209243    0.066029    0.179705
      8          6           0       -0.108714   -0.477496   -0.315946
      9          6           0       -1.233324    0.458421    0.125818
     10          6           0       -2.567575   -0.108260   -0.326833
     11          8           0       -2.667393   -1.414204    0.234745
     12          6           0       -3.731914    0.775043    0.122378
     13          6           0       -5.103730    0.261778   -0.355104
     14          6           0       -5.446275   -1.131910    0.175322
     15          6           0       -6.194777    1.238298    0.081748
     16          1           0        6.715737   -1.616773   -0.047006
     17          1           0        6.047914   -0.659340    1.295062
     18          1           0        6.419024    0.092885   -0.296623
     19          1           0        3.738095   -0.193445    1.294496
     20          1           0        3.073117    1.867786   -0.116511
     21          1           0        4.013123    1.185531   -1.454501
     22          1           0        5.053162    1.740469    1.129240
     23          1           0        2.265473   -1.816613    0.123710
     24          1           0        2.378836   -0.904809   -1.361438
     25          1           0        1.291841    1.080037   -0.216783
     26          1           0        1.201527    0.138387    1.273820
     27          1           0       -0.253896   -1.488658    0.080111
     28          1           0       -0.102725   -0.551411   -1.410408
     29          1           0       -1.081551    1.465405   -0.282587
     30          1           0       -1.215193    0.542970    1.220600
     31          1           0       -2.576698   -0.204317   -1.418276
     32          1           0       -2.753948   -1.320929    1.195191
     33          1           0       -3.575414    1.791052   -0.266920
     34          1           0       -3.735394    0.852931    1.217287
     35          1           0       -5.096182    0.222414   -1.451830
     36          1           0       -5.355794   -1.167465    1.266678
     37          1           0       -4.800138   -1.901879   -0.253009
     38          1           0       -6.464685   -1.419047   -0.098124
     39          1           0       -6.231377    1.321779    1.173503
     40          1           0       -7.175544    0.897920   -0.265519
     41          1           0       -6.018396    2.236245   -0.331478
 ---------------------------------------------------------------------
 Rotational constants (GHZ):           1.8908149           0.1374099           0.1304467
 Standard basis: 6-31G(2df,p) (6D, 7F)
 There are   595 symmetry adapted cartesian basis functions of A   symmetry.
 There are   550 symmetry adapted basis functions of A   symmetry.
   550 basis functions,   842 primitive gaussians,   595 cartesian basis functions
    61 alpha electrons       61 beta electrons
       nuclear repulsion energy      1037.8724630304 Hartrees.
 NAtoms=   41 NActive=   41 NUniq=   41 SFac= 1.00D+00 NAtFMM=   60 NAOKFM=F Big=F
 Integral buffers will be    131072 words long.
 Raffenetti 2 integral format.
 Two-electron integral symmetry is turned on.
 One-electron integrals computed using PRISM.
 PrsmSu:  requested number of processors reduced to:  12 ShMem   1 Linda.
 NBasis=   550 RedAO= T EigKep=  4.31D-04  NBF=   550
 NBsUse=   550 1.00D-06 EigRej= -1.00D+00 NBFU=   550
 ExpMin= 1.61D-01 ExpMax= 5.48D+03 ExpMxC= 8.25D+02 IAcc=3 IRadAn=         5 AccDes= 0.00D+00
 Harris functional with IExCor=  402 and IRadAn=       5 diagonalized for initial guess.
 HarFok:  IExCor=  402 AccDes= 0.00D+00 IRadAn=         5 IDoV= 1 UseB2=F ITyADJ=14
 ICtDFT=  3500011 ScaDFX=  1.000000  1.000000  1.000000  1.000000
 FoFCou: FMM=F IPFlag=           0 FMFlag=      100000 FMFlg1=           0
         NFxFlg=           0 DoJE=T BraDBF=F KetDBF=T FulRan=T
         wScrn=  0.000000 ICntrl=       500 IOpCl=  0 I1Cent=   200000004 NGrid=           0
         NMat0=    1 NMatS0=      1 NMatT0=    0 NMatD0=    1 NMtDS0=    0 NMtDT0=    0
 Petite list used in FoFCou.
 Requested convergence on RMS density matrix=1.00D-08 within 128 cycles.
 Requested convergence on MAX density matrix=1.00D-06.
 Requested convergence on             energy=1.00D-06.
 No special actions if energy rises.
 Integral accuracy reduced to 1.0D-05 until final iterations.
 Initial convergence to 1.0D-05 achieved.  Increase integral accuracy.
 SCF Done:  E(RB3LYP) =  -698.630633303     A.U. after   12 cycles
            NFock= 12  Conv=0.50D-08     -V/T= 2.0075

 **********************************************************************

            Population analysis using the SCF density.

 **********************************************************************

 Orbital symmetries:
       Occupied  (A) (A) (A) (A) (A) (A) (A) (A) (A) (A) (A) (A)
                 (A) (A) (A) (A) (A) (A) (A) (A) (A) (A) (A) (A)
                 (A) (A) (A) (A) (A) (A) (A) (A) (A) (A) (A) (A)
                 (A) (A) (A) (A) (A) (A) (A) (A) (A) (A) (A) (A)
                 (A) (A) (A) (A) (A) (A) (A) (A) (A) (A) (A) (A)
                 (A)
       Virtual   (A) (A) (A) (A) (A) (A) (A) (A) (A) (A) (A) (A)
                 (A) (A) (A) (A) (A) (A) (A) (A) (A) (A) (A) (A)
                 (A) (A) (A) (A) (A) (A) (A) (A) (A) (A) (A) (A)
                 (A) (A) (A) (A) (A) (A) (A) (A) (A) (A) (A) (A)
                 (A) (A) (A) (A) (A) (A) (A) (A) (A) (A) (A) (A)
                 (A) (A) (A) (A) (A) (A) (A) (A) (A) (A) (A) (A)
                 (A) (A) (A) (A) (A) (A) (A) (A) (A) (A) (A) (A)
                 (A) (A) (A) (A) (A) (A) (A) (A) (A) (A) (A) (A)
                 (A) (A) (A) (A) (A) (A) (A) (A) (A) (A) (A) (A)
                 (A) (A) (A) (A) (A) (A) (A) (A) (A) (A) (A) (A)
                 (A) (A) (A) (A) (A) (A) (A) (A) (A) (A) (A) (A)
                 (A) (A) (A) (A) (A) (A) (A) (A) (A) (A) (A) (A)
                 (A) (A) (A) (A) (A) (A) (A) (A) (A) (A) (A) (A)
                 (A) (A) (A) (A) (A) (A) (A) (A) (A) (A) (A) (A)
                 (A) (A) (A) (A) (A) (A) (A) (A) (A) (A) (A) (A)
                 (A) (A) (A) (A) (A) (A) (A) (A) (A) (A) (A) (A)
                 (A) (A) (A) (A) (A) (A) (A) (A) (A) (A) (A) (A)
                 (A) (A) (A) (A) (A) (A) (A) (A) (A) (A) (A) (A)
                 (A) (A) (A) (A) (A) (A) (A) (A) (A) (A) (A) (A)
                 (A) (A) (A) (A) (A) (A) (A) (A) (A) (A) (A) (A)
                 (A) (A) (A) (A) (A) (A) (A) (A) (A) (A) (A) (A)
                 (A) (A) (A) (A) (A) (A) (A) (A) (A) (A) (A) (A)
                 (A) (A) (A) (A) (A) (A) (A) (A) (A) (A) (A) (A)
                 (A) (A) (A) (A) (A) (A) (A) (A) (A) (A) (A) (A)
                 (A) (A) (A) (A) (A) (A) (A) (A) (A) (A) (A) (A)
                 (A) (A) (A) (A) (A) (A) (A) (A) (A) (A) (A) (A)
                 (A) (A) (A) (A) (A) (A) (A) (A) (A) (A) (A) (A)
                 (A) (A) (A) (A) (A) (A) (A) (A) (A) (A) (A) (A)
                 (A) (A) (A) (A) (A) (A) (A) (A) (A) (A) (A) (A)
                 (A) (A) (A) (A) (A) (A) (A) (A) (A) (A) (A) (A)
                 (A) (A) (A) (A) (A) (A) (A) (A) (A) (A) (A) (A)
                 (A) (A) (A) (A) (A) (A) (A) (A) (A) (A) (A) (A)
                 (A) (A) (A) (A) (A) (A) (A) (A) (A) (A) (A) (A)
                 (A) (A) (A) (A) (A) (A) (A) (A) (A) (A) (A) (A)
                 (A) (A) (A) (A) (A) (A) (A) (A) (A) (A) (A) (A)
                 (A) (A) (A) (A) (A) (A) (A) (A) (A) (A) (A) (A)
                 (A) (A) (A) (A) (A) (A) (A) (A) (A) (A) (A) (A)
                 (A) (A) (A) (A) (A) (A) (A) (A) (A) (A) (A) (A)
                 (A) (A) (A) (A) (A) (A) (A) (A) (A) (A) (A) (A)
                 (A) (A) (A) (A) (A) (A) (A) (A) (A) (A) (A) (A)
                 (A) (A) (A) (A) (A) (A) (A) (A) (A)
 The electronic state is 1-A.
 Alpha  occ. eigenvalues --  -19.13332 -19.13185 -19.13096 -10.23124 -10.22632
 Alpha  occ. eigenvalues --  -10.22317 -10.20964 -10.18168 -10.17723 -10.17679
 Alpha  occ. eigenvalues --  -10.17549 -10.17520 -10.17017 -10.16704 -10.15811
 Alpha  occ. eigenvalues --   -1.02447  -1.01761  -1.00520  -0.81478  -0.80436
 Alpha  occ. eigenvalues --   -0.77372  -0.73288  -0.69023  -0.67315  -0.67228
 Alpha  occ. eigenvalues --   -0.64139  -0.60271  -0.58789  -0.57881  -0.55680
 Alpha  occ. eigenvalues --   -0.50096  -0.49362  -0.48739  -0.47251  -0.45875
 Alpha  occ. eigenvalues --   -0.45625  -0.44842  -0.44164  -0.43699  -0.41944
 Alpha  occ. eigenvalues --   -0.41644  -0.40678  -0.39431  -0.38872  -0.38725
 Alpha  occ. eigenvalues --   -0.37724  -0.36659  -0.36156  -0.34613  -0.34149
 Alpha  occ. eigenvalues --   -0.33371  -0.33129  -0.32533  -0.32248  -0.32128
 Alpha  occ. eigenvalues --   -0.31362  -0.30962  -0.30286  -0.27386  -0.25274
 Alpha  occ. eigenvalues --   -0.23498
 Alpha virt. eigenvalues --    0.06558   0.06887   0.09030   0.09255   0.10374
 Alpha virt. eigenvalues --    0.11498   0.11793   0.12339   0.13420   0.13651
 Alpha virt. eigenvalues --    0.14363   0.14961   0.15115   0.15515   0.16740
 Alpha virt. eigenvalues --    0.16904   0.17315   0.17541   0.17898   0.18360
 Alpha virt. eigenvalues --    0.18787   0.19565   0.19715   0.20095   0.21064
 Alpha virt. eigenvalues --    0.21270   0.21444   0.22502   0.22843   0.22994
 Alpha virt. eigenvalues --    0.24223   0.25211   0.26013   0.26439   0.26989
 Alpha virt. eigenvalues --    0.27737   0.28212   0.28946   0.32828   0.35397
 Alpha virt. eigenvalues --    0.42021   0.43832   0.46047   0.46554   0.47263
 Alpha virt. eigenvalues --    0.48126   0.48382   0.49552   0.50466   0.50765
 Alpha virt. eigenvalues --    0.51430   0.52357   0.53139   0.53492   0.54002
 Alpha virt. eigenvalues --    0.55136   0.56852   0.57411   0.58072   0.59254
 Alpha virt. eigenvalues --    0.60184   0.61389   0.62270   0.62472   0.62952
 Alpha virt. eigenvalues --    0.63907   0.65224   0.65337   0.66144   0.66416
 Alpha virt. eigenvalues --    0.68061   0.69651   0.70385   0.71389   0.71907
 Alpha virt. eigenvalues --    0.72440   0.72795   0.73162   0.73666   0.73819
 Alpha virt. eigenvalues --    0.74620   0.75084   0.75305   0.75741   0.76315
 Alpha virt. eigenvalues --    0.76986   0.77246   0.78052   0.78848   0.79667
 Alpha virt. eigenvalues --    0.79937   0.80078   0.80547   0.81194   0.81724
 Alpha virt. eigenvalues --    0.82258   0.83812   0.84794   0.85007   0.86070
 Alpha virt. eigenvalues --    0.86489   0.87767   0.88112   0.88908   0.89890
 Alpha virt. eigenvalues --    0.90593   0.90835   0.92454   0.92955   0.94204
 Alpha virt. eigenvalues --    0.94863   0.95956   0.98495   1.00035   1.00528
 Alpha virt. eigenvalues --    1.02115   1.04424   1.05785   1.05888   1.07925
 Alpha virt. eigenvalues --    1.08670   1.09393   1.10588   1.11934   1.13461
 Alpha virt. eigenvalues --    1.14282   1.15906   1.17944   1.18908   1.20915
 Alpha virt. eigenvalues --    1.21482   1.24373   1.25415   1.26132   1.26812
 Alpha virt. eigenvalues --    1.28064   1.30557   1.31367   1.33528   1.33933
 Alpha virt. eigenvalues --    1.34247   1.35288   1.35519   1.36591   1.37372
 Alpha virt. eigenvalues --    1.38292   1.38751   1.42078   1.43508   1.43702
 Alpha virt. eigenvalues --    1.44318   1.46196   1.46444   1.49081   1.49207
 Alpha virt. eigenvalues --    1.53120   1.53825   1.54535   1.55272   1.55637
 Alpha virt. eigenvalues --    1.56336   1.57539   1.57967   1.59253   1.61090
 Alpha virt. eigenvalues --    1.62505   1.65524   1.66231   1.67527   1.68025
 Alpha virt. eigenvalues --    1.69827   1.70285   1.71977   1.72535   1.73474
 Alpha virt. eigenvalues --    1.75872   1.78360   1.79736   1.80112   1.81033
 Alpha virt. eigenvalues --    1.83160   1.84388   1.85413   1.85830   1.86330
 Alpha virt. eigenvalues --    1.87184   1.87659   1.89184   1.89663   1.91059
 Alpha virt. eigenvalues --    1.91638   1.94296   1.95559   1.96681   1.97054
 Alpha virt. eigenvalues --    1.98054   1.99860   2.00796   2.02342   2.05806
 Alpha virt. eigenvalues --    2.07280   2.13073   2.14583   2.17189   2.18526
 Alpha virt. eigenvalues --    2.19714   2.22380   2.22843   2.23827   2.25089
 Alpha virt. eigenvalues --    2.27291   2.29367   2.30446   2.31323   2.33078
 Alpha virt. eigenvalues --    2.33272   2.35930   2.37033   2.37405   2.40310
 Alpha virt. eigenvalues --    2.40960   2.41495   2.43604   2.44427   2.45122
 Alpha virt. eigenvalues --    2.49343   2.51035   2.52177   2.54671   2.56610
 Alpha virt. eigenvalues --    2.58191   2.58959   2.60464   2.61775   2.65461
 Alpha virt. eigenvalues --    2.67592   2.70135   2.70793   2.73638   2.73744
 Alpha virt. eigenvalues --    2.74959   2.75322   2.75647   2.77178   2.78017
 Alpha virt. eigenvalues --    2.78521   2.78643   2.80047   2.80536   2.80745
 Alpha virt. eigenvalues --    2.82412   2.82477   2.83653   2.84102   2.84838
 Alpha virt. eigenvalues --    2.86414   2.86637   2.87400   2.88361   2.90507
 Alpha virt. eigenvalues --    2.91015   2.91440   2.91655   2.92320   2.92964
 Alpha virt. eigenvalues --    2.93106   2.94434   2.95449   2.95800   2.96464
 Alpha virt. eigenvalues --    2.97049   2.97751   2.98229   2.99366   3.00050
 Alpha virt. eigenvalues --    3.01874   3.02148   3.02582   3.04422   3.06104
 Alpha virt. eigenvalues --    3.09382   3.11511   3.13853   3.14816   3.15952
 Alpha virt. eigenvalues --    3.17753   3.18946   3.20214   3.20590   3.23107
 Alpha virt. eigenvalues --    3.23600   3.25527   3.26190   3.28621   3.28853
 Alpha virt. eigenvalues --    3.32775   3.34933   3.35435   3.36649   3.38222
 Alpha virt. eigenvalues --    3.39021   3.40912   3.42497   3.44436   3.45249
 Alpha virt. eigenvalues --    3.47601   3.49357   3.50175   3.51459   3.52542
 Alpha virt. eigenvalues --    3.53362   3.53666   3.55778   3.56285   3.56934
 Alpha virt. eigenvalues --    3.57266   3.59057   3.60709   3.63113   3.63890
 Alpha virt. eigenvalues --    3.65641   3.66950   3.67625   3.68570   3.68881
 Alpha virt. eigenvalues --    3.70193   3.71011   3.71640   3.75049   3.76088
 Alpha virt. eigenvalues --    3.76711   3.77834   3.79277   3.80814   3.82595
 Alpha virt. eigenvalues --    3.83055   3.85108   3.86736   3.90457   3.90763
 Alpha virt. eigenvalues --    3.92706   3.95762   3.98286   4.00156   4.00532
 Alpha virt. eigenvalues --    4.04756   4.07079   4.12762   4.14570   4.17981
 Alpha virt. eigenvalues --    4.20286   4.22647   4.25432   4.27899   4.29526
 Alpha virt. eigenvalues --    4.30781   4.32527   4.33874   4.35160   4.36461
 Alpha virt. eigenvalues --    4.37611   4.39774   4.41253   4.41323   4.42600
 Alpha virt. eigenvalues --    4.43499   4.44504   4.44699   4.45492   4.47847
 Alpha virt. eigenvalues --    4.48099   4.48731   4.50841   4.52733   4.53735
 Alpha virt. eigenvalues --    4.54286   4.54721   4.55475   4.55984   4.58503
 Alpha virt. eigenvalues --    4.58902   4.60234   4.60847   4.61482   4.62479
 Alpha virt. eigenvalues --    4.62841   4.63183   4.64081   4.64873   4.65535
 Alpha virt. eigenvalues --    4.66478   4.67398   4.67793   4.68981   4.70446
 Alpha virt. eigenvalues --    4.70835   4.71736   4.72489   4.73395   4.74013
 Alpha virt. eigenvalues --    4.74693   4.75118   4.75769   4.76730   4.76981
 Alpha virt. eigenvalues --    4.79157   4.80042   4.80968   4.82132   4.82292
 Alpha virt. eigenvalues --    4.83343   4.84962   4.85964   4.86966   4.87970
 Alpha virt. eigenvalues --    4.88519   4.89410   4.90354   4.90966   4.92026
 Alpha virt. eigenvalues --    4.92851   4.93504   4.95252   4.95926   4.97695
 Alpha virt. eigenvalues --    4.99413   4.99860   5.03680   5.04676   5.09522
 Alpha virt. eigenvalues --    5.14480   5.19880   5.22364   5.25717   5.26563
 Alpha virt. eigenvalues --    5.27918   5.31328   5.33045   5.35576   5.36391
 Alpha virt. eigenvalues --    5.39572   5.40574   5.41624   5.42655   5.46395
 Alpha virt. eigenvalues --    5.46619   5.47966   5.49683   5.50674   5.52883
 Alpha virt. eigenvalues --    5.54575   5.55908   5.59459   5.64863   5.66169
 Alpha virt. eigenvalues --    5.72065   5.76629   5.77340   5.84399   5.92568
 Alpha virt. eigenvalues --    5.96641   5.98406   6.01828   6.03445   6.04463
 Alpha virt. eigenvalues --    6.06585   6.08638   6.14008   6.20572   6.27488
 Alpha virt. eigenvalues --    6.54505   7.03703   7.13842   7.15403  11.15650
 Alpha virt. eigenvalues --   11.27683  11.31516  11.48758  11.75425  11.88641
 Alpha virt. eigenvalues --   12.04535  12.26168  12.35012  12.40441  12.55279
 Alpha virt. eigenvalues --   12.69470  13.21249  13.40314  13.54677
          Condensed to atoms (all electrons):
               1          2          3          4          5          6
     1  C    4.855820   0.363669  -0.079483  -0.003048  -0.007898   0.005215
     2  O    0.363669   7.717482   0.356462  -0.038627   0.002072  -0.024849
     3  C   -0.079483   0.356462   4.724635   0.365042  -0.039709   0.383919
     4  C   -0.003048  -0.038627   0.365042   4.888516   0.342299  -0.030968
     5  O   -0.007898   0.002072  -0.039709   0.342299   7.852849   0.002439
     6  C    0.005215  -0.024849   0.383919  -0.030968   0.002439   4.941635
     7  C   -0.000267   0.001842  -0.036063  -0.000934  -0.000001   0.378480
     8  C    0.000001  -0.000016   0.001547   0.000388  -0.000002  -0.038626
     9  C   -0.000000   0.000000  -0.000127   0.000007  -0.000000   0.001451
    10  C    0.000000  -0.000000   0.000001  -0.000000  -0.000000  -0.000140
    11  O    0.000000   0.000000   0.000000   0.000000  -0.000000   0.000008
    12  C   -0.000000   0.000000  -0.000000   0.000000  -0.000000   0.000001
    13  C    0.000000  -0.000000   0.000000  -0.000000  -0.000000  -0.000000
    14  C    0.000000  -0.000000  -0.000000  -0.000000   0.000000  -0.000000
    15  C   -0.000000   0.000000  -0.000000  -0.000000  -0.000000   0.000000
    16  H    0.367843  -0.020002   0.003244  -0.000231   0.000801  -0.000200
    17  H    0.361086  -0.033453  -0.008788  -0.003063   0.000407   0.000335
    18  H    0.373914  -0.029872  -0.000826   0.003706   0.014331  -0.000153
    19  H   -0.007277  -0.034988   0.333485  -0.075209  -0.002263  -0.030360
    20  H    0.000026   0.002816  -0.025993   0.348094  -0.027291  -0.003993
    21  H    0.000893  -0.000826  -0.016334   0.342224  -0.016318  -0.002985
    22  H    0.002014  -0.000258  -0.002212  -0.070672   0.308338   0.000161
    23  H    0.000097   0.001695  -0.010641   0.004171  -0.000057   0.345268
    24  H    0.000105   0.001794  -0.025071  -0.010057   0.000043   0.360073
    25  H    0.000005   0.000014  -0.004848  -0.003445  -0.000097  -0.031991
    26  H    0.000007   0.000036  -0.001843  -0.000939  -0.000016  -0.034119
    27  H    0.000000   0.000000   0.000067  -0.000009   0.000000  -0.001468
    28  H    0.000000   0.000001   0.000248  -0.000004  -0.000000  -0.002967
    29  H    0.000000   0.000000   0.000013  -0.000013   0.000000   0.000163
    30  H    0.000000   0.000000   0.000011   0.000001   0.000000   0.000157
    31  H    0.000000   0.000000   0.000000  -0.000000   0.000000   0.000006
    32  H   -0.000000  -0.000000  -0.000000  -0.000000   0.000000   0.000000
    33  H    0.000000  -0.000000   0.000000   0.000000   0.000000   0.000000
    34  H    0.000000  -0.000000   0.000000  -0.000000   0.000000   0.000000
    35  H    0.000000   0.000000   0.000000  -0.000000  -0.000000   0.000000
    36  H   -0.000000   0.000000  -0.000000  -0.000000   0.000000  -0.000000
    37  H   -0.000000   0.000000  -0.000000   0.000000   0.000000  -0.000000
    38  H    0.000000  -0.000000   0.000000  -0.000000   0.000000  -0.000000
    39  H    0.000000   0.000000   0.000000  -0.000000   0.000000   0.000000
    40  H    0.000000   0.000000   0.000000   0.000000   0.000000  -0.000000
    41  H    0.000000   0.000000   0.000000   0.000000   0.000000   0.000000
               7          8          9         10         11         12
     1  C   -0.000267   0.000001  -0.000000   0.000000   0.000000  -0.000000
     2  O    0.001842  -0.000016   0.000000  -0.000000   0.000000   0.000000
     3  C   -0.036063   0.001547  -0.000127   0.000001   0.000000  -0.000000
     4  C   -0.000934   0.000388   0.000007  -0.000000   0.000000   0.000000
     5  O   -0.000001  -0.000002  -0.000000  -0.000000  -0.000000  -0.000000
     6  C    0.378480  -0.038626   0.001451  -0.000140   0.000008   0.000001
     7  C    4.867843   0.418474  -0.038865   0.000917   0.000668  -0.000072
     8  C    0.418474   4.823586   0.422220  -0.030861  -0.011132   0.003349
     9  C   -0.038865   0.422220   4.949447   0.393673  -0.043057  -0.042780
    10  C    0.000917  -0.030861   0.393673   4.599167   0.335722   0.407613
    11  O    0.000668  -0.011132  -0.043057   0.335722   7.868944  -0.026714
    12  C   -0.000072   0.003349  -0.042780   0.407613  -0.026714   4.939851
    13  C    0.000001  -0.000125   0.001207  -0.015842  -0.009210   0.427630
    14  C    0.000000  -0.000000   0.000511  -0.003501  -0.009355  -0.032568
    15  C   -0.000000   0.000001  -0.000188   0.001473   0.000060  -0.036104
    16  H   -0.000001  -0.000000   0.000000  -0.000000   0.000000   0.000000
    17  H    0.000037   0.000000   0.000000   0.000000  -0.000000   0.000000
    18  H    0.000027   0.000000   0.000000   0.000000   0.000000   0.000000
    19  H   -0.001431  -0.000014   0.000014   0.000000  -0.000000   0.000000
    20  H   -0.004068   0.000183  -0.000018  -0.000000  -0.000000   0.000000
    21  H    0.000243  -0.000100   0.000001  -0.000000  -0.000000  -0.000000
    22  H   -0.000069  -0.000001   0.000000  -0.000000  -0.000000   0.000000
    23  H   -0.027959  -0.001758   0.000111   0.000018  -0.000009  -0.000000
    24  H   -0.031213  -0.003588   0.000166   0.000007   0.000000   0.000000
    25  H    0.360242  -0.029123  -0.003018   0.000254  -0.000013  -0.000002
    26  H    0.361881  -0.032699  -0.003619   0.000311   0.000020   0.000012
    27  H   -0.033268   0.361220  -0.028299  -0.005272   0.016550   0.000572
    28  H   -0.031137   0.361379  -0.037009  -0.000515   0.000110   0.000167
    29  H   -0.004516  -0.029935   0.340685  -0.020960   0.003475   0.000141
    30  H   -0.003260  -0.035697   0.343500  -0.017946  -0.004162  -0.007473
    31  H    0.000107  -0.004369  -0.051329   0.362932  -0.024293  -0.051464
    32  H   -0.000122  -0.000248  -0.003503  -0.059766   0.301626  -0.004044
    33  H   -0.000005  -0.000004   0.000064  -0.022277   0.003074   0.341767
    34  H    0.000002   0.000088  -0.007326  -0.021469  -0.004806   0.337974
    35  H    0.000000   0.000004   0.000047  -0.003067  -0.000462  -0.046111
    36  H   -0.000000   0.000001  -0.000045  -0.000553   0.000628  -0.007936
    37  H    0.000000   0.000006   0.000177  -0.000855   0.015554  -0.000899
    38  H   -0.000000  -0.000000   0.000005   0.000009   0.000936   0.004364
    39  H    0.000000   0.000000   0.000003   0.000273  -0.000007  -0.007417
    40  H    0.000000  -0.000000   0.000002  -0.000134   0.000004   0.003746
    41  H    0.000000   0.000000   0.000008   0.000205   0.000001  -0.002931
              13         14         15         16         17         18
     1  C    0.000000   0.000000  -0.000000   0.367843   0.361086   0.373914
     2  O   -0.000000  -0.000000   0.000000  -0.020002  -0.033453  -0.029872
     3  C    0.000000  -0.000000  -0.000000   0.003244  -0.008788  -0.000826
     4  C   -0.000000  -0.000000  -0.000000  -0.000231  -0.003063   0.003706
     5  O   -0.000000   0.000000  -0.000000   0.000801   0.000407   0.014331
     6  C   -0.000000  -0.000000   0.000000  -0.000200   0.000335  -0.000153
     7  C    0.000001   0.000000  -0.000000  -0.000001   0.000037   0.000027
     8  C   -0.000125  -0.000000   0.000001  -0.000000   0.000000   0.000000
     9  C    0.001207   0.000511  -0.000188   0.000000   0.000000   0.000000
    10  C   -0.015842  -0.003501   0.001473  -0.000000   0.000000   0.000000
    11  O   -0.009210  -0.009355   0.000060   0.000000  -0.000000   0.000000
    12  C    0.427630  -0.032568  -0.036104   0.000000   0.000000   0.000000
    13  C    4.566382   0.420794   0.403631  -0.000000   0.000000   0.000000
    14  C    0.420794   5.004321  -0.051271  -0.000000  -0.000000  -0.000000
    15  C    0.403631  -0.051271   5.019220   0.000000   0.000000   0.000000
    16  H   -0.000000  -0.000000   0.000000   0.606428  -0.033912  -0.037568
    17  H    0.000000  -0.000000   0.000000  -0.033912   0.660682  -0.046534
    18  H    0.000000  -0.000000   0.000000  -0.037568  -0.046534   0.590993
    19  H    0.000000  -0.000000   0.000000   0.000034   0.015854  -0.001745
    20  H   -0.000000  -0.000000   0.000000   0.000020   0.000058  -0.000053
    21  H   -0.000000   0.000000   0.000000  -0.000058   0.000251  -0.001126
    22  H   -0.000000   0.000000   0.000000  -0.000086   0.002646  -0.002550
    23  H    0.000000   0.000000   0.000000  -0.000023  -0.000062   0.000029
    24  H    0.000000   0.000000   0.000000   0.000008   0.000041  -0.000019
    25  H    0.000000   0.000000   0.000000   0.000000   0.000001  -0.000001
    26  H    0.000000  -0.000000   0.000000   0.000000  -0.000000   0.000000
    27  H    0.000012  -0.000004   0.000000   0.000000   0.000000  -0.000000
    28  H    0.000010  -0.000000   0.000000   0.000000  -0.000000   0.000000
    29  H    0.000158  -0.000003   0.000005   0.000000  -0.000000  -0.000000
    30  H    0.000218  -0.000033   0.000003   0.000000  -0.000000   0.000000
    31  H   -0.002705  -0.000321   0.000124  -0.000000   0.000000  -0.000000
    32  H   -0.000513   0.002355   0.000022   0.000000   0.000000   0.000000
    33  H   -0.029353   0.005799  -0.004705   0.000000  -0.000000   0.000000
    34  H   -0.030096  -0.008967  -0.004509   0.000000   0.000000  -0.000000
    35  H    0.365070  -0.046315  -0.042128   0.000000   0.000000   0.000000
    36  H   -0.029148   0.369304  -0.004086   0.000000   0.000000   0.000000
    37  H   -0.015590   0.366134   0.004715  -0.000000   0.000000   0.000000
    38  H   -0.028464   0.359315  -0.008380   0.000000   0.000000   0.000000
    39  H   -0.025254  -0.005538   0.372616   0.000000   0.000000   0.000000
    40  H   -0.020739  -0.003770   0.368349   0.000000   0.000000   0.000000
    41  H   -0.022813   0.005392   0.365593   0.000000   0.000000  -0.000000
              19         20         21         22         23         24
     1  C   -0.007277   0.000026   0.000893   0.002014   0.000097   0.000105
     2  O   -0.034988   0.002816  -0.000826  -0.000258   0.001695   0.001794
     3  C    0.333485  -0.025993  -0.016334  -0.002212  -0.010641  -0.025071
     4  C   -0.075209   0.348094   0.342224  -0.070672   0.004171  -0.010057
     5  O   -0.002263  -0.027291  -0.016318   0.308338  -0.000057   0.000043
     6  C   -0.030360  -0.003993  -0.002985   0.000161   0.345268   0.360073
     7  C   -0.001431  -0.004068   0.000243  -0.000069  -0.027959  -0.031213
     8  C   -0.000014   0.000183  -0.000100  -0.000001  -0.001758  -0.003588
     9  C    0.000014  -0.000018   0.000001   0.000000   0.000111   0.000166
    10  C    0.000000  -0.000000  -0.000000  -0.000000   0.000018   0.000007
    11  O   -0.000000  -0.000000  -0.000000  -0.000000  -0.000009   0.000000
    12  C    0.000000   0.000000  -0.000000   0.000000  -0.000000   0.000000
    13  C    0.000000  -0.000000  -0.000000  -0.000000   0.000000   0.000000
    14  C   -0.000000  -0.000000   0.000000   0.000000   0.000000   0.000000
    15  C    0.000000   0.000000   0.000000   0.000000   0.000000   0.000000
    16  H    0.000034   0.000020  -0.000058  -0.000086  -0.000023   0.000008
    17  H    0.015854   0.000058   0.000251   0.002646  -0.000062   0.000041
    18  H   -0.001745  -0.000053  -0.001126  -0.002550   0.000029  -0.000019
    19  H    0.725912   0.000643   0.006277   0.008718  -0.006246   0.006833
    20  H    0.000643   0.647708  -0.042438  -0.000836  -0.000221   0.000436
    21  H    0.006277  -0.042438   0.598226   0.006772  -0.000166   0.004370
    22  H    0.008718  -0.000836   0.006772   0.469616  -0.000008   0.000036
    23  H   -0.006246  -0.000221  -0.000166  -0.000008   0.628462  -0.041589
    24  H    0.006833   0.000436   0.004370   0.000036  -0.041589   0.626608
    25  H   -0.000067   0.006502   0.000237  -0.000017   0.005936  -0.005012
    26  H    0.005529   0.001324   0.000089   0.000023  -0.005900   0.006245
    27  H   -0.000000   0.000003   0.000001   0.000000   0.004608  -0.000540
    28  H    0.000006   0.000041  -0.000001  -0.000000  -0.000469   0.005109
    29  H    0.000001  -0.000011   0.000001   0.000000   0.000004   0.000006
    30  H   -0.000003   0.000004  -0.000000  -0.000000   0.000004   0.000009
    31  H   -0.000000  -0.000000  -0.000000  -0.000000   0.000000  -0.000002
    32  H    0.000000  -0.000000   0.000000   0.000000   0.000001  -0.000000
    33  H    0.000000   0.000000   0.000000   0.000000   0.000000   0.000000
    34  H    0.000000  -0.000000   0.000000   0.000000   0.000000  -0.000000
    35  H    0.000000  -0.000000   0.000000   0.000000  -0.000000   0.000000
    36  H    0.000000  -0.000000   0.000000   0.000000   0.000000   0.000000
    37  H   -0.000000   0.000000  -0.000000  -0.000000   0.000000   0.000000
    38  H    0.000000  -0.000000   0.000000  -0.000000   0.000000  -0.000000
    39  H    0.000000   0.000000  -0.000000   0.000000  -0.000000   0.000000
    40  H   -0.000000   0.000000  -0.000000  -0.000000   0.000000  -0.000000
    41  H   -0.000000   0.000000   0.000000   0.000000   0.000000  -0.000000
              25         26         27         28         29         30
     1  C    0.000005   0.000007   0.000000   0.000000   0.000000   0.000000
     2  O    0.000014   0.000036   0.000000   0.000001   0.000000   0.000000
     3  C   -0.004848  -0.001843   0.000067   0.000248   0.000013   0.000011
     4  C   -0.003445  -0.000939  -0.000009  -0.000004  -0.000013   0.000001
     5  O   -0.000097  -0.000016   0.000000  -0.000000   0.000000   0.000000
     6  C   -0.031991  -0.034119  -0.001468  -0.002967   0.000163   0.000157
     7  C    0.360242   0.361881  -0.033268  -0.031137  -0.004516  -0.003260
     8  C   -0.029123  -0.032699   0.361220   0.361379  -0.029935  -0.035697
     9  C   -0.003018  -0.003619  -0.028299  -0.037009   0.340685   0.343500
    10  C    0.000254   0.000311  -0.005272  -0.000515  -0.020960  -0.017946
    11  O   -0.000013   0.000020   0.016550   0.000110   0.003475  -0.004162
    12  C   -0.000002   0.000012   0.000572   0.000167   0.000141  -0.007473
    13  C    0.000000   0.000000   0.000012   0.000010   0.000158   0.000218
    14  C    0.000000  -0.000000  -0.000004  -0.000000  -0.000003  -0.000033
    15  C    0.000000   0.000000   0.000000   0.000000   0.000005   0.000003
    16  H    0.000000   0.000000   0.000000   0.000000   0.000000   0.000000
    17  H    0.000001  -0.000000   0.000000  -0.000000  -0.000000  -0.000000
    18  H   -0.000001   0.000000  -0.000000   0.000000  -0.000000   0.000000
    19  H   -0.000067   0.005529  -0.000000   0.000006   0.000001  -0.000003
    20  H    0.006502   0.001324   0.000003   0.000041  -0.000011   0.000004
    21  H    0.000237   0.000089   0.000001  -0.000001   0.000001  -0.000000
    22  H   -0.000017   0.000023   0.000000  -0.000000   0.000000  -0.000000
    23  H    0.005936  -0.005900   0.004608  -0.000469   0.000004   0.000004
    24  H   -0.005012   0.006245  -0.000540   0.005109   0.000006   0.000009
    25  H    0.646858  -0.045776   0.006265  -0.006414   0.005762  -0.000667
    26  H   -0.045776   0.657806  -0.005739   0.006448  -0.000321   0.005537
    27  H    0.006265  -0.005739   0.613595  -0.038885   0.005868  -0.004543
    28  H   -0.006414   0.006448  -0.038885   0.647425  -0.004620   0.006335
    29  H    0.005762  -0.000321   0.005868  -0.004620   0.653258  -0.038383
    30  H   -0.000667   0.005537  -0.004543   0.006335  -0.038383   0.659796
    31  H    0.000010   0.000011  -0.000285   0.005466  -0.000748   0.006554
    32  H    0.000004  -0.000011   0.000074   0.000052  -0.000090   0.005164
    33  H    0.000000  -0.000000  -0.000020  -0.000005   0.002573   0.000094
    34  H    0.000001  -0.000002  -0.000005   0.000010   0.000003   0.005425
    35  H    0.000000  -0.000000   0.000000  -0.000002   0.000007   0.000011
    36  H    0.000000  -0.000000  -0.000001  -0.000000  -0.000000  -0.000002
    37  H   -0.000000  -0.000000   0.000002  -0.000001  -0.000009  -0.000006
    38  H    0.000000  -0.000000  -0.000000  -0.000000  -0.000000  -0.000000
    39  H   -0.000000  -0.000000  -0.000000  -0.000000   0.000000  -0.000001
    40  H    0.000000  -0.000000  -0.000000   0.000000  -0.000000   0.000000
    41  H    0.000000  -0.000000  -0.000000   0.000000  -0.000003   0.000001
              31         32         33         34         35         36
     1  C    0.000000  -0.000000   0.000000   0.000000   0.000000  -0.000000
     2  O    0.000000  -0.000000  -0.000000  -0.000000   0.000000   0.000000
     3  C    0.000000  -0.000000   0.000000   0.000000   0.000000  -0.000000
     4  C   -0.000000  -0.000000   0.000000  -0.000000  -0.000000  -0.000000
     5  O    0.000000   0.000000   0.000000   0.000000  -0.000000   0.000000
     6  C    0.000006   0.000000   0.000000   0.000000   0.000000  -0.000000
     7  C    0.000107  -0.000122  -0.000005   0.000002   0.000000  -0.000000
     8  C   -0.004369  -0.000248  -0.000004   0.000088   0.000004   0.000001
     9  C   -0.051329  -0.003503   0.000064  -0.007326   0.000047  -0.000045
    10  C    0.362932  -0.059766  -0.022277  -0.021469  -0.003067  -0.000553
    11  O   -0.024293   0.301626   0.003074  -0.004806  -0.000462   0.000628
    12  C   -0.051464  -0.004044   0.341767   0.337974  -0.046111  -0.007936
    13  C   -0.002705  -0.000513  -0.029353  -0.030096   0.365070  -0.029148
    14  C   -0.000321   0.002355   0.005799  -0.008967  -0.046315   0.369304
    15  C    0.000124   0.000022  -0.004705  -0.004509  -0.042128  -0.004086
    16  H   -0.000000   0.000000   0.000000   0.000000   0.000000   0.000000
    17  H    0.000000   0.000000  -0.000000   0.000000   0.000000   0.000000
    18  H   -0.000000   0.000000   0.000000  -0.000000   0.000000   0.000000
    19  H   -0.000000   0.000000   0.000000   0.000000   0.000000   0.000000
    20  H   -0.000000  -0.000000   0.000000  -0.000000  -0.000000  -0.000000
    21  H   -0.000000   0.000000   0.000000   0.000000   0.000000   0.000000
    22  H   -0.000000   0.000000   0.000000   0.000000   0.000000   0.000000
    23  H    0.000000   0.000001   0.000000   0.000000  -0.000000   0.000000
    24  H   -0.000002  -0.000000   0.000000  -0.000000   0.000000   0.000000
    25  H    0.000010   0.000004   0.000000   0.000001   0.000000   0.000000
    26  H    0.000011  -0.000011  -0.000000  -0.000002  -0.000000  -0.000000
    27  H   -0.000285   0.000074  -0.000020  -0.000005   0.000000  -0.000001
    28  H    0.005466   0.000052  -0.000005   0.000010  -0.000002  -0.000000
    29  H   -0.000748  -0.000090   0.002573   0.000003   0.000007  -0.000000
    30  H    0.006554   0.005164   0.000094   0.005425   0.000011  -0.000002
    31  H    0.655668   0.007210  -0.000827   0.006414   0.005123   0.000097
    32  H    0.007210   0.469479  -0.000140   0.006097   0.000121   0.001726
    33  H   -0.000827  -0.000140   0.648876  -0.036189  -0.004008   0.000005
    34  H    0.006414   0.006097  -0.036189   0.661046   0.006930   0.005897
    35  H    0.005123   0.000121  -0.004008   0.006930   0.695908   0.006449
    36  H    0.000097   0.001726   0.000005   0.005897   0.006449   0.628922
    37  H   -0.000442  -0.001765  -0.000199  -0.000198  -0.004018  -0.031684
    38  H   -0.000023  -0.000119  -0.000156  -0.000061  -0.002074  -0.033050
    39  H    0.000011  -0.000006  -0.000288   0.005348   0.006291   0.004499
    40  H    0.000002   0.000001  -0.000024  -0.000099  -0.003009  -0.000146
    41  H    0.000003  -0.000001   0.004694  -0.000220  -0.003326  -0.000085
              37         38         39         40         41
     1  C   -0.000000   0.000000   0.000000   0.000000   0.000000
     2  O    0.000000  -0.000000   0.000000   0.000000   0.000000
     3  C   -0.000000   0.000000   0.000000   0.000000   0.000000
     4  C    0.000000  -0.000000  -0.000000   0.000000   0.000000
     5  O    0.000000   0.000000   0.000000   0.000000   0.000000
     6  C   -0.000000  -0.000000   0.000000  -0.000000   0.000000
     7  C    0.000000  -0.000000   0.000000   0.000000   0.000000
     8  C    0.000006  -0.000000   0.000000  -0.000000   0.000000
     9  C    0.000177   0.000005   0.000003   0.000002   0.000008
    10  C   -0.000855   0.000009   0.000273  -0.000134   0.000205
    11  O    0.015554   0.000936  -0.000007   0.000004   0.000001
    12  C   -0.000899   0.004364  -0.007417   0.003746  -0.002931
    13  C   -0.015590  -0.028464  -0.025254  -0.020739  -0.022813
    14  C    0.366134   0.359315  -0.005538  -0.003770   0.005392
    15  C    0.004715  -0.008380   0.372616   0.368349   0.365593
    16  H   -0.000000   0.000000   0.000000   0.000000   0.000000
    17  H    0.000000   0.000000   0.000000   0.000000   0.000000
    18  H    0.000000   0.000000   0.000000   0.000000  -0.000000
    19  H   -0.000000   0.000000   0.000000  -0.000000  -0.000000
    20  H    0.000000  -0.000000   0.000000   0.000000   0.000000
    21  H   -0.000000   0.000000  -0.000000  -0.000000   0.000000
    22  H   -0.000000  -0.000000   0.000000  -0.000000   0.000000
    23  H    0.000000   0.000000  -0.000000   0.000000   0.000000
    24  H    0.000000  -0.000000   0.000000  -0.000000  -0.000000
    25  H   -0.000000   0.000000  -0.000000   0.000000   0.000000
    26  H   -0.000000  -0.000000  -0.000000  -0.000000  -0.000000
    27  H    0.000002  -0.000000  -0.000000  -0.000000  -0.000000
    28  H   -0.000001  -0.000000  -0.000000   0.000000   0.000000
    29  H   -0.000009  -0.000000   0.000000  -0.000000  -0.000003
    30  H   -0.000006  -0.000000  -0.000001   0.000000   0.000001
    31  H   -0.000442  -0.000023   0.000011   0.000002   0.000003
    32  H   -0.001765  -0.000119  -0.000006   0.000001  -0.000001
[...]
 101477,0.00012649,-0.00000234,-0.00004678,-0.00002545,0.00002224,-0.00
 008654,-0.00007095,-0.00000220,-0.00030971,0.00067559,-0.00028800,0.00
 620952,-0.02025439,-0.01435887,-0.05315370,0.24266317,-0.00001472,-0.0
 0000163,0.00000618,0.00002170,-0.00000824,-0.00000895,-0.00001662,0.00
 000407,0.00000687,-0.00001245,-0.00000131,-0.00000581,0.00001842,0.000
 00174,0.00000603,0.00000431,0.00000651,0.00000530,-0.00001334,0.000006
 97,0.00000815,-0.00000922,-0.00001124,-0.00001104,-0.00002670,0.000129
 01,-0.00001897,-0.00127213,-0.00032001,-0.00061114,0.00238424,-0.00053
 014,-0.00058205,0.00062470,0.00020488,0.00095861,0.00721454,-0.0234307
 0,-0.01509187,0.03196202,-0.11896290,-0.12895775,-0.00387130,0.0015093
 7,-0.00468502,0.00000136,-0.00000128,-0.00000151,0.00000138,0.00000173
 ,-0.00000083,0.00000290,0.00000033,0.00000041,0.00000171,0.00000050,-0
 .00000045,-0.00000009,-0.00000163,-0.00000370,0.00000037,-0.00000012,-
 0.00000012,-0.00000417,-0.00000131,-0.00000232,-0.00000169,0.00000049,
 0.00000247,-0.00000071,0.00000006,-0.00000222,0.00001163,0.00000045,0.
 00000472,0.00000457,0.00000189,-0.00000206,-0.00002269,0.00002607,0.00
 002742,-0.00000401,0.00000459,-0.00000298,0.00002700,0.00000080,0.0000
 5814,0.00003030,0.00000531,-0.00000697,-0.00005673,0.00006690,-0.00008
 614,0.00046892,0.00000818,0.00019625,0.00023451,0.00007390,-0.00005066
 ,-0.00020901,0.00005829,0.00004527,0.00078132,0.00034661,0.00097811,-0
 .00449026,0.01498985,0.01037326,-0.03468819,0.13138859,0.14169987,0.00
 004237,0.00000017,-0.00001981,-0.00007052,0.00004092,0.00003801,0.0000
 5167,-0.00001413,-0.00002428,0.00004083,-0.00000644,0.00000924,-0.0000
 5559,-0.00000109,-0.00000950,-0.00004058,-0.00003509,-0.00001123,0.000
 03040,0.00005743,0.00001665,-0.00006250,-0.00008811,0.00001391,-0.0000
 0596,0.00020389,0.00002302,0.00020127,-0.00054036,0.00001253,-0.000615
 07,0.00051432,0.00019971,0.00038219,0.00009458,-0.00393209,-0.01720312
 ,-0.00010255,0.00417849,-0.29587346,0.00245278,0.05009657,0.00033055,0
 .00039979,0.00138937,-0.00000472,0.00000567,0.00000670,-0.00000442,-0.
 00000336,0.00000176,-0.00000807,-0.00000211,-0.00000173,-0.00000097,0.
 00000283,-0.00000080,-0.00000117,0.00000664,0.00001346,-0.00000242,0.0
 0000291,0.00000002,0.00001350,0.00000230,0.00000233,0.00000172,-0.0000
 0121,-0.00000015,0.00000008,0.00000491,-0.00000235,-0.00000568,-0.0000
 0380,-0.00000552,-0.00000266,-0.00000193,0.00000096,0.00001318,-0.0000
 0136,0.00000167,-0.00000364,0.00001721,-0.00001256,0.00001985,-0.00000
 375,0.00000988,0.00001164,-0.00000388,0.00000766,-0.00002257,0.0000937
 6,-0.00003723,0.00019437,-0.00007255,-0.00016773,-0.00122062,0.0002016
 2,-0.00003024,0.00043403,0.00005979,0.00002863,0.00064131,0.00048775,-
 0.00013726,-0.00644546,0.00028634,0.00139807,-0.00585104,-0.00055477,0
 .00101668,0.32385992,-0.00000910,-0.00000006,0.00000511,0.00001667,-0.
 00001088,-0.00001006,-0.00001427,0.00000449,0.00000816,-0.00000925,0.0
 0000179,-0.00000264,0.00001340,-0.00000027,0.00000237,0.00000785,0.000
 01002,0.00000071,-0.00001170,-0.00000602,0.00001315,0.00000024,0.00001
 280,-0.00001965,-0.00000060,0.00002575,0.00011296,-0.00045548,-0.00013
 888,-0.00096066,0.00167693,-0.00067683,0.00027702,-0.00060189,0.000466
 95,0.00010962,0.00103764,-0.00138217,0.00013511,0.00275943,-0.04730525
 ,-0.00116619,-0.00094765,0.00005550,0.00020172,0.00000128,-0.00000145,
 -0.00000185,0.00000086,0.00000081,-0.00000041,0.00000192,0.00000056,0.
 00000015,0.00000036,-0.00000074,-0.00000006,0.00000017,-0.00000167,-0.
 00000366,0.00000073,-0.00000089,0.00000012,-0.00000304,-0.00000042,-0.
 00000040,-0.00000146,0.00000081,0.00000055,-0.00000002,-0.00000142,0.0
 0000105,0.00000873,0.00000043,0.00000106,0.00000179,0.00000041,-0.0000
 0146,-0.00002464,0.00002381,0.00001959,0.00000034,-0.00000414,0.000007
 37,0.00004980,0.00001691,0.00004563,-0.00000310,-0.00000439,-0.0000084
 0,-0.00002391,-0.00000062,0.00005335,-0.00018512,-0.00007562,0.0000900
 2,0.00003775,0.00037984,-0.00011971,0.00035662,0.00019759,-0.00018224,
 0.00027851,0.00007579,-0.00028722,-0.02691211,0.00031818,0.00512111,0.
 02590664,0.00170736,-0.00398418,-0.00304790,0.04625044,-0.00000044,0.0
 0000150,-0.00000078,-0.00000118,0.00000024,0.00000288,0.00000099,0.000
 00432,-0.00000077,0.00000042,-0.00000122,-0.00000107,0.00000023,0.0000
 0044,0.00000132,-0.00001205,-0.00000416,-0.00000378,0.00000184,0.00002
 943,0.00001965,-0.00004552,-0.00003442,0.00000077,-0.00001000,0.000209
 13,0.00014828,-0.00020600,-0.00061607,-0.00104987,0.00136865,-0.000463
 48,0.00069512,-0.00179660,-0.00023633,-0.00553328,-0.02929891,-0.00053
 802,0.00526868,0.05191917,-0.00080619,-0.05681110,-0.00088357,0.000653
 87,0.00153866,-0.00000032,0.00000005,0.00000002,-0.00000022,-0.0000005
 7,0.00000015,0.00000020,-0.00000027,0.00000032,-0.00000043,-0.00000056
 ,0.00000035,-0.00000011,0.00000031,0.00000033,0.,-0.00000005,0.0000001
 4,-0.00000008,-0.00000025,-0.00000082,-0.00000089,0.00000154,0.0000018
 4,0.00000018,-0.00000041,0.00000004,0.00001041,-0.00000216,0.00000202,
 -0.00000086,-0.00000199,-0.00000058,-0.00002970,0.00004257,0.00003092,
 0.,0.00000412,0.00000197,0.00010988,-0.00000477,0.00009122,-0.00000490
 ,-0.00002474,-0.00000285,0.00000433,0.00004460,0.00006046,-0.00051450,
 0.00007616,0.00008682,-0.00192230,0.00006733,0.00021251,-0.00003303,-0
 .00022634,0.00009752,0.00071043,0.00020987,0.00124491,0.01661301,-0.00
 120575,-0.00403927,0.01656737,0.00211480,-0.00358214,-0.05328683,0.000
 78396,0.06165378,-0.00000806,-0.00000026,0.00000454,0.00001334,-0.0000
 0894,-0.00000914,-0.00000938,0.00000492,0.00000662,-0.00000882,0.00000
 153,-0.00000137,0.00001090,-0.00000186,0.00000141,0.00000751,0.0000057
 4,0.00000255,-0.00000366,-0.00001165,-0.00000504,0.00001549,0.00000800
 ,0.00001083,-0.00000482,-0.00005286,0.00000004,0.00000011,0.00019338,0
 .00003085,-0.00005559,-0.00008442,-0.00011093,0.00099205,0.00040385,-0
 .00088411,0.00145734,0.00779446,-0.00431582,-0.00019199,-0.00056206,-0
 .00001269,-0.06382285,-0.05539794,0.03048906,0.00000092,-0.00000129,-0
 .00000145,0.00000070,0.00000108,-0.00000037,0.00000155,0.00000050,0.00
 000015,0.00000017,-0.00000064,-0.00000008,0.00000074,-0.00000148,-0.00
 000308,0.00000035,-0.00000063,0.00000015,-0.00000287,0.00000153,-0.000
 00017,-0.00000029,-0.00000020,-0.00000041,0.00000011,-0.00000102,0.000
 00018,-0.00000055,0.00000093,-0.00000041,0.,0.00000076,0.00000106,-0.0
 0000096,-0.00000215,-0.00000420,0.00000324,-0.00000773,-0.00000004,-0.
 00000253,0.00000439,-0.00000587,-0.00002071,-0.00000699,0.00001484,-0.
 00008923,-0.00010054,0.00006133,0.00000896,0.00002005,0.00004051,0.000
 01783,0.00000377,-0.00016768,0.00018870,-0.00005061,0.00029374,0.00029
 534,0.00168492,0.00098385,0.00022272,-0.00017505,-0.00018495,-0.000077
 21,0.00011930,-0.00016650,0.00001561,-0.00010586,0.00011400,0.06483702
 ,-0.00000960,-0.00000308,0.00000615,0.00001511,-0.00000282,-0.00000941
 ,-0.00001146,-0.00000244,0.00000766,-0.00001177,-0.00000234,-0.0000021
 1,0.00001469,0.00000271,0.00000186,0.00000767,0.00000297,0.00000399,-0
 .00000807,-0.00001302,0.00000010,0.00000286,0.00000854,0.00001339,0.00
 004473,0.00001615,-0.00009456,0.00012125,0.00003458,-0.00022167,0.0000
 2237,0.00004352,-0.00001853,-0.00151736,0.00097366,0.00090691,-0.00684
 096,-0.02497481,0.01295556,0.00018681,0.00102049,0.00165053,-0.0552908
 7,-0.22892273,0.10160645,0.00000073,-0.00000074,-0.00000093,0.00000101
 ,0.00000235,-0.00000133,0.00000173,0.00000035,0.00000002,0.00000289,0.
 00000212,-0.00000214,0.00000018,-0.00000191,-0.00000176,0.00000002,0.0
 0000160,0.00000007,-0.00000246,-0.00000163,-0.00000121,-0.00000099,0.,
 0.00000053,-0.00000039,0.00000293,-0.00000181,0.00000088,-0.00000082,0
 .00000229,0.00000509,0.00000358,-0.00000462,-0.00000208,0.00000027,-0.
 00000050,-0.00000245,0.00000869,-0.00000394,-0.00001134,-0.00000636,0.
 00000580,0.00005352,0.00000475,-0.00002161,-0.00009638,0.00033398,-0.0
 0000114,0.00003646,-0.00004128,-0.00001732,0.00021584,-0.00002630,0.00
 004219,0.00093159,0.00026064,-0.00061155,0.00181263,-0.00355982,-0.003
 96171,-0.00024072,0.00049289,-0.00111279,0.00029648,0.00042900,-0.0001
 9911,-0.00001123,-0.00000086,-0.00011063,0.06010590,0.25374266,0.00000
 316,0.00000152,-0.00000265,-0.00000595,0.00000078,0.00000435,0.0000049
 2,0.00000146,-0.00000453,0.00000623,0.00000204,0.00000115,-0.00000759,
 -0.00000114,-0.00000132,-0.00000482,-0.00000124,-0.00000085,0.00000255
 ,0.00001098,0.00000097,-0.00002749,-0.00000550,-0.00000357,0.00000245,
 0.00009783,-0.00003081,-0.00021587,-0.00022396,0.00004955,-0.00003003,
 0.00004120,-0.00001142,-0.00081543,0.00010873,0.00080242,-0.00519144,-
 0.01608977,0.00836763,-0.00011008,-0.00046114,0.00188330,0.03055606,0.
 10196031,-0.10379257,-0.00000024,0.00000023,0.00000045,0.,-0.00000111,
 0.00000070,-0.00000074,0.,0.00000007,-0.00000144,-0.00000121,0.0000016
 7,-0.00000008,0.00000110,0.00000055,0.00000004,-0.00000121,-0.00000029
 ,0.00000123,0.00000046,0.00000110,0.00000037,-0.00000054,-0.00000032,0
 .00000003,-0.00000183,0.00000037,0.00000034,0.00000129,-0.00000146,-0.
 00000197,-0.00000194,0.00000372,0.00000218,-0.00000256,0.00000049,-0.0
 0000253,-0.00000388,-0.00000086,0.00000388,0.00000743,-0.00000385,0.00
 001877,0.00000116,0.00001268,0.00006282,0.00005861,-0.00008085,0.00003
 402,-0.00000527,-0.00001410,0.00010333,0.00019208,-0.00012479,-0.00003
 287,0.00028534,0.00003585,0.00087333,-0.00364884,-0.00130006,0.0002210
 3,0.00039670,-0.00007832,0.00016993,0.00019396,0.00013118,-0.00005219,
 -0.00000488,-0.00009789,-0.03466859,-0.11038058,0.11035077,0.00003645,
 0.00000053,-0.00001702,-0.00006142,0.00003489,0.00003333,0.00004448,-0
 .00000949,-0.00001993,0.00003576,-0.00000578,0.00000732,-0.00004810,-0
 .00000165,-0.00000764,-0.00004078,-0.00003228,-0.00001049,0.00002426,0
 .00007086,0.00002707,-0.00010574,-0.00010350,-0.00003095,0.00001735,0.
 00032440,0.00008485,-0.00037170,-0.00105744,-0.00035870,0.00012268,0.0
 0027382,0.00055388,0.00050741,0.00284394,0.00074249,-0.00823777,-0.000
 63989,0.00043314,0.00044910,-0.00074215,-0.00070404,-0.30138221,0.0028
 5025,0.04099970,-0.00000397,0.00000465,0.00000565,-0.00000395,-0.00000
 296,0.00000155,-0.00000688,-0.00000191,-0.00000150,-0.00000087,0.00000
 237,-0.00000086,-0.00000114,0.00000543,0.00001135,-0.00000207,0.000002
 64,0.00000006,0.00001161,0.00000237,0.00000184,0.00000120,0.00000006,0
 .00000070,0.00000026,0.00000424,-0.00000183,0.,-0.00000402,-0.00000395
 ,-0.00000282,-0.00000272,0.00000021,0.00000835,0.00000449,0.00001573,-
 0.00000096,0.00001276,-0.00000785,0.00001232,-0.00000555,0.00000883,0.
 00000261,-0.00001085,0.00000515,-0.00000197,0.00008035,-0.00001666,0.0
 0000601,-0.00002661,-0.00010253,0.00051903,-0.00008579,0.00017379,0.00
 012031,-0.00013525,0.00001927,0.00040319,0.00045743,-0.00023517,-0.000
 00998,0.00003607,0.00002509,0.00037011,0.00010722,-0.00008794,0.000728
 18,0.00004643,0.00043360,-0.00743585,0.00018920,0.00061186,0.32807890,
 -0.00001939,-0.00000219,0.00000936,0.00003737,-0.00001830,-0.00001840,
 -0.00002952,-0.00000247,0.00001010,-0.00001885,0.00000138,-0.00000744,
 0.00002740,0.00000136,0.00000766,0.00004385,0.00002544,0.00000871,-0.0
 0001573,-0.00009160,-0.00002969,0.00018523,0.00010643,0.00005941,0.000
 02497,-0.00055572,-0.00019738,0.00162173,0.00094733,-0.00015682,-0.000
 16166,-0.00009818,-0.00024484,0.00035238,-0.00445599,-0.00302414,0.027
 13891,-0.00031571,-0.00437302,0.00059754,0.00082048,0.00107690,0.00166
 095,-0.04623770,-0.00011777,0.00000270,-0.00000234,-0.00000312,0.00000
 195,0.00000200,-0.00000109,0.00000415,0.00000080,0.00000036,0.00000122
 ,-0.00000031,-0.00000037,-0.00000019,-0.00000252,-0.00000608,0.0000013
 4,-0.00000128,-0.00000005,-0.00000607,-0.00000179,-0.00000262,-0.00000
 108,0.00000073,-0.00000010,-0.00000058,-0.00000191,0.00000138,0.000000
 88,0.00000195,0.00000598,0.00000174,0.00000334,-0.00000317,-0.00000868
 ,0.00000182,-0.00001079,0.00000003,-0.00001161,0.00000786,-0.00001078,
 0.00000273,0.00001736,-0.00000974,0.00001115,-0.00002245,-0.00006370,0
 .00003223,0.00006622,0.00002204,-0.00000758,0.00006114,-0.00029165,-0.
 00024507,0.00008210,0.00033101,0.00009522,-0.00038210,-0.00018333,0.00
 097844,0.00090529,-0.00020513,-0.00000559,-0.00005842,-0.00003620,-0.0
 0010135,0.00036926,-0.00057828,0.00014729,-0.00028578,-0.02770768,0.00
 058106,0.00347509,-0.00414816,0.04941654,-0.00001614,-0.00000182,0.000
 00772,0.00002953,-0.00001411,-0.00001475,-0.00002236,-0.00000199,0.000
 00721,-0.00001449,0.00000056,-0.00000550,0.00002083,0.00000190,0.00000
 500,0.00003428,0.00001943,0.00000904,-0.00001118,-0.00007148,-0.000029
 26,0.00016023,0.00008514,0.00004736,-0.00001403,-0.00044125,-0.0002017
 4,0.00122682,0.00046123,0.00059396,-0.00021951,0.00010280,-0.00011683,
 -0.00024366,-0.00370567,-0.00189019,0.01774541,0.00085469,-0.00423530,
 0.00137750,0.00058900,0.00075925,0.03993610,-0.00024868,-0.05356273,0.
 00000213,-0.00000192,-0.00000229,0.00000182,0.00000180,-0.00000089,0.0
 0000316,0.00000067,0.00000035,0.00000087,-0.00000030,-0.00000013,-0.00
 000005,-0.00000194,-0.00000449,0.00000098,-0.00000076,0.00000002,-0.00
 000460,-0.00000189,-0.00000170,-0.00000085,0.00000051,-0.00000054,-0.0
 0000049,-0.00000150,0.00000063,0.00000062,0.00000130,0.00000517,0.0000
 0182,0.00000299,-0.00000172,-0.00000492,0.00000188,-0.00000877,-0.0000
 0220,-0.00000512,0.00000460,-0.00000517,0.00000073,0.00001831,0.000001
 61,0.00001686,-0.00000931,-0.00001120,-0.00004635,0.00000964,0.0000287
 1,0.00002239,0.00002831,0.00023544,0.00003550,0.00036547,-0.00032007,0
 .00007691,0.00017281,-0.00063195,0.00027437,0.00056561,0.00000664,-0.0
 0000774,-0.00008714,-0.00021047,0.00005738,0.00023464,-0.00067242,-0.0
 0033968,-0.00027331,0.01558185,-0.00048510,-0.00301215,-0.04532563,0.0
 0282518,0.05517129,-0.00000844,0.00000044,0.00000301,0.00001603,-0.000
 00907,-0.00000642,-0.00001276,0.00000284,0.00000397,-0.00000896,0.0000
 0085,-0.00000372,0.00001348,0.00000028,0.00000543,0.00001096,0.0000088
 6,0.00000148,-0.00000693,-0.00001817,-0.00000642,0.00002266,0.00002748
 ,-0.00000208,0.00001130,-0.00006010,-0.00002219,0.00016864,0.00004707,
 0.00000718,0.00002614,-0.00005327,-0.00004712,0.00100074,-0.00006616,0
 .00123009,0.00206876,-0.00078854,0.00782263,-0.00020591,0.00075507,0.0
 0086607,-0.10341389,0.00322831,-0.10736580,0.00000090,-0.00000096,-0.0
 0000143,0.00000065,0.00000020,-0.00000023,0.00000207,0.00000022,0.0000
 0040,-0.00000002,-0.00000095,0.00000067,-0.00000025,-0.00000049,-0.000
 00309,0.00000075,-0.00000143,-0.00000021,-0.00000334,-0.00000038,-0.00
 000217,-0.00000021,0.00000036,0.00000105,-0.00000018,-0.00000209,0.000
 00062,0.00000142,0.00000193,0.00000201,-0.00000039,-0.00000016,0.00000
 077,-0.00000226,-0.00000157,-0.00000195,-0.00000010,-0.00000725,0.0000
 0267,-0.00000987,0.00000418,-0.00000742,0.00000112,0.00000008,0.000000
 92,-0.00000020,-0.00001286,0.00000782,-0.00002439,0.00000596,0.0000233
 8,-0.00011203,0.00022480,0.00000299,-0.00003473,0.00005610,0.00003699,
 0.00016191,-0.00049179,-0.00034311,-0.00009157,0.00011575,-0.00012842,
 0.00059579,0.00019785,0.00015586,0.00048757,0.00015302,0.00019373,0.00
 364467,-0.00001150,0.00849083,-0.01378141,0.00143898,-0.02866497,0.109
 48232,0.00000278,0.00000089,-0.00000201,-0.00000369,0.00000144,0.00000
 387,0.00000218,0.00000005,-0.00000253,0.00000422,0.00000017,-0.0000005
 7,-0.00000410,-0.00000033,0.00000086,-0.00000234,-0.00000061,-0.000002
 47,0.00000061,0.00000540,0.00000366,-0.00000605,-0.00000450,-0.0000110
 7,0.00001266,0.00001441,0.00001133,-0.00023997,-0.00009938,-0.00006912
 ,0.00021845,0.00003043,0.00024544,-0.00143901,0.00055912,0.00007663,-0
 .01287662,0.00084565,-0.02403955,0.00227647,-0.00456689,-0.00243772,0.
 00378375,-0.04688842,0.00747202,-0.00000041,0.00000034,0.00000028,-0.0
 0000034,-0.00000076,0.00000034,-0.00000030,-0.00000015,0.00000003,-0.0
 0000067,-0.00000051,0.00000083,-0.00000028,0.00000136,0.00000062,0.000
 00021,-0.00000090,-0.00000026,0.00000069,0.00000009,-0.00000008,-0.000
 00032,0.00000033,0.00000128,-0.00000007,-0.00000137,0.00000022,0.00000
 392,0.00000124,0.00000060,-0.00000162,-0.00000118,0.00000192,-0.000006
 37,0.00000590,0.00000911,-0.00000057,-0.00000648,0.00000016,0.00002522
 ,0.00000608,0.00000934,-0.00000746,-0.00000530,0.00001292,-0.00001277,
 -0.00004785,0.00000899,-0.00007669,0.00000430,0.00000343,0.00051718,0.
 00030533,0.00029689,0.00008603,0.00004541,0.00009499,-0.00056920,0.001
 05482,0.00071200,0.00015915,0.00020804,-0.00035461,-0.00082759,0.00028
 699,-0.00175251,0.00013833,-0.00008494,0.00031991,0.01392686,-0.000408
 55,0.02399829,-0.00033840,-0.00101853,-0.00005593,-0.00474391,0.049758
 88,0.00000481,0.00000036,-0.00000436,-0.00000291,0.00000686,0.00000956
 ,-0.00000112,-0.00000621,-0.00000625,0.00000341,-0.00000684,-0.0000059
 2,0.00000008,0.00000366,0.00000947,0.00000281,-0.00000097,-0.00000096,
 -0.00000335,-0.00000553,-0.00000712,0.00002759,0.00000152,0.00000769,0
 .00001903,-0.00004952,-0.00007120,0.00017086,-0.00033825,0.00010582,0.
 00031838,0.00022606,0.00048260,-0.00162139,0.00076647,-0.00011377,-0.0
 0840979,0.00218036,-0.01567001,0.00217031,-0.00441194,-0.00108128,-0.1
 0625425,0.00624221,-0.25006558,-0.00000086,0.00000132,0.00000089,-0.00
 000111,-0.00000115,0.00000002,0.00000037,-0.00000115,-0.00000009,0.000
 00067,0.00000087,-0.00000002,-0.00000221,0.00000325,0.00000216,0.00000
 022,0.00000007,-0.00000026,0.00000085,-0.00000196,-0.00000580,-0.00000
 077,0.00000271,0.00000434,-0.00000069,-0.00000004,-0.00000077,0.000009
 13,-0.00000040,0.00000837,-0.00000017,-0.00000038,-0.00000089,-0.00001
 248,0.00001842,0.00001815,-0.00000276,-0.00000047,-0.00000245,0.000049
 32,-0.00000937,0.00004844,0.00000269,-0.00000165,0.00000095,-0.0000087
 9,0.00001113,-0.00001611,-0.00012751,0.00002490,-0.00002492,0.00125202
 ,-0.00006340,0.00052665,-0.00002211,-0.00002965,0.00011760,0.00001617,
 -0.00023622,0.00101003,0.00015054,0.00007663,0.00048611,-0.00105331,0.
 00003350,-0.00102818,-0.00006141,0.00010347,0.00023682,-0.00709466,0.0
 0006255,-0.01308628,0.00273622,-0.00004372,0.00545236,0.11774618,-0.00
 455755,0.27266420\\0.00000062,0.00000240,-0.00000359,-0.00000032,-0.00
 000047,0.00000461,0.00000112,0.00000404,-0.00000261,-0.00000471,-0.000
 00415,0.00000538,0.00000347,0.00000286,0.00000035,0.00000335,-0.000005
 19,-0.00000029,0.00000044,0.00000821,-0.00000078,-0.00000274,-0.000004
 96,-0.00000458,0.00000020,0.00000694,0.00000200,0.00000175,-0.00000299
 ,0.00000412,-0.00000405,0.00000051,-0.00000278,0.00000285,0.00000651,-
 0.00000396,-0.00000355,-0.00000140,0.00000854,0.00000122,0.00000524,-0
 .00001235,0.00000295,-0.00000246,-0.00000283,0.00000190,-0.00000067,-0
 .00000057,-0.00000173,-0.00000144,-0.00000169,-0.00000189,-0.00000140,
 0.00000023,-0.00000228,-0.00000231,-0.00000116,0.00000229,0.00000036,-
 0.00000274,-0.00000152,-0.00000052,-0.00000289,0.00000198,0.00000019,-
 0.00000143,-0.00000190,0.00000060,0.00000069,0.00000057,-0.00000013,0.
 00000070,-0.00000170,-0.00000367,0.00000035,-0.00000100,0.00000127,0.0
 0000209,0.00000021,-0.00000033,0.00000127,0.00000087,0.00000131,0.0000
 0078,0.00000131,0.00000002,-0.00000085,-0.00000173,-0.00000072,-0.0000
 0083,0.00000045,0.00000032,-0.00000019,0.00000282,-0.00000149,0.000000
 62,-0.00000009,-0.00000188,0.00000121,-0.00000030,-0.00000122,0.000000
 13,-0.00000035,0.00000059,-0.00000010,-0.00000041,-0.00000195,0.000005
 12,-0.00000157,-0.00000171,0.00000266,-0.00000029,-0.00000236,0.000002
 24,0.00000089,0.00000029,0.00000099,0.00000077,0.00000058,0.00000030,0
 .00000012,0.00000119,0.00000182\\\@


 This summer one third of the nation will be ill-housed
 ill-nourished and ill-clad. Only they call it a vacation.
 -- Jonas Salk
 Job cpu time:       0 days 10 hours 58 minutes 34.4 seconds.
 Elapsed time:       0 days  2 hours 45 minutes  7.5 seconds.
 File lengths (MBytes):  RWF=    877 Int=      0 D2E=      0 Chk=     26 Scr=      1
 Normal termination of Gaussian 16 at Tue May 23 15:22:32 2023.
### All Done ###
