### Starting Gaussian ###
 Entering Gaussian System, Link 0=g16
 Initial command:
 /cluster/software/gaussian/gaussian-16-A.03/avx2/g16/l1.exe "/local/scratch/linjian/Gau-7863.inp" -scrdir="/local/scratch/linjian/"
 Entering Link 1 = /cluster/software/gaussian/gaussian-16-A.03/avx2/g16/l1.exe PID=      7864.
  
 Copyright (c) 1988,1990,1992,1993,1995,1998,2003,2009,2016,
            Gaussian, Inc.  All Rights Reserved.
  
 This is part of the Gaussian(R) 16 program.  It is based on
 the Gaussian(R) 09 system (copyright 2009, Gaussian, Inc.),
 the Gaussian(R) 03 system (copyright 2003, Gaussian, Inc.),
 the Gaussian(R) 98 system (copyright 1998, Gaussian, Inc.),
 the Gaussian(R) 94 system (copyright 1995, Gaussian, Inc.),
 the Gaussian 92(TM) system (copyright 1992, Gaussian, Inc.),
 the Gaussian 90(TM) system (copyright 1990, Gaussian, Inc.),
 the Gaussian 88(TM) system (copyright 1988, Gaussian, Inc.),
 the Gaussian 86(TM) system (copyright 1986, Carnegie Mellon
 University), and the Gaussian 82(TM) system (copyright 1983,
 Carnegie Mellon University). Gaussian is a federally registered
 trademark of Gaussian, Inc.
  
 This software contains proprietary and confidential information,
 including trade secrets, belonging to Gaussian, Inc.
  
 This software is provided under written license and may be
 used, copied, transmitted, or stored only in accord with that
 written license.
  
 The following legend is applicable only to US Government
 contracts under FAR:
  
                    RESTRICTED RIGHTS LEGEND
  
 Use, reproduction and disclosure by the US Government is
 subject to restrictions as set forth in subparagraphs (a)
 and (c) of the Commercial Computer Software - Restricted
 Rights clause in FAR 52.227-19.
  
 Gaussian, Inc.
 340 Quinnipiac St., Bldg. 40, Wallingford CT 06492
  
  
 ---------------------------------------------------------------
 Warning -- This program may not be used in any manner that
 competes with the business of Gaussian, Inc. or will provide
 assistance to any competitor of Gaussian, Inc.  The licensee
 of this program is prohibited from giving any competitor of
 Gaussian, Inc. access to this program.  By using this program,
 the user acknowledges that Gaussian, Inc. is engaged in the
 business of creating and licensing software in the field of
 computational chemistry and represents and warrants to the
 licensee that it is not a competitor of Gaussian, Inc. and that
 it will not use this program in any manner prohibited above.
 ---------------------------------------------------------------
  

 Cite this work as:
 Gaussian 16, Revision A.03,
 M. J. Frisch, G. W. Trucks, H. B. Schlegel, G. E. Scuseria, 
 M. A. Robb, J. R. Cheeseman, G. Scalmani, V. Barone, 
 G. A. Petersson, H. Nakatsuji, X. Li, M. Caricato, A. V. Marenich, 
 J. Bloino, B. G. Janesko, R. Gomperts, B. Mennucci, H. P. Hratchian, 
 J. V. Ortiz, A. F. Izmaylov, J. L. Sonnenberg, D. Williams-Young, 
 F. Ding, F. Lipparini, F. Egidi, J. Goings, B. Peng, A. Petrone, 
 T. Henderson, D. Ranasinghe, V. G. Zakrzewski, J. Gao, N. Rega, 
 G. Zheng, W. Liang, M. Hada, M. Ehara, K. Toyota, R. Fukuda, 
 J. Hasegawa, M. Ishida, T. Nakajima, Y. Honda, O. Kitao, H. Nakai, 
 T. Vreven, K. Throssell, J. A. Montgomery, Jr., J. E. Peralta, 
 F. Ogliaro, M. J. Bearpark, J. J. Heyd, E. N. Brothers, K. N. Kudin, 
 V. N. Staroverov, T. A. Keith, R. Kobayashi, J. Normand, 
 K. Raghavachari, A. P. Rendell, J. C. Burant, S. S. Iyengar, 
 J. Tomasi, M. Cossi, J. M. Millam, M. Klene, C. Adamo, R. Cammi, 
 J. W. Ochterski, R. L. Martin, K. Morokuma, O. Farkas, 
 J. B. Foresman, and D. J. Fox, Gaussian, Inc., Wallingford CT, 2016.
 
 ******************************************
 Gaussian 16:  ES64L-G16RevA.03 25-Dec-2016
                22-May-2023 
 ******************************************
 %chk=CONCqCqCrOrCqNrCOCqCrCqCrC.chk
 %NProcShared=20
 Will use up to   20 processors via shared memory.
 -----------------------------
 # opt freq b3lyp/6-31g(2df,p)
 -----------------------------
 1/18=20,19=15,26=3,38=1/1,3;
 2/9=110,12=2,17=6,18=5,40=1/2;
 3/5=1,6=6,7=104,11=2,25=1,30=1,71=1,74=-5/1,2,3;
 4//1;
 5/5=2,38=5/2;
 6/7=2,8=2,9=2,10=2,28=1/1;
 7//1,2,3,16;
 1/18=20,19=15,26=3/3(2);
 2/9=110/2;
 99//99;
 2/9=110/2;
 3/5=1,6=6,7=104,11=2,25=1,30=1,71=1,74=-5/1,2,3;
 4/5=5,16=3,69=1/1;
 5/5=2,38=5/2;
 7//1,2,3,16;
 1/18=20,19=15,26=3/3(-5);
 2/9=110/2;
 6/7=2,8=2,9=2,10=2,19=2,28=1/1;
 99/9=1/99;
 -------------------
 Title Card Required
 -------------------
 Symbolic Z-matrix:
 Charge =  0 Multiplicity = 1
 C                     0.8889    0.07766   0.01417 
 O                     2.30257  -0.0327   -0.13775 
 N                     2.77735  -1.03164   0.80825 
 C                     4.26896  -0.95579   0.83285 
 C                     4.78959   0.43631   1.39077 
 C                     6.2973    0.70233   1.35732 
 O                     4.27412   1.53283   0.61049 
 C                     4.7426   -2.24413   1.62177 
 N                     4.20471  -3.50109   1.05195 
 C                     6.26459  -2.32302   1.64839 
 O                     6.83444  -3.36696   2.41667 
 C                     8.27292  -3.26699   2.44555 
 C                     8.77041  -1.93089   3.02957 
 C                     8.77864  -4.45482   3.27723 
 C                     8.23469  -5.76977   2.71067 
 C                     10.30477  -4.49133   3.3162 
 H                     0.54232   0.93129  -0.57255 
 H                     0.60407   0.22476   1.06166 
 H                     0.41991  -0.83087  -0.37731 
 H                     2.52625  -1.88799   0.31694 
 H                     4.60963  -1.04848  -0.2082 
 H                     4.42659   0.57078   2.41414 
 H                     6.74304   0.34374   0.42253 
 H                     6.82434   0.2861    2.21201 
 H                     6.51546   1.77241   1.42835 
 H                     4.44724   1.32771  -0.31839 
 H                     4.38259  -2.18607   2.65667 
 H                     4.48678  -3.60708   0.08566 
 H                     3.18722  -3.49834   1.10495 
 H                     6.54304  -1.45933   2.20818 
 H                     6.68914  -2.30863   0.63849 
 H                     8.63876  -3.35951   1.41422 
 H                     8.35224  -1.75996   4.02737 
 H                     8.48721  -1.08159   2.4045 
 H                     9.85884  -1.87277   3.07929 
 H                     8.39442  -4.35392   4.30139 
 H                     8.55593  -5.90801   1.67279 
 H                     7.13942  -5.7924    2.72785 
 H                     8.58775  -6.62025   3.30018 
 H                     10.71471  -4.54667   2.30199 
 H                     10.66045  -5.35252   3.88625 
 H                     10.72028  -3.60219   3.79904 
 

 GradGradGradGradGradGradGradGradGradGradGradGradGradGradGradGradGradGrad
 Berny optimization.
 Initialization pass.
                           ----------------------------
                           !    Initial Parameters    !
                           ! (Angstroms and Degrees)  !
 --------------------------                            --------------------------
 ! Name  Definition              Value          Derivative Info.                !
 --------------------------------------------------------------------------------
 ! R1    R(1,2)                  1.4261         estimate D2E/DX2                !
 ! R2    R(1,17)                 1.0923         estimate D2E/DX2                !
 ! R3    R(1,18)                 1.0954         estimate D2E/DX2                !
 ! R4    R(1,19)                 1.0948         estimate D2E/DX2                !
 ! R5    R(2,3)                  1.4554         estimate D2E/DX2                !
 ! R6    R(3,4)                  1.4937         estimate D2E/DX2                !
 ! R7    R(3,20)                 1.0187         estimate D2E/DX2                !
 ! R8    R(4,5)                  1.5875         estimate D2E/DX2                !
 ! R9    R(4,8)                  1.5832         estimate D2E/DX2                !
 ! R10   R(4,21)                 1.0993         estimate D2E/DX2                !
 ! R11   R(5,6)                  1.5314         estimate D2E/DX2                !
 ! R12   R(5,7)                  1.4411         estimate D2E/DX2                !
 ! R13   R(5,22)                 1.0941         estimate D2E/DX2                !
 ! R14   R(6,23)                 1.0959         estimate D2E/DX2                !
 ! R15   R(6,24)                 1.087          estimate D2E/DX2                !
 ! R16   R(6,25)                 1.0944         estimate D2E/DX2                !
 ! R17   R(7,26)                 0.9669         estimate D2E/DX2                !
 ! R18   R(8,9)                  1.4812         estimate D2E/DX2                !
 ! R19   R(8,10)                 1.5243         estimate D2E/DX2                !
 ! R20   R(8,27)                 1.0973         estimate D2E/DX2                !
 ! R21   R(9,28)                 1.0122         estimate D2E/DX2                !
 ! R22   R(9,29)                 1.0189         estimate D2E/DX2                !
 ! R23   R(10,11)                1.4159         estimate D2E/DX2                !
 ! R24   R(10,30)                1.0662         estimate D2E/DX2                !
 ! R25   R(10,31)                1.0956         estimate D2E/DX2                !
 ! R26   R(11,12)                1.4422         estimate D2E/DX2                !
 ! R27   R(12,13)                1.5407         estimate D2E/DX2                !
 ! R28   R(12,14)                1.5357         estimate D2E/DX2                !
 ! R29   R(12,32)                1.0982         estimate D2E/DX2                !
 ! R30   R(13,33)                1.0953         estimate D2E/DX2                !
 ! R31   R(13,34)                1.0919         estimate D2E/DX2                !
 ! R32   R(13,35)                1.0911         estimate D2E/DX2                !
 ! R33   R(14,15)                1.5317         estimate D2E/DX2                !
 ! R34   R(14,16)                1.5271         estimate D2E/DX2                !
 ! R35   R(14,36)                1.0985         estimate D2E/DX2                !
 ! R36   R(15,37)                1.0952         estimate D2E/DX2                !
 ! R37   R(15,38)                1.0956         estimate D2E/DX2                !
 ! R38   R(15,39)                1.0934         estimate D2E/DX2                !
 ! R39   R(16,40)                1.0953         estimate D2E/DX2                !
 ! R40   R(16,41)                1.0923         estimate D2E/DX2                !
 ! R41   R(16,42)                1.0938         estimate D2E/DX2                !
 ! A1    A(2,1,17)             108.5298         estimate D2E/DX2                !
 ! A2    A(2,1,18)             111.716          estimate D2E/DX2                !
 ! A3    A(2,1,19)             108.8039         estimate D2E/DX2                !
 ! A4    A(17,1,18)            109.038          estimate D2E/DX2                !
 ! A5    A(17,1,19)            108.6958         estimate D2E/DX2                !
 ! A6    A(18,1,19)            109.9971         estimate D2E/DX2                !
 ! A7    A(1,2,3)              107.8936         estimate D2E/DX2                !
 ! A8    A(2,3,4)              107.554          estimate D2E/DX2                !
 ! A9    A(2,3,20)             100.5494         estimate D2E/DX2                !
 ! A10   A(4,3,20)             107.2634         estimate D2E/DX2                !
 ! A11   A(3,4,5)              112.1972         estimate D2E/DX2                !
 ! A12   A(3,4,8)              105.404          estimate D2E/DX2                !
 ! A13   A(3,4,21)             106.8329         estimate D2E/DX2                !
 ! A14   A(5,4,8)              116.1256         estimate D2E/DX2                !
 ! A15   A(5,4,21)             107.7657         estimate D2E/DX2                !
 ! A16   A(8,4,21)             108.0942         estimate D2E/DX2                !
 ! A17   A(4,5,6)              117.8744         estimate D2E/DX2                !
 ! A18   A(4,5,7)              111.0768         estimate D2E/DX2                !
 ! A19   A(4,5,22)             109.1277         estimate D2E/DX2                !
 ! A20   A(6,5,7)              102.0143         estimate D2E/DX2                !
 ! A21   A(6,5,22)             109.0095         estimate D2E/DX2                !
 ! A22   A(7,5,22)             107.1116         estimate D2E/DX2                !
 ! A23   A(5,6,23)             111.237          estimate D2E/DX2                !
 ! A24   A(5,6,24)             113.1839         estimate D2E/DX2                !
 ! A25   A(5,6,25)             111.3891         estimate D2E/DX2                !
 ! A26   A(23,6,24)            110.3761         estimate D2E/DX2                !
 ! A27   A(23,6,25)            107.1101         estimate D2E/DX2                !
 ! A28   A(24,6,25)            103.1045         estimate D2E/DX2                !
 ! A29   A(5,7,26)             107.1391         estimate D2E/DX2                !
 ! A30   A(4,8,9)              112.9681         estimate D2E/DX2                !
 ! A31   A(4,8,10)             110.459          estimate D2E/DX2                !
 ! A32   A(4,8,27)             109.194          estimate D2E/DX2                !
 ! A33   A(9,8,10)             108.9898         estimate D2E/DX2                !
 ! A34   A(9,8,27)             106.7736         estimate D2E/DX2                !
 ! A35   A(10,8,27)            108.2929         estimate D2E/DX2                !
 ! A36   A(8,9,28)             110.7885         estimate D2E/DX2                !
 ! A37   A(8,9,29)             109.8981         estimate D2E/DX2                !
 ! A38   A(28,9,29)            109.1619         estimate D2E/DX2                !
 ! A39   A(8,10,11)            116.7114         estimate D2E/DX2                !
 ! A40   A(8,10,30)            103.1798         estimate D2E/DX2                !
 ! A41   A(8,10,31)            111.7247         estimate D2E/DX2                !
 ! A42   A(11,10,30)           101.9615         estimate D2E/DX2                !
 ! A43   A(11,10,31)           110.7254         estimate D2E/DX2                !
 ! A44   A(30,10,31)           111.8457         estimate D2E/DX2                !
 ! A45   A(10,11,12)           111.1723         estimate D2E/DX2                !
 ! A46   A(11,12,13)           112.9396         estimate D2E/DX2                !
 ! A47   A(11,12,14)           106.5995         estimate D2E/DX2                !
 ! A48   A(11,12,32)           107.9155         estimate D2E/DX2                !
 ! A49   A(13,12,14)           111.0476         estimate D2E/DX2                !
 ! A50   A(13,12,32)           108.7521         estimate D2E/DX2                !
 ! A51   A(14,12,32)           109.4949         estimate D2E/DX2                !
 ! A52   A(12,13,33)           110.9391         estimate D2E/DX2                !
 ! A53   A(12,13,34)           111.9492         estimate D2E/DX2                !
 ! A54   A(12,13,35)           112.6793         estimate D2E/DX2                !
 ! A55   A(33,13,34)           107.5236         estimate D2E/DX2                !
 ! A56   A(33,13,35)           109.3308         estimate D2E/DX2                !
 ! A57   A(34,13,35)           104.0863         estimate D2E/DX2                !
 ! A58   A(12,14,15)           110.2897         estimate D2E/DX2                !
 ! A59   A(12,14,16)           111.1874         estimate D2E/DX2                !
 ! A60   A(12,14,36)           108.5834         estimate D2E/DX2                !
 ! A61   A(15,14,16)           110.1107         estimate D2E/DX2                !
 ! A62   A(15,14,36)           107.428          estimate D2E/DX2                !
 ! A63   A(16,14,36)           109.1448         estimate D2E/DX2                !
 ! A64   A(14,15,37)           110.777          estimate D2E/DX2                !
 ! A65   A(14,15,38)           111.5277         estimate D2E/DX2                !
 ! A66   A(14,15,39)           110.7124         estimate D2E/DX2                !
 ! A67   A(37,15,38)           107.7862         estimate D2E/DX2                !
 ! A68   A(37,15,39)           108.5446         estimate D2E/DX2                !
 ! A69   A(38,15,39)           107.3541         estimate D2E/DX2                !
 ! A70   A(14,16,40)           110.586          estimate D2E/DX2                !
 ! A71   A(14,16,41)           110.9526         estimate D2E/DX2                !
 ! A72   A(14,16,42)           111.8071         estimate D2E/DX2                !
 ! A73   A(40,16,41)           108.7555         estimate D2E/DX2                !
 ! A74   A(40,16,42)           107.9174         estimate D2E/DX2                !
 ! A75   A(41,16,42)           106.6684         estimate D2E/DX2                !
 ! D1    D(17,1,2,3)           171.097          estimate D2E/DX2                !
 ! D2    D(18,1,2,3)            50.8452         estimate D2E/DX2                !
 ! D3    D(19,1,2,3)           -70.787          estimate D2E/DX2                !
 ! D4    D(1,2,3,4)           -169.2964         estimate D2E/DX2                !
 ! D5    D(1,2,3,20)            78.6471         estimate D2E/DX2                !
 ! D6    D(2,3,4,5)             64.4744         estimate D2E/DX2                !
 ! D7    D(2,3,4,8)           -168.2442         estimate D2E/DX2                !
 ! D8    D(2,3,4,21)           -53.414          estimate D2E/DX2                !
 ! D9    D(20,3,4,5)           171.8953         estimate D2E/DX2                !
 ! D10   D(20,3,4,8)           -60.8233         estimate D2E/DX2                !
 ! D11   D(20,3,4,21)           54.007          estimate D2E/DX2                !
 ! D12   D(3,4,5,6)           -174.7117         estimate D2E/DX2                !
 ! D13   D(3,4,5,7)            -57.5695         estimate D2E/DX2                !
 ! D14   D(3,4,5,22)            60.2976         estimate D2E/DX2                !
 ! D15   D(8,4,5,6)             63.9795         estimate D2E/DX2                !
 ! D16   D(8,4,5,7)           -178.8784         estimate D2E/DX2                !
 ! D17   D(8,4,5,22)           -61.0113         estimate D2E/DX2                !
 ! D18   D(21,4,5,6)           -57.3788         estimate D2E/DX2                !
 ! D19   D(21,4,5,7)            59.7634         estimate D2E/DX2                !
 ! D20   D(21,4,5,22)          177.6304         estimate D2E/DX2                !
 ! D21   D(3,4,8,9)             54.4807         estimate D2E/DX2                !
 ! D22   D(3,4,8,10)           176.8466         estimate D2E/DX2                !
 ! D23   D(3,4,8,27)           -64.1674         estimate D2E/DX2                !
 ! D24   D(5,4,8,9)            179.3422         estimate D2E/DX2                !
 ! D25   D(5,4,8,10)           -58.2919         estimate D2E/DX2                !
 ! D26   D(5,4,8,27)            60.6942         estimate D2E/DX2                !
 ! D27   D(21,4,8,9)           -59.4745         estimate D2E/DX2                !
 ! D28   D(21,4,8,10)           62.8914         estimate D2E/DX2                !
 ! D29   D(21,4,8,27)         -178.1225         estimate D2E/DX2                !
 ! D30   D(4,5,6,23)            40.9143         estimate D2E/DX2                !
 ! D31   D(4,5,6,24)           -84.0313         estimate D2E/DX2                !
 ! D32   D(4,5,6,25)           160.334          estimate D2E/DX2                !
 ! D33   D(7,5,6,23)           -80.9893         estimate D2E/DX2                !
 ! D34   D(7,5,6,24)           154.0652         estimate D2E/DX2                !
 ! D35   D(7,5,6,25)            38.4305         estimate D2E/DX2                !
 ! D36   D(22,5,6,23)          165.9633         estimate D2E/DX2                !
 ! D37   D(22,5,6,24)           41.0178         estimate D2E/DX2                !
 ! D38   D(22,5,6,25)          -74.6169         estimate D2E/DX2                !
 ! D39   D(4,5,7,26)           -50.1875         estimate D2E/DX2                !
 ! D40   D(6,5,7,26)            76.2751         estimate D2E/DX2                !
 ! D41   D(22,5,7,26)         -169.271          estimate D2E/DX2                !
 ! D42   D(4,8,9,28)            58.8219         estimate D2E/DX2                !
 ! D43   D(4,8,9,29)           -61.8953         estimate D2E/DX2                !
 ! D44   D(10,8,9,28)          -64.3622         estimate D2E/DX2                !
 ! D45   D(10,8,9,29)          174.9207         estimate D2E/DX2                !
 ! D46   D(27,8,9,28)          178.8675         estimate D2E/DX2                !
 ! D47   D(27,8,9,29)           58.1503         estimate D2E/DX2                !
 ! D48   D(4,8,10,11)          174.9171         estimate D2E/DX2                !
 ! D49   D(4,8,10,30)           64.0545         estimate D2E/DX2                !
 ! D50   D(4,8,10,31)          -56.2571         estimate D2E/DX2                !
 ! D51   D(9,8,10,11)          -60.4133         estimate D2E/DX2                !
 ! D52   D(9,8,10,30)         -171.2759         estimate D2E/DX2                !
 ! D53   D(9,8,10,31)           68.4126         estimate D2E/DX2                !
 ! D54   D(27,8,10,11)          55.3852         estimate D2E/DX2                !
 ! D55   D(27,8,10,30)         -55.4774         estimate D2E/DX2                !
 ! D56   D(27,8,10,31)        -175.789          estimate D2E/DX2                !
 ! D57   D(8,10,11,12)        -175.4169         estimate D2E/DX2                !
 ! D58   D(30,10,11,12)        -63.8543         estimate D2E/DX2                !
 ! D59   D(31,10,11,12)         55.2791         estimate D2E/DX2                !
 ! D60   D(10,11,12,13)         58.8263         estimate D2E/DX2                !
 ! D61   D(10,11,12,14)       -178.9578         estimate D2E/DX2                !
 ! D62   D(10,11,12,32)        -61.4185         estimate D2E/DX2                !
 ! D63   D(11,12,13,33)         55.1878         estimate D2E/DX2                !
 ! D64   D(11,12,13,34)        -64.9305         estimate D2E/DX2                !
 ! D65   D(11,12,13,35)        178.1462         estimate D2E/DX2                !
 ! D66   D(14,12,13,33)        -64.4988         estimate D2E/DX2                !
 ! D67   D(14,12,13,34)        175.3829         estimate D2E/DX2                !
 ! D68   D(14,12,13,35)         58.4596         estimate D2E/DX2                !
 ! D69   D(32,12,13,33)        174.9526         estimate D2E/DX2                !
 ! D70   D(32,12,13,34)         54.8343         estimate D2E/DX2                !
 ! D71   D(32,12,13,35)        -62.089          estimate D2E/DX2                !
 ! D72   D(11,12,14,15)         54.6391         estimate D2E/DX2                !
 ! D73   D(11,12,14,16)        177.0824         estimate D2E/DX2                !
 ! D74   D(11,12,14,36)        -62.8246         estimate D2E/DX2                !
 ! D75   D(13,12,14,15)        178.0404         estimate D2E/DX2                !
 ! D76   D(13,12,14,16)        -59.5163         estimate D2E/DX2                !
 ! D77   D(13,12,14,36)         60.5767         estimate D2E/DX2                !
 ! D78   D(32,12,14,15)        -61.8512         estimate D2E/DX2                !
 ! D79   D(32,12,14,16)         60.592          estimate D2E/DX2                !
 ! D80   D(32,12,14,36)       -179.315          estimate D2E/DX2                !
 ! D81   D(12,14,15,37)         59.7338         estimate D2E/DX2                !
 ! D82   D(12,14,15,38)        -60.3243         estimate D2E/DX2                !
 ! D83   D(12,14,15,39)       -179.7935         estimate D2E/DX2                !
 ! D84   D(16,14,15,37)        -63.3401         estimate D2E/DX2                !
 ! D85   D(16,14,15,38)        176.6018         estimate D2E/DX2                !
 ! D86   D(16,14,15,39)         57.1326         estimate D2E/DX2                !
 ! D87   D(36,14,15,37)        177.9092         estimate D2E/DX2                !
 ! D88   D(36,14,15,38)         57.8512         estimate D2E/DX2                !
 ! D89   D(36,14,15,39)        -61.6181         estimate D2E/DX2                !
 ! D90   D(12,14,16,40)        -57.7161         estimate D2E/DX2                !
 ! D91   D(12,14,16,41)       -178.4866         estimate D2E/DX2                !
 ! D92   D(12,14,16,42)         62.5649         estimate D2E/DX2                !
 ! D93   D(15,14,16,40)         64.8306         estimate D2E/DX2                !
 ! D94   D(15,14,16,41)        -55.94           estimate D2E/DX2                !
 ! D95   D(15,14,16,42)       -174.8885         estimate D2E/DX2                !
 ! D96   D(36,14,16,40)       -177.4759         estimate D2E/DX2                !
 ! D97   D(36,14,16,41)         61.7536         estimate D2E/DX2                !
 ! D98   D(36,14,16,42)        -57.1949         estimate D2E/DX2                !
 --------------------------------------------------------------------------------
 Trust Radius=3.00D-01 FncErr=1.00D-07 GrdErr=1.00D-06 EigMax=2.50D+02 EigMin=1.00D-04
 Number of steps in this run=    224 maximum allowed number of steps=    252.
 GradGradGradGradGradGradGradGradGradGradGradGradGradGradGradGradGradGrad

                          Input orientation:                          
 ---------------------------------------------------------------------
 Center     Atomic      Atomic             Coordinates (Angstroms)
 Number     Number       Type             X           Y           Z
 ---------------------------------------------------------------------
      1          6           0        0.888900    0.077660    0.014170
      2          8           0        2.302570   -0.032700   -0.137750
      3          7           0        2.777350   -1.031640    0.808250
      4          6           0        4.268960   -0.955790    0.832850
      5          6           0        4.789590    0.436310    1.390770
      6          6           0        6.297300    0.702330    1.357320
      7          8           0        4.274120    1.532830    0.610490
      8          6           0        4.742600   -2.244130    1.621770
      9          7           0        4.204710   -3.501090    1.051950
     10          6           0        6.264590   -2.323020    1.648390
     11          8           0        6.834440   -3.366960    2.416670
     12          6           0        8.272920   -3.266990    2.445550
     13          6           0        8.770410   -1.930890    3.029570
     14          6           0        8.778640   -4.454820    3.277230
     15          6           0        8.234690   -5.769770    2.710670
     16          6           0       10.304770   -4.491330    3.316200
     17          1           0        0.542320    0.931290   -0.572550
     18          1           0        0.604070    0.224760    1.061660
     19          1           0        0.419910   -0.830870   -0.377310
     20          1           0        2.526250   -1.887990    0.316940
     21          1           0        4.609630   -1.048480   -0.208200
     22          1           0        4.426590    0.570780    2.414140
     23          1           0        6.743040    0.343740    0.422530
     24          1           0        6.824340    0.286100    2.212010
     25          1           0        6.515460    1.772410    1.428350
     26          1           0        4.447240    1.327710   -0.318390
     27          1           0        4.382590   -2.186070    2.656670
     28          1           0        4.486780   -3.607080    0.085660
     29          1           0        3.187220   -3.498340    1.104950
     30          1           0        6.543040   -1.459330    2.208180
     31          1           0        6.689140   -2.308630    0.638490
     32          1           0        8.638760   -3.359510    1.414220
     33          1           0        8.352240   -1.759960    4.027370
     34          1           0        8.487210   -1.081590    2.404500
     35          1           0        9.858840   -1.872770    3.079290
     36          1           0        8.394420   -4.353920    4.301390
     37          1           0        8.555930   -5.908010    1.672790
     38          1           0        7.139420   -5.792400    2.727850
     39          1           0        8.587750   -6.620250    3.300180
     40          1           0       10.714710   -4.546670    2.301990
     41          1           0       10.660450   -5.352520    3.886250
     42          1           0       10.720280   -3.602190    3.799040
 ---------------------------------------------------------------------
                    Distance matrix (angstroms):
                    1          2          3          4          5
     1  C    0.000000
     2  O    1.426086   0.000000
     3  N    2.329668   1.455408   0.000000
     4  C    3.628093   2.379254   1.493740   0.000000
     5  C    4.151992   2.956622   2.557991   1.587537   0.000000
     6  C    5.607589   4.328206   3.962093   2.671815   1.531364
     7  O    3.732671   2.626358   2.975892   2.498540   1.441146
     8  C    4.777666   3.733642   2.448296   1.583209   2.690786
     9  N    4.987889   4.130769   2.862679   2.555520   3.994997
    10  C    6.109990   4.912582   3.812393   2.552834   3.139410
    11  O    7.279207   6.179013   4.949820   3.860559   4.438327
    12  C    8.462981   7.264926   6.154578   4.896340   5.192358
    13  C    8.674394   7.447684   6.454431   5.102887   4.912864
    14  C    9.666382   8.553170   7.336859   6.209301   6.587443
    15  C    9.768530   8.730264   7.473395   6.513649   7.219853
    16  C   10.974410   9.790013   8.655710   7.422808   7.642390
    17  H    1.092265   2.053487   3.279491   4.407274   4.705203
    18  H    1.095446   2.095178   2.523074   3.857132   4.203766
    19  H    1.094822   2.058852   2.646391   4.036741   4.881184
    20  H    2.576114   1.923246   1.018711   2.042596   3.417337
    21  H    3.893773   2.521765   2.095401   1.099287   2.189450
    22  H    4.303286   3.374580   2.804750   2.203575   1.094138
    23  H    5.874395   4.491480   4.215109   2.824573   2.182206
    24  H    6.332724   5.105821   4.481641   3.158218   2.199365
    25  H    6.044027   4.843504   4.713882   3.583917   2.182934
    26  H    3.786160   2.546165   3.102319   2.563496   1.957811
    27  H    4.930837   4.095396   2.706688   2.202912   2.940243
    28  H    5.150452   4.194863   3.174457   2.763164   4.259578
    29  H    4.388605   3.786498   2.518061   2.776465   4.258022
    30  H    6.256622   5.051757   4.040191   2.704908   2.708541
    31  H    6.302931   5.002440   4.118449   2.779429   3.421829
    32  H    8.592707   7.322812   6.335796   5.021057   5.406007
    33  H    8.670875   7.545208   6.478625   5.246410   4.946487
    34  H    8.049339   6.768528   5.928997   4.503281   4.123598
    35  H    9.677756   8.416200   7.484158   6.093776   5.820674
    36  H    9.713495   8.688472   7.402097   6.371615   6.664294
    37  H    9.867250   8.769369   7.610414   6.603642   7.383444
    38  H    8.993924   8.048660   6.736272   5.934927   6.790163
    39  H   10.720641   9.732351   8.438188   7.538287   8.238137
    40  H   11.097977   9.853545   8.808427   7.523329   7.795349
    41  H   11.830598  10.693326   9.501966   8.337004   8.614231
    42  H   11.158968   9.954769   8.868071   7.577681   7.568509
                    6          7          8          9         10
     6  C    0.000000
     7  O    2.311005   0.000000
     8  C    3.341953   3.937967   0.000000
     9  N    4.705414   5.053717   1.481205   0.000000
    10  C    3.039496   4.461702   1.524266   2.446772   0.000000
    11  O    4.239088   5.815967   2.503679   2.965794   1.415907
    12  C    4.565394   6.511230   3.766698   4.306653   2.357951
    13  C    3.980771   6.169759   4.278233   5.217483   2.888002
    14  C    6.036497   7.953248   4.890533   5.175163   3.676702
    15  C    6.890074   8.568829   5.080407   4.913146   4.109722
    16  C    6.846249   8.943160   6.233678   6.581651   4.879161
    17  H    6.074258   3.960778   5.704444   5.974788   6.947480
    18  H    5.720870   3.922227   4.851450   5.181376   6.235136
    19  H    6.316910   4.627933   4.967824   4.847429   6.363195
    20  H    4.691798   3.852691   2.596464   2.441221   3.992142
    21  H    2.892130   2.728733   2.189989   2.786976   2.794686
    22  H    2.152610   2.049864   2.941331   4.299409   3.512648
    23  H    1.095949   2.746785   3.483821   4.649947   2.973761
    24  H    1.086975   3.259267   3.329277   4.748790   2.727360
    25  H    1.094399   2.397895   4.394660   5.769839   4.109002
    26  H    2.573291   0.966883   4.075475   5.025332   4.527562
    27  H    3.700984   4.246038   1.097268   2.082317   2.139464
    28  H    4.844184   5.171010   2.069471   1.012183   2.692869
    29  H    5.232773   5.170930   2.063820   1.018873   3.338699
    30  H    2.336049   4.080886   2.049725   3.312618   1.066236
    31  H    3.120278   4.537612   2.181746   2.786629   1.095604
    32  H    4.688733   6.605381   4.057981   4.451077   2.601121
    33  H    4.173106   6.256884   4.364726   5.393205   3.214788
    34  H    3.012418   5.272930   3.998283   5.101292   2.655728
    35  H    4.720264   6.991579   5.332746   6.223401   3.894719
    36  H    6.215394   8.077960   4.996736   5.370275   3.962214
    37  H    6.992677   8.650346   5.288488   5.011170   4.254761
    38  H    6.690967   8.145683   4.422486   4.083046   3.737266
    39  H    7.914610   9.608046   6.062398   5.830501   5.156711
    40  H    6.925165   9.016801   6.436652   6.710882   5.017507
    41  H    7.879960   9.946047   7.057684   7.289556   5.788737
    42  H    6.637292   8.836756   6.505189   7.071731   5.110259
                   11         12         13         14         15
    11  O    0.000000
    12  C    1.442239   0.000000
    13  C    2.487152   1.540694   0.000000
    14  C    2.388287   1.535703   2.536065   0.000000
    15  C    2.796539   2.517073   3.889176   1.531654   0.000000
    16  C    3.757200   2.526946   2.998711   1.527064   2.507251
    17  H    8.185424   9.300358   9.427025  10.567306  10.717103
    18  H    7.318061   8.539246   8.672290   9.676302   9.842763
    19  H    7.442061   8.693272   9.085578   9.816162   9.746750
    20  H    5.015647   6.281468   6.808064   7.378639   7.306466
    21  H    4.149105   5.038241   5.345455   6.413425   6.629588
    22  H    4.615576   5.433573   5.050335   6.703873   7.402171
    23  H    4.213578   4.412541   4.010091   5.942992   6.695940
    24  H    3.658802   3.844135   3.061150   5.237395   6.237893
    25  H    5.243248   5.433131   4.622027   6.878861   7.841210
    26  H    5.934577   6.586840   6.365305   8.070140   8.596174
    27  H    2.731972   4.043220   4.411024   4.985737   5.261606
    28  H    3.317043   4.474327   5.461292   5.415242   5.061100
    29  H    3.878155   5.264511   6.110080   6.074342   5.763218
    30  H    1.940988   2.513258   2.420378   3.887639   4.657689
    31  H    2.074391   2.586944   3.192434   3.991878   4.319970
    32  H    2.064106   1.098199   2.160473   2.165658   2.766479
    33  H    2.735054   2.186226   1.095303   2.829628   4.222096
    34  H    2.820410   2.196265   1.091891   3.496465   4.704948
    35  H    3.437828   2.204681   1.091114   2.805886   4.237966
    36  H    2.638143   2.154140   2.762240   1.098503   2.135541
    37  H    3.158136   2.766268   4.207652   2.176141   1.095217
    38  H    2.464266   2.782483   4.202669   2.185859   1.095638
    39  H    3.799813   3.474746   4.700712   2.173949   1.093384
    40  H    4.057260   2.760531   3.339458   2.169769   2.795262
    41  H    4.554170   3.482148   4.001713   2.172091   2.727709
    42  H    4.131105   2.816712   2.680918   2.183857   3.472911
                   16         17         18         19         20
    16  C    0.000000
    17  H   11.825084   0.000000
    18  H   11.019439   1.781471   0.000000
    19  H   11.169218   1.777164   1.794131   0.000000
    20  H    8.733746   3.560268   2.951795   2.456859   0.000000
    21  H    7.530553   4.538199   4.390694   4.198774   2.306734
    22  H    7.809716   4.913027   4.069471   5.080384   3.749012
    23  H    6.666119   6.307482   6.173297   6.480851   4.772115
    24  H    6.013025   6.901726   6.326044   6.997780   5.176054
    25  H    7.560244   6.355272   6.121619   6.869731   5.526984
    26  H    9.021204   3.933211   4.229775   4.569718   3.799286
    27  H    6.389164   5.907069   4.757454   5.171502   3.001531
    28  H    6.713218   6.048868   5.541752   4.945818   2.617716
    29  H    7.518988   5.425046   4.531668   4.119526   1.910777
    30  H    4.956949   7.032508   6.278697   6.676260   4.460397
    31  H    5.000709   7.053162   6.604939   6.520649   4.196425
    32  H    2.770223   9.376063   8.804972   8.783683   6.382176
    33  H    3.431985   9.454996   8.530456   9.120651   6.908389
    34  H    3.970019   8.719850   8.102695   8.537134   6.367200
    35  H    2.666803  10.392124   9.701610  10.105792   7.835668
    36  H    2.153815  10.646324   9.599464   9.894186   7.509465
    37  H    2.786794  10.771979  10.060637   9.806890   7.372647
    38  H    3.472518   9.981101   9.038429   8.911263   6.506784
    39  H    2.735090  11.694133  10.751943  10.665574   8.248381
    40  H    1.095324  11.905820  11.248556  11.268040   8.835150
    41  H    1.092297  12.717850  11.841247  11.978811   9.534577
    42  H    1.093779  11.968881  11.156904  11.455118   9.066732
                   21         22         23         24         25
    21  H    0.000000
    22  H    3.087422   0.000000
    23  H    2.624411   3.063331   0.000000
    24  H    3.541675   2.423036   1.792253   0.000000
    25  H    3.777288   2.603666   1.761977   1.708405   0.000000
    26  H    2.384280   2.835505   2.605352   3.624704   2.743427
    27  H    3.090815   2.767847   4.118622   3.503069   4.661273
    28  H    2.578348   4.783300   4.562145   5.014220   5.904005
    29  H    3.122407   4.450590   5.279312   5.364346   6.242001
    30  H    3.121821   2.939920   2.545507   1.767957   3.324611
    31  H    2.574728   4.069775   2.661693   3.037576   4.160400
    32  H    4.920060   5.847170   4.276829   4.149586   5.553846
    33  H    5.696787   4.842064   4.473248   3.133109   4.754609
    34  H    4.675781   4.383954   3.000317   2.161658   3.603607
    35  H    6.248300   5.993555   4.656125   3.823753   5.214511
    36  H    6.751812   6.599853   6.311943   5.325453   7.022590
    37  H    6.536546   7.718534   6.628280   6.454158   7.950605
    38  H    6.125766   6.924444   6.566874   6.108480   7.700933
    39  H    7.692775   8.355312   7.757640   7.210506   8.845048
    40  H    7.470635   8.108102   6.574393   6.204735   7.637259
    41  H    8.479487   8.724311   7.732453   7.022311   8.601560
    42  H    7.740766   7.677380   6.541378   5.728509   7.224058
                   26         27         28         29         30
    26  H    0.000000
    27  H    4.604542   0.000000
    28  H    4.951462   2.939425   0.000000
    29  H    5.186936   2.357710   1.655184   0.000000
    30  H    4.306219   2.323110   3.653235   4.078751   0.000000
    31  H    4.377751   3.067286   2.615718   3.727793   1.790693
    32  H    6.522332   4.586461   4.366383   5.462070   2.938214
    33  H    6.608204   4.221198   5.821573   6.183845   2.583222
    34  H    5.435091   4.258095   5.268639   5.968199   1.990233
    35  H    7.146518   5.501461   6.389732   7.144999   3.453157
    36  H    8.318865   4.847624   5.796533   6.169617   4.023405
    37  H    8.555804   5.677819   4.936724   5.912022   4.912140
    38  H    8.198986   4.539911   4.335123   4.849371   4.404682
    39  H    9.664778   6.144870   6.019160   6.612948   5.657597
    40  H    8.980864   6.767124   6.676980   7.693829   5.190694
    41  H   10.045320   7.137913   7.456893   8.186744   5.909815
    42  H    8.978206   6.593688   7.255738   8.000994   4.957017
                   31         32         33         34         35
    31  H    0.000000
    32  H    2.346726   0.000000
    33  H    3.814636   3.077208   0.000000
    34  H    2.803119   2.488482   1.764117   0.000000
    35  H    4.024236   2.543904   1.783655   1.721243   0.000000
    36  H    4.528579   3.063381   2.608734   3.783510   3.129562
    37  H    4.184521   2.562922   4.774082   4.882054   4.467547
    38  H    4.087154   3.145250   4.406842   4.910481   4.783540
    39  H    5.411042   3.767210   4.920029   5.611515   4.919657
    40  H    4.897067   2.550893   4.040291   4.120564   2.913151
    41  H    5.965276   3.764339   4.272498   5.015914   3.660932
    42  H    5.283225   3.174742   3.008913   3.644828   2.061798
                   36         37         38         39         40
    36  H    0.000000
    37  H    3.057911   0.000000
    38  H    2.473920   1.770033   0.000000
    39  H    2.485166   1.776709   1.763677   0.000000
    40  H    3.068957   2.628587   3.809974   3.133700   0.000000
    41  H    2.510863   3.104348   3.732698   2.499340   1.778263
    42  H    2.495411   3.810795   4.332093   3.728972   1.770094
                   41         42
    41  H    0.000000
    42  H    1.753522   0.000000
 Stoichiometry    C11H26N2O3
 Framework group  C1[X(C11H26N2O3)]
 Deg. of freedom   120
 Full point group                 C1      NOp   1
 Largest Abelian subgroup         C1      NOp   1
 Largest concise Abelian subgroup C1      NOp   1
                         Standard orientation:                         
 ---------------------------------------------------------------------
 Center     Atomic      Atomic             Coordinates (Angstroms)
 Number     Number       Type             X           Y           Z
 ---------------------------------------------------------------------
      1          6           0        5.379872   -1.124654   -0.264811
      2          8           0        4.271117   -0.473730    0.352182
      3          7           0        3.056379   -0.956694   -0.287639
      4          6           0        1.930022   -0.089674    0.171552
      5          6           0        2.094229    1.413320   -0.312511
      6          6           0        1.076703    2.442152    0.188707
      7          8           0        3.339312    1.973356    0.149042
      8          6           0        0.611275   -0.831859   -0.293871
      9          7           0        0.537172   -2.232225    0.183050
     10          6           0       -0.622732   -0.077859    0.187891
     11          8           0       -1.877844   -0.565924   -0.249466
     12          6           0       -2.951303    0.293203    0.186008
     13          6           0       -2.807772    1.739605   -0.324932
     14          6           0       -4.254718   -0.343165   -0.318501
     15          6           0       -4.356420   -1.794993    0.158801
     16          6           0       -5.473120    0.449821    0.149039
     17          1           0        6.299905   -0.657140    0.092977
     18          1           0        5.340056   -1.045538   -1.356670
     19          1           0        5.382017   -2.177786    0.034429
     20          1           0        2.949749   -1.859520    0.172042
     21          1           0        1.953667   -0.092587    1.270581
     22          1           0        2.116198    1.437380   -1.406163
     23          1           0        0.840871    2.284107    1.247248
     24          1           0        0.165029    2.465579   -0.402745
     25          1           0        1.460699    3.462517    0.093242
     26          1           0        3.396131    1.798014    1.098194
     27          1           0        0.585998   -0.868962   -1.390220
     28          1           0        0.574895   -2.269965    1.193825
     29          1           0        1.312191   -2.770782   -0.200883
     30          1           0       -0.555660    0.852919   -0.327874
     31          1           0       -0.616699    0.057153    1.275127
     32          1           0       -2.950287    0.304960    1.284144
     33          1           0       -2.714969    1.761904   -1.416069
     34          1           0       -1.926865    2.233540    0.090106
     35          1           0       -3.638508    2.377894   -0.019982
     36          1           0       -4.234604   -0.358522   -1.416713
     37          1           0       -4.343250   -1.846142    1.252744
     38          1           0       -3.522987   -2.400289   -0.214604
     39          1           0       -5.280698   -2.256101   -0.199779
     40          1           0       -5.491906    0.518164    1.242067
     41          1           0       -6.398881   -0.020869   -0.189386
     42          1           0       -5.473843    1.467502   -0.251808
 ---------------------------------------------------------------------
 Rotational constants (GHZ):           1.0712533           0.2011267           0.1734424
 Standard basis: 6-31G(2df,p) (6D, 7F)
 There are   626 symmetry adapted cartesian basis functions of A   symmetry.
 There are   578 symmetry adapted basis functions of A   symmetry.
   578 basis functions,   886 primitive gaussians,   626 cartesian basis functions
    65 alpha electrons       65 beta electrons
       nuclear repulsion energy      1235.2273589679 Hartrees.
 NAtoms=   42 NActive=   42 NUniq=   42 SFac= 1.00D+00 NAtFMM=   60 NAOKFM=F Big=F
 Integral buffers will be    131072 words long.
 Raffenetti 2 integral format.
 Two-electron integral symmetry is turned on.
 One-electron integrals computed using PRISM.
 PrsmSu:  requested number of processors reduced to:  12 ShMem   1 Linda.
 NBasis=   578 RedAO= T EigKep=  3.79D-04  NBF=   578
 NBsUse=   578 1.00D-06 EigRej= -1.00D+00 NBFU=   578
 ExpMin= 1.61D-01 ExpMax= 5.48D+03 ExpMxC= 8.25D+02 IAcc=3 IRadAn=         5 AccDes= 0.00D+00
 Harris functional with IExCor=  402 and IRadAn=       5 diagonalized for initial guess.
 HarFok:  IExCor=  402 AccDes= 0.00D+00 IRadAn=         5 IDoV= 1 UseB2=F ITyADJ=14
 ICtDFT=  3500011 ScaDFX=  1.000000  1.000000  1.000000  1.000000
 FoFCou: FMM=F IPFlag=           0 FMFlag=      100000 FMFlg1=           0
         NFxFlg=           0 DoJE=T BraDBF=F KetDBF=T FulRan=T
         wScrn=  0.000000 ICntrl=       500 IOpCl=  0 I1Cent=   200000004 NGrid=           0
         NMat0=    1 NMatS0=      1 NMatT0=    0 NMatD0=    1 NMtDS0=    0 NMtDT0=    0
 Petite list used in FoFCou.
 Requested convergence on RMS density matrix=1.00D-08 within 128 cycles.
 Requested convergence on MAX density matrix=1.00D-06.
 Requested convergence on             energy=1.00D-06.
 No special actions if energy rises.
 Integral accuracy reduced to 1.0D-05 until final iterations.
 Initial convergence to 1.0D-05 achieved.  Increase integral accuracy.
 SCF Done:  E(RB3LYP) =  -769.939494605     A.U. after   12 cycles
            NFock= 12  Conv=0.97D-08     -V/T= 2.0076

 **********************************************************************

            Population analysis using the SCF density.

 **********************************************************************

 Orbital symmetries:
       Occupied  (A) (A) (A) (A) (A) (A) (A) (A) (A) (A) (A) (A)
                 (A) (A) (A) (A) (A) (A) (A) (A) (A) (A) (A) (A)
                 (A) (A) (A) (A) (A) (A) (A) (A) (A) (A) (A) (A)
                 (A) (A) (A) (A) (A) (A) (A) (A) (A) (A) (A) (A)
                 (A) (A) (A) (A) (A) (A) (A) (A) (A) (A) (A) (A)
                 (A) (A) (A) (A) (A)
       Virtual   (A) (A) (A) (A) (A) (A) (A) (A) (A) (A) (A) (A)
                 (A) (A) (A) (A) (A) (A) (A) (A) (A) (A) (A) (A)
                 (A) (A) (A) (A) (A) (A) (A) (A) (A) (A) (A) (A)
                 (A) (A) (A) (A) (A) (A) (A) (A) (A) (A) (A) (A)
                 (A) (A) (A) (A) (A) (A) (A) (A) (A) (A) (A) (A)
                 (A) (A) (A) (A) (A) (A) (A) (A) (A) (A) (A) (A)
                 (A) (A) (A) (A) (A) (A) (A) (A) (A) (A) (A) (A)
                 (A) (A) (A) (A) (A) (A) (A) (A) (A) (A) (A) (A)
                 (A) (A) (A) (A) (A) (A) (A) (A) (A) (A) (A) (A)
                 (A) (A) (A) (A) (A) (A) (A) (A) (A) (A) (A) (A)
                 (A) (A) (A) (A) (A) (A) (A) (A) (A) (A) (A) (A)
                 (A) (A) (A) (A) (A) (A) (A) (A) (A) (A) (A) (A)
                 (A) (A) (A) (A) (A) (A) (A) (A) (A) (A) (A) (A)
                 (A) (A) (A) (A) (A) (A) (A) (A) (A) (A) (A) (A)
                 (A) (A) (A) (A) (A) (A) (A) (A) (A) (A) (A) (A)
                 (A) (A) (A) (A) (A) (A) (A) (A) (A) (A) (A) (A)
                 (A) (A) (A) (A) (A) (A) (A) (A) (A) (A) (A) (A)
                 (A) (A) (A) (A) (A) (A) (A) (A) (A) (A) (A) (A)
                 (A) (A) (A) (A) (A) (A) (A) (A) (A) (A) (A) (A)
                 (A) (A) (A) (A) (A) (A) (A) (A) (A) (A) (A) (A)
                 (A) (A) (A) (A) (A) (A) (A) (A) (A) (A) (A) (A)
                 (A) (A) (A) (A) (A) (A) (A) (A) (A) (A) (A) (A)
                 (A) (A) (A) (A) (A) (A) (A) (A) (A) (A) (A) (A)
                 (A) (A) (A) (A) (A) (A) (A) (A) (A) (A) (A) (A)
                 (A) (A) (A) (A) (A) (A) (A) (A) (A) (A) (A) (A)
                 (A) (A) (A) (A) (A) (A) (A) (A) (A) (A) (A) (A)
                 (A) (A) (A) (A) (A) (A) (A) (A) (A) (A) (A) (A)
                 (A) (A) (A) (A) (A) (A) (A) (A) (A) (A) (A) (A)
                 (A) (A) (A) (A) (A) (A) (A) (A) (A) (A) (A) (A)
                 (A) (A) (A) (A) (A) (A) (A) (A) (A) (A) (A) (A)
                 (A) (A) (A) (A) (A) (A) (A) (A) (A) (A) (A) (A)
                 (A) (A) (A) (A) (A) (A) (A) (A) (A) (A) (A) (A)
                 (A) (A) (A) (A) (A) (A) (A) (A) (A) (A) (A) (A)
                 (A) (A) (A) (A) (A) (A) (A) (A) (A) (A) (A) (A)
                 (A) (A) (A) (A) (A) (A) (A) (A) (A) (A) (A) (A)
                 (A) (A) (A) (A) (A) (A) (A) (A) (A) (A) (A) (A)
                 (A) (A) (A) (A) (A) (A) (A) (A) (A) (A) (A) (A)
                 (A) (A) (A) (A) (A) (A) (A) (A) (A) (A) (A) (A)
                 (A) (A) (A) (A) (A) (A) (A) (A) (A) (A) (A) (A)
                 (A) (A) (A) (A) (A) (A) (A) (A) (A) (A) (A) (A)
                 (A) (A) (A) (A) (A) (A) (A) (A) (A) (A) (A) (A)
                 (A) (A) (A) (A) (A) (A) (A) (A) (A) (A) (A) (A)
                 (A) (A) (A) (A) (A) (A) (A) (A) (A)
 The electronic state is 1-A.
 Alpha  occ. eigenvalues --  -19.15492 -19.12969 -19.11812 -14.36615 -14.31486
 Alpha  occ. eigenvalues --  -10.23636 -10.22773 -10.22464 -10.22318 -10.21960
 Alpha  occ. eigenvalues --  -10.21634 -10.17954 -10.17333 -10.17279 -10.16923
 Alpha  occ. eigenvalues --  -10.15777  -1.04958  -1.02072  -0.99985  -0.89465
 Alpha  occ. eigenvalues --   -0.83540  -0.80411  -0.75982  -0.73153  -0.71811
 Alpha  occ. eigenvalues --   -0.68085  -0.66984  -0.65162  -0.62218  -0.59279
 Alpha  occ. eigenvalues --   -0.58327  -0.55520  -0.51215  -0.50567  -0.49329
 Alpha  occ. eigenvalues --   -0.48492  -0.46903  -0.45971  -0.44881  -0.44529
 Alpha  occ. eigenvalues --   -0.44336  -0.43547  -0.42626  -0.42013  -0.41209
 Alpha  occ. eigenvalues --   -0.39819  -0.39196  -0.38148  -0.37979  -0.37360
 Alpha  occ. eigenvalues --   -0.36918  -0.36339  -0.35589  -0.35445  -0.35110
 Alpha  occ. eigenvalues --   -0.32864  -0.31897  -0.31857  -0.31211  -0.29520
 Alpha  occ. eigenvalues --   -0.29191  -0.25331  -0.24549  -0.23673  -0.21841
 Alpha virt. eigenvalues --    0.05857   0.07598   0.08315   0.09095   0.09882
 Alpha virt. eigenvalues --    0.10290   0.11346   0.12200   0.12404   0.12769
 Alpha virt. eigenvalues --    0.13894   0.14170   0.14481   0.15689   0.15938
 Alpha virt. eigenvalues --    0.16289   0.16553   0.16829   0.17212   0.17899
 Alpha virt. eigenvalues --    0.18114   0.18936   0.19246   0.19478   0.19650
 Alpha virt. eigenvalues --    0.20377   0.20946   0.22133   0.22245   0.22898
 Alpha virt. eigenvalues --    0.23390   0.24052   0.24804   0.25312   0.26046
 Alpha virt. eigenvalues --    0.26172   0.27457   0.29124   0.30300   0.31851
 Alpha virt. eigenvalues --    0.33508   0.42892   0.43854   0.45587   0.45924
 Alpha virt. eigenvalues --    0.46533   0.47017   0.47808   0.48201   0.50236
 Alpha virt. eigenvalues --    0.50688   0.51496   0.52131   0.53371   0.53769
 Alpha virt. eigenvalues --    0.54353   0.54622   0.55512   0.56393   0.57280
 Alpha virt. eigenvalues --    0.58265   0.58699   0.59229   0.59670   0.61262
 Alpha virt. eigenvalues --    0.62316   0.63691   0.63865   0.64468   0.66456
 Alpha virt. eigenvalues --    0.67701   0.68765   0.68982   0.69452   0.70172
 Alpha virt. eigenvalues --    0.70875   0.71603   0.71994   0.72717   0.73114
 Alpha virt. eigenvalues --    0.73880   0.74440   0.74593   0.75377   0.75543
 Alpha virt. eigenvalues --    0.75947   0.76149   0.76709   0.77293   0.77633
 Alpha virt. eigenvalues --    0.78224   0.78372   0.78781   0.79178   0.79703
 Alpha virt. eigenvalues --    0.80193   0.80641   0.81039   0.82075   0.83034
 Alpha virt. eigenvalues --    0.83730   0.84636   0.84900   0.86265   0.86484
 Alpha virt. eigenvalues --    0.87537   0.87702   0.89058   0.89683   0.90526
 Alpha virt. eigenvalues --    0.92179   0.93235   0.93540   0.94451   0.96488
 Alpha virt. eigenvalues --    0.97140   0.97417   0.98294   0.99893   1.00801
 Alpha virt. eigenvalues --    1.02887   1.03471   1.03889   1.06153   1.06363
 Alpha virt. eigenvalues --    1.07716   1.09526   1.10992   1.12836   1.13592
 Alpha virt. eigenvalues --    1.16628   1.17943   1.19989   1.20685   1.22569
 Alpha virt. eigenvalues --    1.23688   1.24965   1.25558   1.27100   1.27316
 Alpha virt. eigenvalues --    1.29477   1.30360   1.32509   1.33211   1.34033
 Alpha virt. eigenvalues --    1.34435   1.36588   1.36836   1.37880   1.39084
 Alpha virt. eigenvalues --    1.40059   1.40647   1.42544   1.43109   1.44040
 Alpha virt. eigenvalues --    1.45538   1.46746   1.48376   1.48655   1.49253
 Alpha virt. eigenvalues --    1.50628   1.51392   1.52660   1.53399   1.54563
 Alpha virt. eigenvalues --    1.55481   1.56269   1.57976   1.58976   1.60073
 Alpha virt. eigenvalues --    1.61143   1.62457   1.63007   1.64650   1.65989
 Alpha virt. eigenvalues --    1.67431   1.69170   1.69989   1.70684   1.72844
 Alpha virt. eigenvalues --    1.73668   1.74159   1.75058   1.76023   1.78293
 Alpha virt. eigenvalues --    1.79246   1.80698   1.80881   1.82652   1.83023
 Alpha virt. eigenvalues --    1.84038   1.84796   1.86474   1.86571   1.87984
 Alpha virt. eigenvalues --    1.89228   1.90432   1.90804   1.93157   1.94029
 Alpha virt. eigenvalues --    1.94232   1.95450   1.97021   1.97335   1.98191
 Alpha virt. eigenvalues --    1.98989   1.99592   2.02221   2.02924   2.05888
 Alpha virt. eigenvalues --    2.06728   2.12067   2.14967   2.18912   2.19546
 Alpha virt. eigenvalues --    2.21389   2.23652   2.24062   2.25940   2.27506
 Alpha virt. eigenvalues --    2.28714   2.29650   2.30061   2.31818   2.33366
 Alpha virt. eigenvalues --    2.34124   2.36021   2.36954   2.38700   2.41627
 Alpha virt. eigenvalues --    2.43067   2.43672   2.44432   2.44457   2.46014
 Alpha virt. eigenvalues --    2.47443   2.48621   2.49698   2.52399   2.54996
 Alpha virt. eigenvalues --    2.55969   2.58108   2.59898   2.64468   2.65786
 Alpha virt. eigenvalues --    2.67930   2.69179   2.70728   2.71509   2.73316
 Alpha virt. eigenvalues --    2.73980   2.75113   2.75668   2.76331   2.77427
 Alpha virt. eigenvalues --    2.78398   2.79458   2.79958   2.81314   2.81949
 Alpha virt. eigenvalues --    2.82326   2.83554   2.84387   2.84611   2.86060
 Alpha virt. eigenvalues --    2.87239   2.87517   2.87829   2.88804   2.90115
 Alpha virt. eigenvalues --    2.90936   2.91371   2.92102   2.92598   2.93241
 Alpha virt. eigenvalues --    2.93828   2.94820   2.96045   2.97163   2.98379
 Alpha virt. eigenvalues --    2.98701   2.99601   3.00588   3.01148   3.02912
 Alpha virt. eigenvalues --    3.03002   3.04661   3.05713   3.08385   3.08463
 Alpha virt. eigenvalues --    3.10513   3.11358   3.13106   3.14431   3.15418
 Alpha virt. eigenvalues --    3.15661   3.17454   3.18273   3.19362   3.21501
 Alpha virt. eigenvalues --    3.22396   3.24031   3.28446   3.30391   3.31431
 Alpha virt. eigenvalues --    3.32103   3.34019   3.35721   3.38082   3.39332
 Alpha virt. eigenvalues --    3.39674   3.40450   3.41737   3.42272   3.42983
 Alpha virt. eigenvalues --    3.43281   3.46149   3.47038   3.49487   3.50796
 Alpha virt. eigenvalues --    3.51480   3.53702   3.55762   3.58145   3.58859
 Alpha virt. eigenvalues --    3.60762   3.61827   3.63255   3.63426   3.64397
 Alpha virt. eigenvalues --    3.65270   3.66047   3.67411   3.67945   3.68745
 Alpha virt. eigenvalues --    3.69874   3.70196   3.71337   3.73848   3.74570
 Alpha virt. eigenvalues --    3.76909   3.78020   3.80083   3.81787   3.83812
 Alpha virt. eigenvalues --    3.84711   3.86354   3.87241   3.89160   3.90213
 Alpha virt. eigenvalues --    3.93071   3.94430   3.95956   3.97278   4.00152
 Alpha virt. eigenvalues --    4.01128   4.02998   4.04363   4.04888   4.06435
 Alpha virt. eigenvalues --    4.08853   4.13184   4.14486   4.17068   4.20074
 Alpha virt. eigenvalues --    4.20452   4.23085   4.24810   4.25898   4.27309
 Alpha virt. eigenvalues --    4.29634   4.30597   4.31075   4.33059   4.34991
 Alpha virt. eigenvalues --    4.35415   4.36076   4.37964   4.38339   4.39290
 Alpha virt. eigenvalues --    4.41106   4.41970   4.42382   4.43262   4.43422
 Alpha virt. eigenvalues --    4.44755   4.45567   4.46581   4.47861   4.48976
 Alpha virt. eigenvalues --    4.49569   4.50463   4.51632   4.52879   4.53135
 Alpha virt. eigenvalues --    4.53396   4.54583   4.55218   4.56201   4.57499
 Alpha virt. eigenvalues --    4.58344   4.59374   4.60156   4.60985   4.61444
 Alpha virt. eigenvalues --    4.62467   4.63884   4.65010   4.65549   4.66334
 Alpha virt. eigenvalues --    4.66896   4.68608   4.70048   4.70820   4.71240
 Alpha virt. eigenvalues --    4.71346   4.72129   4.72809   4.73051   4.74393
 Alpha virt. eigenvalues --    4.75641   4.76310   4.77868   4.79709   4.80328
 Alpha virt. eigenvalues --    4.81735   4.82073   4.82466   4.82793   4.83616
 Alpha virt. eigenvalues --    4.84015   4.84521   4.85804   4.86778   4.88027
 Alpha virt. eigenvalues --    4.89200   4.90212   4.91475   4.92456   4.93319
 Alpha virt. eigenvalues --    4.94488   4.95056   4.96906   4.98106   5.00287
 Alpha virt. eigenvalues --    5.01459   5.04044   5.05859   5.08564   5.10951
 Alpha virt. eigenvalues --    5.12865   5.16616   5.25452   5.27969   5.30001
 Alpha virt. eigenvalues --    5.30671   5.30816   5.32139   5.34253   5.36062
 Alpha virt. eigenvalues --    5.36415   5.39367   5.40796   5.42091   5.47026
 Alpha virt. eigenvalues --    5.47429   5.49196   5.50981   5.52569   5.52870
 Alpha virt. eigenvalues --    5.53371   5.56054   5.58014   5.63138   5.67214
 Alpha virt. eigenvalues --    5.69868   5.74914   5.82766   5.85780   5.86112
 Alpha virt. eigenvalues --    5.89507   5.95659   5.97645   6.02810   6.07176
 Alpha virt. eigenvalues --    6.08045   6.09690   6.12533   6.18087   6.23912
 Alpha virt. eigenvalues --    6.36395   6.56611   6.98448   7.17382   7.19642
 Alpha virt. eigenvalues --   10.11115  11.02143  11.26123  11.29399  11.37332
 Alpha virt. eigenvalues --   11.53528  11.69937  11.86337  11.96058  12.03136
 Alpha virt. eigenvalues --   12.35191  12.55472  12.68167  12.90894  13.24750
 Alpha virt. eigenvalues --   13.44282  13.71491  14.47286
          Condensed to atoms (all electrons):
               1          2          3          4          5          6
     1  C    4.815311   0.350308  -0.069309   0.001968   0.000820   0.000012
     2  O    0.350308   7.855506   0.183114  -0.033229   0.002883   0.000068
     3  N   -0.069309   0.183114   6.571833   0.335324  -0.020971   0.001914
     4  C    0.001968  -0.033229   0.335324   4.980841   0.351928  -0.023531
     5  C    0.000820   0.002883  -0.020971   0.351928   4.633044   0.372723
     6  C    0.000012   0.000068   0.001914  -0.023531   0.372723   5.097573
     7  O    0.002204  -0.008645   0.001708  -0.029112   0.357045  -0.058923
     8  C   -0.000226   0.001074  -0.026282   0.337808  -0.012333  -0.003911
     9  N   -0.000000   0.000434  -0.013408  -0.042049   0.002671   0.000027
    10  C    0.000001  -0.000001   0.001080  -0.042184  -0.005784  -0.009217
    11  O   -0.000000   0.000000  -0.000004   0.000563  -0.000013   0.000183
    12  C    0.000000  -0.000000   0.000000  -0.000144  -0.000021   0.000251
    13  C    0.000000   0.000000   0.000000   0.000012   0.000064  -0.002103
    14  C   -0.000000   0.000000  -0.000000   0.000001   0.000000  -0.000002
    15  C   -0.000000   0.000000   0.000000  -0.000000   0.000000   0.000000
    16  C    0.000000  -0.000000   0.000000   0.000000  -0.000000   0.000000
    17  H    0.380752  -0.018743   0.004291  -0.000277  -0.000004  -0.000000
    18  H    0.366815  -0.029531   0.009485   0.001170  -0.000295   0.000001
    19  H    0.366885  -0.035634  -0.002484  -0.000301   0.000023   0.000000
    20  H   -0.002836  -0.028231   0.302487  -0.050932   0.005540  -0.000147
    21  H    0.000368   0.007998  -0.050962   0.311199  -0.043307  -0.003755
    22  H   -0.000067  -0.000142  -0.000222  -0.039732   0.352001  -0.052291
    23  H   -0.000000  -0.000001  -0.000011  -0.009154  -0.023795   0.367372
    24  H   -0.000000   0.000001  -0.000078   0.001889  -0.017400   0.343775
    25  H   -0.000000   0.000005  -0.000039   0.003445  -0.019205   0.363166
    26  H   -0.000469   0.007053  -0.001695  -0.002854  -0.072754  -0.000079
    27  H    0.000008  -0.000001   0.001035  -0.039516  -0.005508   0.000117
    28  H    0.000001  -0.000026  -0.000819  -0.003500   0.000100  -0.000010
    29  H    0.000015  -0.000100   0.002646  -0.005180  -0.000025  -0.000000
    30  H    0.000000   0.000001  -0.000013  -0.002038  -0.000777   0.002446
    31  H    0.000000   0.000002  -0.000034  -0.000662  -0.001154   0.000023
    32  H    0.000000   0.000000   0.000000   0.000043  -0.000003  -0.000000
    33  H   -0.000000   0.000000   0.000000   0.000011  -0.000005  -0.000128
    34  H   -0.000000   0.000000  -0.000000   0.000031   0.000016  -0.000053
    35  H   -0.000000  -0.000000  -0.000000  -0.000000  -0.000000   0.000055
    36  H    0.000000   0.000000   0.000000   0.000000  -0.000000   0.000000
    37  H    0.000000  -0.000000  -0.000000   0.000000  -0.000000   0.000000
    38  H    0.000000  -0.000000   0.000000   0.000001  -0.000000   0.000000
    39  H   -0.000000   0.000000  -0.000000  -0.000000   0.000000  -0.000000
    40  H    0.000000  -0.000000  -0.000000   0.000000  -0.000000   0.000000
    41  H   -0.000000   0.000000  -0.000000   0.000000   0.000000   0.000000
    42  H    0.000000  -0.000000   0.000000   0.000000  -0.000000  -0.000000
               7          8          9         10         11         12
     1  C    0.002204  -0.000226  -0.000000   0.000001  -0.000000   0.000000
     2  O   -0.008645   0.001074   0.000434  -0.000001   0.000000  -0.000000
     3  N    0.001708  -0.026282  -0.013408   0.001080  -0.000004   0.000000
     4  C   -0.029112   0.337808  -0.042049  -0.042184   0.000563  -0.000144
     5  C    0.357045  -0.012333   0.002671  -0.005784  -0.000013  -0.000021
     6  C   -0.058923  -0.003911   0.000027  -0.009217   0.000183   0.000251
     7  O    7.861159   0.001589  -0.000023  -0.000032  -0.000000  -0.000000
     8  C    0.001589   4.878986   0.371090   0.397992  -0.017096   0.002602
     9  N   -0.000023   0.371090   6.545239  -0.024336  -0.000138   0.000231
    10  C   -0.000032   0.397992  -0.024336   4.744987   0.354349  -0.077418
    11  O   -0.000000  -0.017096  -0.000138   0.354349   7.750946   0.359973
    12  C   -0.000000   0.002602   0.000231  -0.077418   0.359973   4.576052
    13  C   -0.000000   0.000584   0.000001  -0.001319  -0.034548   0.357466
    14  C   -0.000000  -0.000190  -0.000013   0.002879  -0.031158   0.443449
    15  C    0.000000   0.000002  -0.000078   0.000928  -0.004657  -0.023731
    16  C    0.000000   0.000001  -0.000000  -0.000175   0.001935  -0.032345
    17  H    0.000025   0.000003   0.000000   0.000000   0.000000  -0.000000
    18  H    0.000043   0.000060  -0.000001   0.000001   0.000000   0.000000
    19  H   -0.000011  -0.000005  -0.000022  -0.000000   0.000000  -0.000000
    20  H   -0.000203  -0.011249   0.018701  -0.000251  -0.000000  -0.000000
    21  H   -0.003055  -0.027785  -0.002686  -0.000218   0.000010   0.000012
    22  H   -0.016537  -0.004598  -0.000064   0.000490   0.000001   0.000000
    23  H    0.000239  -0.000925  -0.000025   0.000489   0.000033  -0.000003
    24  H    0.004425   0.000350  -0.000002  -0.011478   0.000224   0.000193
    25  H    0.002380   0.000020   0.000001   0.000458  -0.000005  -0.000006
    26  H    0.308273   0.000198  -0.000006  -0.000010  -0.000000  -0.000000
    27  H   -0.000017   0.341658  -0.028952  -0.024886   0.001390  -0.000014
    28  H   -0.000001  -0.053674   0.339498  -0.003903   0.000085  -0.000035
    29  H   -0.000002  -0.050645   0.348309   0.005264   0.000027   0.000006
    30  H    0.000019  -0.026830   0.004276   0.354832  -0.038014  -0.008155
    31  H   -0.000007  -0.038125  -0.007043   0.342319  -0.035901  -0.005384
    32  H    0.000000   0.000185  -0.000042  -0.005957  -0.036302   0.339646
    33  H    0.000000  -0.000100  -0.000001  -0.000247   0.000954  -0.016911
    34  H    0.000001  -0.000019  -0.000005  -0.003169  -0.000932  -0.017825
    35  H    0.000000  -0.000008   0.000000   0.000074   0.001983  -0.015461
    36  H    0.000000   0.000003  -0.000001   0.000105   0.000589  -0.032970
    37  H    0.000000  -0.000002  -0.000000  -0.000091  -0.000299  -0.006670
    38  H    0.000000   0.000005   0.000401  -0.000321   0.010767  -0.004587
    39  H   -0.000000  -0.000000   0.000000  -0.000011   0.000321   0.003115
    40  H    0.000000  -0.000000   0.000000   0.000001   0.000029  -0.006952
    41  H   -0.000000  -0.000000   0.000000  -0.000000  -0.000038   0.002904
    42  H    0.000000   0.000000  -0.000000   0.000003   0.000011  -0.004106
              13         14         15         16         17         18
     1  C    0.000000  -0.000000  -0.000000   0.000000   0.380752   0.366815
     2  O    0.000000   0.000000   0.000000  -0.000000  -0.018743  -0.029531
     3  N    0.000000  -0.000000   0.000000   0.000000   0.004291   0.009485
     4  C    0.000012   0.000001  -0.000000   0.000000  -0.000277   0.001170
     5  C    0.000064   0.000000   0.000000  -0.000000  -0.000004  -0.000295
     6  C   -0.002103  -0.000002   0.000000   0.000000  -0.000000   0.000001
     7  O   -0.000000  -0.000000   0.000000   0.000000   0.000025   0.000043
     8  C    0.000584  -0.000190   0.000002   0.000001   0.000003   0.000060
     9  N    0.000001  -0.000013  -0.000078  -0.000000   0.000000  -0.000001
    10  C   -0.001319   0.002879   0.000928  -0.000175   0.000000   0.000001
    11  O   -0.034548  -0.031158  -0.004657   0.001935   0.000000   0.000000
    12  C    0.357466   0.443449  -0.023731  -0.032345  -0.000000   0.000000
    13  C    5.142244  -0.039742   0.005072  -0.002904   0.000000   0.000000
    14  C   -0.039742   4.644025   0.398211   0.379649   0.000000   0.000000
    15  C    0.005072   0.398211   5.010561  -0.043938   0.000000   0.000000
    16  C   -0.002904   0.379649  -0.043938   5.032750  -0.000000   0.000000
    17  H    0.000000   0.000000   0.000000  -0.000000   0.574016  -0.029058
    18  H    0.000000   0.000000   0.000000   0.000000  -0.029058   0.609404
    19  H   -0.000000  -0.000000  -0.000000  -0.000000  -0.038937  -0.049587
    20  H    0.000000  -0.000000   0.000000   0.000000  -0.000546  -0.001566
    21  H    0.000000   0.000000  -0.000000   0.000000   0.000044   0.000148
    22  H   -0.000009  -0.000000  -0.000000  -0.000000   0.000005   0.000066
    23  H   -0.000263   0.000000  -0.000000   0.000000   0.000000   0.000000
    24  H   -0.001376   0.000000  -0.000000  -0.000000  -0.000000  -0.000000
    25  H    0.000060   0.000000   0.000000   0.000000   0.000000  -0.000000
    26  H    0.000000  -0.000000   0.000000   0.000000  -0.000004   0.000048
    27  H   -0.000045   0.000017  -0.000004   0.000000   0.000000   0.000011
    28  H    0.000001   0.000001   0.000005   0.000000  -0.000000  -0.000000
    29  H    0.000000  -0.000000   0.000001  -0.000000  -0.000000   0.000003
    30  H    0.005334  -0.000255   0.000038   0.000012  -0.000000  -0.000000
    31  H   -0.003559   0.000572  -0.000223   0.000030   0.000000   0.000000
    32  H   -0.071362  -0.035902  -0.008468  -0.003709  -0.000000  -0.000000
    33  H    0.363027  -0.006034   0.000036   0.000038   0.000000  -0.000000
    34  H    0.364804   0.003598  -0.000178   0.000238   0.000000   0.000000
    35  H    0.362438  -0.004633   0.000010  -0.000901  -0.000000   0.000000
    36  H   -0.009144   0.354671  -0.043631  -0.044048   0.000000   0.000000
    37  H    0.000085  -0.027599   0.369608  -0.005080  -0.000000   0.000000
    38  H    0.000313  -0.017847   0.369751   0.004803  -0.000000  -0.000000
    39  H   -0.000134  -0.023499   0.366529  -0.004926   0.000000  -0.000000
    40  H   -0.000599  -0.026234  -0.004762   0.371291   0.000000   0.000000
    41  H    0.000134  -0.019279  -0.004715   0.371485   0.000000  -0.000000
    42  H   -0.001115  -0.023037   0.005230   0.370117  -0.000000  -0.000000
              19         20         21         22         23         24
     1  C    0.366885  -0.002836   0.000368  -0.000067  -0.000000  -0.000000
     2  O   -0.035634  -0.028231   0.007998  -0.000142  -0.000001   0.000001
     3  N   -0.002484   0.302487  -0.050962  -0.000222  -0.000011  -0.000078
     4  C   -0.000301  -0.050932   0.311199  -0.039732  -0.009154   0.001889
     5  C    0.000023   0.005540  -0.043307   0.352001  -0.023795  -0.017400
     6  C    0.000000  -0.000147  -0.003755  -0.052291   0.367372   0.343775
     7  O   -0.000011  -0.000203  -0.003055  -0.016537   0.000239   0.004425
     8  C   -0.000005  -0.011249  -0.027785  -0.004598  -0.000925   0.000350
     9  N   -0.000022   0.018701  -0.002686  -0.000064  -0.000025  -0.000002
    10  C   -0.000000  -0.000251  -0.000218   0.000490   0.000489  -0.011478
    11  O    0.000000  -0.000000   0.000010   0.000001   0.000033   0.000224
    12  C   -0.000000  -0.000000   0.000012   0.000000  -0.000003   0.000193
    13  C   -0.000000   0.000000   0.000000  -0.000009  -0.000263  -0.001376
    14  C   -0.000000  -0.000000   0.000000  -0.000000   0.000000   0.000000
    15  C   -0.000000   0.000000  -0.000000  -0.000000  -0.000000  -0.000000
    16  C   -0.000000   0.000000   0.000000  -0.000000   0.000000  -0.000000
    17  H   -0.038937  -0.000546   0.000044   0.000005   0.000000  -0.000000
    18  H   -0.049587  -0.001566   0.000148   0.000066   0.000000  -0.000000
    19  H    0.658319   0.007401  -0.000101  -0.000002  -0.000000   0.000000
    20  H    0.007401   0.540309  -0.007862  -0.000227  -0.000009   0.000003
    21  H   -0.000101  -0.007862   0.723095   0.006793   0.006164   0.000055
    22  H   -0.000002  -0.000227   0.006793   0.642179   0.005971  -0.002233
    23  H   -0.000000  -0.000009   0.006164   0.005971   0.611334  -0.033144
    24  H    0.000000   0.000003   0.000055  -0.002233  -0.033144   0.606274
    25  H    0.000000   0.000003  -0.000220  -0.001863  -0.033461  -0.028732
    26  H    0.000013   0.000005   0.007378   0.007046   0.002844  -0.000107
    27  H   -0.000002   0.000231   0.006691   0.003572   0.000086   0.000162
    28  H    0.000000   0.003239   0.004763   0.000010   0.000001   0.000001
    29  H    0.000061   0.008121   0.000535   0.000010   0.000000   0.000001
    30  H    0.000000  -0.000025  -0.000275   0.000264  -0.000625   0.003145
    31  H    0.000000  -0.000007   0.005995   0.000052   0.001615   0.000168
    32  H    0.000000   0.000000  -0.000001  -0.000000   0.000016   0.000026
    33  H    0.000000   0.000000   0.000000   0.000000   0.000001   0.000858
    34  H    0.000000   0.000000   0.000006   0.000028   0.001369   0.005841
    35  H    0.000000  -0.000000   0.000000   0.000000   0.000001  -0.000103
    36  H   -0.000000  -0.000000  -0.000000  -0.000000   0.000000  -0.000000
    37  H   -0.000000  -0.000000  -0.000000  -0.000000   0.000000  -0.000000
    38  H    0.000000  -0.000000  -0.000000   0.000000   0.000000  -0.000000
    39  H    0.000000  -0.000000  -0.000000   0.000000  -0.000000   0.000000
    40  H   -0.000000  -0.000000  -0.000000  -0.000000   0.000000  -0.000000
    41  H    0.000000  -0.000000   0.000000  -0.000000  -0.000000   0.000000
    42  H    0.000000   0.000000  -0.000000  -0.000000  -0.000000   0.000000
              25         26         27         28         29         30
     1  C   -0.000000  -0.000469   0.000008   0.000001   0.000015   0.000000
     2  O    0.000005   0.007053  -0.000001  -0.000026  -0.000100   0.000001
     3  N   -0.000039  -0.001695   0.001035  -0.000819   0.002646  -0.000013
     4  C    0.003445  -0.002854  -0.039516  -0.003500  -0.005180  -0.002038
     5  C   -0.019205  -0.072754  -0.005508   0.000100  -0.000025  -0.000777
     6  C    0.363166  -0.000079   0.000117  -0.000010  -0.000000   0.002446
     7  O    0.002380   0.308273  -0.000017  -0.000001  -0.000002   0.000019
     8  C    0.000020   0.000198   0.341658  -0.053674  -0.050645  -0.026830
     9  N    0.000001  -0.000006  -0.028952   0.339498   0.348309   0.004276
    10  C    0.000458  -0.000010  -0.024886  -0.003903   0.005264   0.354832
    11  O   -0.000005  -0.000000   0.001390   0.000085   0.000027  -0.038014
    12  C   -0.000006  -0.000000  -0.000014  -0.000035   0.000006  -0.008155
    13  C    0.000060   0.000000  -0.000045   0.000001   0.000000   0.005334
    14  C    0.000000  -0.000000   0.000017   0.000001  -0.000000  -0.000255
    15  C    0.000000   0.000000  -0.000004   0.000005   0.000001   0.000038
    16  C    0.000000   0.000000   0.000000   0.000000  -0.000000   0.000012
    17  H    0.000000  -0.000004   0.000000  -0.000000  -0.000000  -0.000000
    18  H   -0.000000   0.000048   0.000011  -0.000000   0.000003  -0.000000
    19  H    0.000000   0.000013  -0.000002   0.000000   0.000061   0.000000
    20  H    0.000003   0.000005   0.000231   0.003239   0.008121  -0.000025
    21  H   -0.000220   0.007378   0.006691   0.004763   0.000535  -0.000275
    22  H   -0.001863   0.007046   0.003572   0.000010   0.000010   0.000264
    23  H   -0.033461   0.002844   0.000086   0.000001   0.000000  -0.000625
    24  H   -0.028732  -0.000107   0.000162   0.000001   0.000001   0.003145
    25  H    0.588875  -0.000032  -0.000003  -0.000000  -0.000000   0.000126
    26  H   -0.000032   0.470795   0.000022  -0.000000   0.000001  -0.000006
    27  H   -0.000003   0.000022   0.637333   0.006630  -0.003281  -0.008449
    28  H   -0.000000  -0.000000   0.006630   0.511974  -0.032606  -0.000208
    29  H   -0.000000   0.000001  -0.003281  -0.032606   0.495888  -0.000288
    30  H    0.000126  -0.000006  -0.008449  -0.000208  -0.000288   0.691817
    31  H   -0.000018   0.000001   0.007183   0.004290  -0.000122  -0.056477
    32  H   -0.000000  -0.000000   0.000040   0.000005  -0.000001  -0.001874
    33  H   -0.000003  -0.000000   0.000052   0.000000  -0.000000   0.001084
    34  H   -0.000190  -0.000000   0.000031   0.000000   0.000000  -0.003790
    35  H   -0.000001   0.000000   0.000000  -0.000000  -0.000000  -0.000596
    36  H    0.000000   0.000000   0.000004   0.000000  -0.000000  -0.000060
    37  H    0.000000   0.000000   0.000000   0.000000  -0.000000   0.000000
    38  H    0.000000   0.000000   0.000003  -0.000013  -0.000005   0.000056
    39  H    0.000000   0.000000  -0.000000  -0.000000  -0.000000   0.000001
    40  H   -0.000000   0.000000  -0.000000  -0.000000   0.000000  -0.000001
    41  H   -0.000000  -0.000000   0.000000   0.000000  -0.000000   0.000000
    42  H    0.000000  -0.000000  -0.000000  -0.000000  -0.000000   0.000001
              31         32         33         34         35         36
     1  C    0.000000   0.000000  -0.000000  -0.000000  -0.000000   0.000000
     2  O    0.000002   0.000000   0.000000   0.000000  -0.000000   0.000000
     3  N   -0.000034   0.000000   0.000000  -0.000000  -0.000000   0.000000
     4  C   -0.000662   0.000043   0.000011   0.000031  -0.000000   0.000000
     5  C   -0.001154  -0.000003  -0.000005   0.000016  -0.000000  -0.000000
     6  C    0.000023  -0.000000  -0.000128  -0.000053   0.000055   0.000000
     7  O   -0.000007   0.000000   0.000000   0.000001   0.000000   0.000000
     8  C   -0.038125   0.000185  -0.000100  -0.000019  -0.000008   0.000003
     9  N   -0.007043  -0.000042  -0.000001  -0.000005   0.000000  -0.000001
    10  C    0.342319  -0.005957  -0.000247  -0.003169   0.000074   0.000105
    11  O   -0.035901  -0.036302   0.000954  -0.000932   0.001983   0.000589
    12  C   -0.005384   0.339646  -0.016911  -0.017825  -0.015461  -0.032970
    13  C   -0.003559  -0.071362   0.363027   0.364804   0.362438  -0.009144
    14  C    0.000572  -0.035902  -0.006034   0.003598  -0.004633   0.354671
    15  C   -0.000223  -0.008468   0.000036  -0.000178   0.000010  -0.043631
    16  C    0.000030  -0.003709   0.000038   0.000238  -0.000901  -0.044048
    17  H    0.000000  -0.000000   0.000000   0.000000  -0.000000   0.000000
    18  H    0.000000  -0.000000  -0.000000   0.000000   0.000000   0.000000
    19  H    0.000000   0.000000   0.000000   0.000000   0.000000  -0.000000
    20  H   -0.000007   0.000000   0.000000   0.000000  -0.000000  -0.000000
    21  H    0.005995  -0.000001   0.000000   0.000006   0.000000  -0.000000
    22  H    0.000052  -0.000000   0.000000   0.000028   0.000000  -0.000000
    23  H    0.001615   0.000016   0.000001   0.001369   0.000001   0.000000
    24  H    0.000168   0.000026   0.000858   0.005841  -0.000103  -0.000000
    25  H   -0.000018  -0.000000  -0.000003  -0.000190  -0.000001   0.000000
    26  H    0.000001  -0.000000  -0.000000  -0.000000   0.000000   0.000000
    27  H    0.007183   0.000040   0.000052   0.000031   0.000000   0.000004
    28  H    0.004290   0.000005   0.000000   0.000000  -0.000000   0.000000
    29  H   -0.000122  -0.000001  -0.000000   0.000000  -0.000000  -0.000000
    30  H   -0.056477  -0.001874   0.001084  -0.003790  -0.000596  -0.000060
    31  H    0.698078   0.015764   0.000386   0.001229   0.000064   0.000050
    32  H    0.015764   0.722947   0.006510  -0.003782   0.001287   0.007778
    33  H    0.000386   0.006510   0.592164  -0.038013  -0.029265   0.005429
    34  H    0.001229  -0.003782  -0.038013   0.593486  -0.028207  -0.000039
    35  H    0.000064   0.001287  -0.029265  -0.028207   0.586135   0.000403
    36  H    0.000050   0.007778   0.005429  -0.000039   0.000403   0.683037
    37  H    0.000030   0.005874   0.000012   0.000003   0.000000   0.006268
    38  H    0.000052   0.000325   0.000004  -0.000003  -0.000013  -0.002518
    39  H   -0.000001  -0.000150  -0.000000   0.000002  -0.000006  -0.002681
    40  H    0.000002   0.006188   0.000101  -0.000046   0.001199   0.006245
    41  H    0.000000  -0.000148  -0.000042  -0.000001  -0.000038  -0.002359
    42  H   -0.000000   0.000087   0.000841  -0.000166   0.003448  -0.003342
              37         38         39         40         41         42
     1  C    0.000000   0.000000  -0.000000   0.000000  -0.000000   0.000000
     2  O   -0.000000  -0.000000   0.000000  -0.000000   0.000000  -0.000000
     3  N   -0.000000   0.000000  -0.000000  -0.000000  -0.000000   0.000000
     4  C    0.000000   0.000001  -0.000000   0.000000   0.000000   0.000000
     5  C   -0.000000  -0.000000   0.000000  -0.000000   0.000000  -0.000000
     6  C    0.000000   0.000000  -0.000000   0.000000   0.000000  -0.000000
     7  O    0.000000   0.000000  -0.000000   0.000000  -0.000000   0.000000
[...]
 72,0.00069408,0.00006851,0.00028513,-0.00008883,0.00002378,-0.00001694
 ,-0.00641020,0.00292120,-0.00136425,-0.01545693,0.00568651,-0.05022620
 ,-0.00068043,-0.00091902,-0.00001043,0.00001155,-0.00000521,0.00000333
 ,0.00000621,0.00000006,-0.00000921,0.00000753,0.00000562,-0.00000415,-
 0.00004288,0.00002791,-0.00007866,0.00000342,-0.00000903,0.00000815,0.
 00000633,-0.00000545,-0.00000923,0.00000033,0.00000800,-0.00000603,-0.
 00000330,0.00000804,0.00001407,-0.00000072,-0.00001489,-0.00000377,-0.
 00000941,0.00003129,-0.00000092,0.00001645,-0.00010054,-0.00002881,-0.
 00019950,0.00022234,-0.00018594,0.00006725,-0.00023199,0.00021033,-0.0
 0003697,-0.00001585,-0.00002772,0.00002236,0.00003306,-0.00013564,0.00
 003524,-0.00003005,-0.00004153,-0.00001923,-0.00002193,-0.00001216,0.0
 0003041,0.00000647,-0.00002040,-0.00002179,-0.00001246,-0.00001409,-0.
 00002282,0.00051053,0.00005195,0.02770970,-0.01044482,0.00214279,0.017
 18920,-0.00574673,0.05052447,0.00003311,-0.00000185,-0.00000655,-0.000
 02847,0.00002850,-0.00002355,-0.00000068,0.00001146,0.00000761,0.00001
 219,0.00003665,0.00001974,-0.00000495,-0.00003499,-0.00002822,0.000000
 14,0.00001136,0.00000765,-0.00000603,0.00004029,0.00000144,-0.00003026
 ,-0.00020625,0.00002726,-0.00026083,0.00025842,-0.00008552,0.00014142,
 -0.00024400,0.00011329,0.00098946,0.00131337,-0.00012482,-0.00452345,-
 0.00239496,-0.00166281,0.00071786,-0.00101422,0.00084051,-0.00047628,-
 0.01500119,0.01642716,-0.04704215,0.00857210,-0.00849723,0.00132088,-0
 .00064538,0.00113030,-0.00000503,0.00000194,-0.00000141,-0.00000245,-0
 .00000024,0.00000376,-0.00000333,-0.00000270,0.00000141,0.00002036,-0.
 00001262,0.00003130,-0.00000263,0.00000378,-0.00000351,0.00000099,0.00
 000343,0.00000376,-0.00000269,-0.00000155,-0.00000322,-0.00000475,-0.0
 0000732,-0.00000514,-0.00000002,0.00000739,0.00000123,0.00000435,-0.00
 001230,0.00000091,0.00000437,0.00000929,0.00000974,0.00008435,-0.00006
 418,0.00007831,-0.00002507,0.00006767,-0.00004130,-0.00001661,0.000091
 52,-0.00006236,-0.00002863,-0.00002640,0.00001980,-0.00008511,0.000143
 84,-0.00020654,0.00000144,-0.00001531,-0.00005289,-0.00030956,-0.00042
 600,-0.00005931,0.00002546,0.00007660,0.00003982,0.00082132,0.00083457
 ,-0.00018831,-0.00064106,-0.00591733,0.00608888,0.00120058,0.01991168,
 -0.02262372,0.04837284,-0.00006885,-0.00000047,0.00001245,0.00007809,-
 0.00001929,0.00004197,0.00002354,-0.00001843,-0.00001935,0.00001122,0.
 00002010,-0.00003255,-0.00003665,0.00004819,-0.00000102,-0.00000229,-0
 .00000418,-0.00000524,0.00004357,-0.00005430,0.00002659,-0.00009215,0.
 00000242,0.00004353,0.00016982,-0.00001796,0.00000275,-0.00031861,0.00
 026218,-0.00057641,-0.00024983,-0.00035632,0.00033367,-0.00367006,-0.0
 0248788,-0.00271278,0.00089730,-0.00088822,0.00124167,0.00173392,-0.01
 773588,0.01803739,0.00760186,-0.17264540,0.13002131,0.00136033,0.00042
 348,0.00020674,0.00000983,-0.00000406,0.00000255,0.00000403,0.00000018
 ,-0.00000643,0.00000916,0.00000729,-0.00000154,-0.00002055,0.00000303,
 -0.00001014,0.00000688,0.00000770,-0.00001454,0.00001382,-0.00000443,-
 0.00000462,0.00000827,0.00001925,-0.00002091,-0.00001279,0.00000864,0.
 00002933,0.00001285,-0.00001586,-0.00000333,-0.00001853,0.00000647,-0.
 00000905,-0.00000872,0.00000397,-0.00000207,-0.00002311,-0.00000682,-0
 .00001162,0.00003353,-0.00002988,0.00005572,0.00000179,-0.00006229,0.0
 0009645,0.00001720,0.00000704,0.00009240,-0.00006641,0.00022905,0.0000
 7766,0.00001315,-0.00001844,-0.00007158,-0.00041399,-0.00049055,-0.000
 06500,-0.00009314,0.00004991,0.00001066,0.00073662,0.00063244,-0.00025
 031,-0.00071843,0.01038494,-0.01042389,-0.00048439,-0.00783458,0.00771
 736,-0.00595035,0.18960710,0.00004740,-0.00000181,-0.00000705,-0.00004
 687,0.00002241,-0.00002902,-0.00000944,0.00000772,0.00001400,0.0000121
 8,0.00000825,0.00001782,0.00001076,-0.00003980,-0.00000618,0.00000047,
 0.00000423,0.00000715,-0.00002147,0.00004356,-0.00001315,0.00001913,-0
 .00005594,0.00001487,-0.00011990,0.00008406,-0.00001179,0.00003743,-0.
 00018327,-0.00006049,-0.00002138,0.00021473,0.00003569,-0.00112481,-0.
 00108390,0.00000432,-0.00004409,-0.00030048,0.00054312,-0.00041221,-0.
 00665980,0.00507015,-0.00733573,0.13144278,-0.18022222,0.00020058,-0.0
 0009677,-0.00007345,-0.00000631,0.00000292,-0.00000239,-0.00000310,-0.
 00000046,0.00000495,-0.00000537,-0.00000443,0.00000147,0.00001828,-0.0
 0000595,0.00001448,-0.00000557,-0.00000334,0.00000419,-0.00000309,0.00
 000438,0.00000314,-0.00000359,-0.00000652,0.00000403,0.00000062,-0.000
 00466,-0.00001231,-0.00000426,0.00000920,0.00000203,0.00001024,-0.0000
 0973,0.00000414,-0.00000785,0.00000820,0.00000820,0.00007928,-0.000047
 44,0.00004456,-0.00001386,0.00003929,-0.00001603,-0.00000466,0.0000385
 7,0.00001473,-0.00000723,0.00000911,0.00006739,-0.00008073,-0.00017068
 ,0.00055229,0.00006155,0.00010291,0.00000775,-0.00007290,-0.00015490,-
 0.00001443,0.00004217,0.00001231,-0.00001458,0.00051761,0.00033931,0.0
 0093819,-0.00185086,0.01996797,-0.02000612,0.00015516,-0.00021632,-0.0
 0124928,0.00948879,-0.14315443,0.19392858,0.00000386,0.00000119,0.0000
 0104,-0.00000491,-0.00000145,-0.00000492,-0.00000089,0.00000023,-0.000
 00043,0.00000058,-0.00000180,0.00000222,0.00000527,-0.00000150,0.00000
 821,0.00000065,-0.00000667,0.00000545,-0.00000573,0.00000370,-0.000010
 90,0.00001846,-0.00000206,0.00001862,0.00000205,-0.00001349,-0.0000077
 7,0.00005625,-0.00000655,-0.00008514,0.00020391,-0.00034222,-0.0004024
 8,0.00099324,-0.00057607,0.00170807,-0.00002002,0.00008477,-0.00032891
 ,-0.00927886,0.00946211,0.03009839,0.00175227,0.00094147,0.00123000,-0
 .06612319,0.01900721,0.06350143,-0.00000069,0.00000052,-0.00000027,-0.
 00000003,-0.00000058,-0.00000031,-0.00000092,-0.00000080,0.00000030,0.
 00000005,-0.00000011,0.00000055,-0.00000117,0.00000088,-0.00000184,0.0
 0000158,0.00000010,-0.00000146,-0.00000013,0.00000031,-0.00000157,-0.0
 0000048,0.00000078,-0.00000103,-0.00000119,0.00000047,-0.00000044,0.00
 000139,0.00000204,0.00000300,0.00000874,-0.00001046,-0.00000021,-0.000
 01162,0.00001194,-0.00000921,0.00000223,-0.00000364,0.00000414,-0.0000
 0113,0.00001016,-0.00001884,-0.00004287,0.00001917,-0.00005783,-0.0000
 4044,0.00013894,-0.00090908,-0.00007383,-0.00013502,0.00003029,0.00005
 352,0.00005944,0.00002794,0.00003370,0.00005575,-0.00003840,-0.0058523
 8,0.00218836,-0.00047220,-0.00009285,-0.00066435,-0.00083204,0.0002415
 1,-0.00002030,-0.00048236,-0.00007250,-0.00001705,-0.00008265,0.072607
 12,0.00000708,0.00000059,-0.00000201,-0.00000831,-0.00000077,-0.000001
 05,-0.00000644,0.00000077,0.00000362,0.00000231,-0.00000748,-0.0000014
 0,0.00000272,-0.00000242,-0.00000119,0.00000203,0.00000450,-0.00000455
 ,-0.00000413,0.00000023,0.00000407,0.00001605,0.00002475,-0.00000632,-
 0.00000890,-0.00002963,0.00001800,0.00001067,-0.00005026,0.00009698,-0
 .00030420,0.00012911,0.00037657,0.00001872,0.00036704,-0.00178037,0.00
 030942,-0.00011650,-0.00015511,0.00388119,-0.00521505,-0.01175094,-0.0
 0066598,0.00013779,0.00082491,0.01914294,-0.06774437,-0.06718746,-0.00
 000056,0.00000002,-0.00000002,-0.00000048,0.00000028,0.00000088,-0.000
 00106,-0.00000094,-0.00000017,0.00000175,0.00000228,-0.00000345,-0.000
 00090,-0.00000259,0.00000559,-0.00000399,0.00000027,0.00000170,-0.0000
 0157,-0.00000355,0.00000517,0.00000211,-0.00000227,-0.00000381,-0.0000
 0223,0.00000208,0.00000053,0.00000319,0.00000018,-0.00000073,-0.000007
 72,0.00000291,-0.00000043,0.00000267,0.00000611,-0.00000236,-0.0000065
 8,0.00000397,-0.00000923,0.00001079,-0.00001260,0.00000679,0.00002707,
 -0.00000007,0.00002644,0.00015400,0.00005926,0.00057452,-0.00006653,0.
 00023735,0.00015274,-0.00010900,0.00001199,0.00014910,-0.00027445,-0.0
 0018698,-0.00008135,0.00267757,-0.00011859,0.00038316,0.00003352,0.000
 44229,0.00004059,-0.00000457,-0.00005589,0.00001319,-0.00002731,0.0000
 8931,0.00006072,-0.02441861,0.07026789,-0.00001644,-0.00000060,-0.0000
 0025,0.00001933,-0.00000420,0.00001611,0.00000125,-0.00000568,-0.00000
 157,0.00001017,0.00000465,-0.00001419,-0.00001049,0.00001401,-0.000010
 78,0.00000134,0.00000608,-0.00000659,0.00001243,-0.00001792,0.00002054
 ,-0.00000881,-0.00001630,0.00000449,0.00001818,-0.00000803,0.00001446,
 0.00002419,-0.00003367,-0.00012246,-0.00003066,-0.00001794,0.00030414,
 -0.00015455,0.00082774,0.00054865,0.00024837,-0.00019370,0.00011106,0.
 00035495,-0.00075564,0.00002833,-0.00020691,0.00018222,0.00035492,0.06
 357468,-0.06713477,-0.26214766,0.00000284,-0.00000189,0.00000114,0.000
 00088,0.00000114,-0.00000052,0.00000243,0.00000193,-0.00000106,-0.0000
 0361,0.00000240,-0.00000481,0.00000044,0.00000053,0.00000256,-0.000001
 23,-0.00000130,0.00000194,0.00000049,0.00000236,-0.00000066,-0.0000011
 1,-0.00000203,0.00000526,0.00000188,-0.00000131,-0.00000105,-0.0000037
 0,0.00000042,-0.00000622,-0.00000291,0.00000685,0.00000271,-0.00000061
 ,-0.00000368,0.00000114,0.00000013,0.00000356,-0.00000325,0.00000495,-
 0.00001354,0.00002225,0.00001328,0.00000369,0.00000932,0.00027162,-0.0
 0054353,0.00047978,-0.00012161,0.00011758,0.00004043,-0.00001659,-0.00
 004302,0.00004505,-0.00010969,-0.00015087,-0.00007286,-0.00005990,0.00
 032286,0.00146385,0.00050659,0.00039395,0.00030035,0.00007369,0.000147
 19,0.00027379,-0.00006025,-0.00007613,0.00001226,-0.07162736,0.0750031
 8,0.28544680,0.00003518,0.00000197,-0.00000947,-0.00005252,0.00000859,
 -0.00002616,-0.00001150,0.00003310,0.00000924,-0.00006659,-0.00005212,
 0.00002931,0.00001252,-0.00004149,-0.00000430,0.00000329,0.00000918,0.
 00001105,-0.00001656,0.00003490,-0.00001277,0.00005773,0.00017733,-0.0
 0015422,-0.00002457,-0.00008374,0.00003468,-0.00015293,0.00013892,0.00
 067529,-0.00148101,0.00196703,-0.00189926,-0.00513192,-0.00099577,0.00
 258625,-0.00038348,-0.00041924,0.00037805,-0.00359208,0.02599979,-0.02
 119160,0.00179436,0.00113452,-0.00067528,-0.04573384,0.01070261,-0.008
 67642,-0.00000675,0.00000235,-0.00000128,-0.00000227,-0.00000048,0.000
 00336,-0.00000508,-0.00000366,0.00000089,0.00000963,0.00000227,-0.0000
 0195,-0.00000466,-0.00000916,0.00001103,-0.00000328,0.00000483,0.00000
 293,-0.00000670,-0.00000882,0.00000466,0.00000185,-0.00001044,-0.00001
 551,-0.00000734,0.00001046,0.00000222,0.00000860,-0.00000716,0.0000047
 7,0.00001264,-0.00000949,-0.00000094,0.00000004,0.00001915,-0.00001021
 ,-0.00001829,0.00000409,-0.00002364,-0.00003802,0.00010217,-0.00012321
 ,0.00000250,-0.00003430,-0.00008035,0.00006533,-0.00012805,-0.00017397
 ,0.00001139,0.00008129,0.00003447,0.00029825,0.00002036,-0.00001069,0.
 00045716,0.00011052,-0.00024398,0.00118962,-0.00049240,0.00044996,-0.0
 0007197,-0.00018036,-0.00002171,0.00030780,0.00007246,0.00029822,-0.00
 045413,-0.00063405,0.00040499,-0.00033211,-0.00735531,0.00470515,0.052
 29930,-0.00005403,0.00000036,0.00000929,0.00006385,-0.00001362,0.00003
 473,0.00001662,-0.00001913,-0.00001551,0.00002596,0.00002806,-0.000029
 95,-0.00002917,0.00003954,-0.00000713,-0.00000196,0.00000009,-0.000004
 34,0.00003554,-0.00004426,0.00002551,-0.00007981,-0.00007763,0.0000771
 5,0.00006555,0.00004277,-0.00001648,0.00001441,0.00005147,-0.00045285,
 0.00073200,-0.00046734,0.00098539,0.00118658,0.00069645,-0.00186991,-0
 .00022728,0.00015716,0.00043581,0.00055162,-0.01004448,0.00724128,-0.0
 0133276,0.00073071,-0.00038918,0.01201782,-0.21170175,0.12630480,0.000
 00789,-0.00000371,0.00000266,0.00000305,0.00000070,-0.00000519,0.00000
 701,0.00000571,-0.00000169,-0.00001287,0.00000226,-0.00000234,0.000004
 88,0.00000740,-0.00001080,0.00001005,-0.00000348,-0.00000281,0.0000057
 7,0.00001495,-0.00001671,-0.00000969,0.00000464,0.00002337,0.00001033,
 -0.00001223,-0.00000261,-0.00001471,0.00000524,-0.00000806,-0.00000612
 ,0.00000574,-0.00000128,-0.00001184,-0.00000736,0.00000181,0.00001743,
 -0.00000149,0.00002258,-0.00001166,-0.00002489,0.00004407,0.00000390,0
 .00000226,0.00005204,0.00002449,0.00003735,0.00025628,-0.00005807,0.00
 005135,-0.00003176,0.00019548,-0.00006699,0.00000945,0.00040315,-0.000
 14074,-0.00020088,-0.00019423,-0.00004929,-0.00031643,0.00011035,0.000
 08947,-0.00002641,-0.00001329,-0.00000880,-0.00033985,0.00035083,0.000
 71482,-0.00002355,-0.00087144,0.00820525,-0.00642422,-0.01444236,0.229
 30338,0.00002576,0.00000075,-0.00000342,-0.00002958,0.00000411,-0.0000
 1525,-0.00000951,0.00000654,0.00000730,-0.00000386,-0.00001516,0.00000
 776,0.00001374,-0.00001731,0.00000655,0.00000184,-0.00000168,0.0000037
 3,-0.00001729,0.00001795,-0.00001307,0.00004132,0.00004355,-0.00000751
 ,-0.00002473,-0.00003764,0.00000948,0.00012083,-0.00010228,0.00024375,
 -0.00027455,0.00030520,0.00000840,0.00013914,-0.00045018,0.00083962,0.
 00017481,-0.00013397,0.00015044,0.00002255,-0.00081921,-0.00038727,0.0
 0043955,0.00006497,0.00008542,-0.00953544,0.12621790,-0.14301396,-0.00
 000343,0.00000165,-0.00000122,-0.00000138,-0.00000043,0.00000222,-0.00
 000353,-0.00000314,0.00000064,0.00000611,-0.00000005,-0.00000112,-0.00
 000245,-0.00000391,0.00000518,-0.00000374,0.00000194,0.00000130,-0.000
 00295,-0.00000556,0.00000518,0.00000309,-0.00000268,-0.00000930,-0.000
 00428,0.00000468,0.00000110,0.00000764,-0.00000083,0.00000411,0.000002
 31,-0.00000541,-0.00000344,0.00000519,0.00000836,-0.00000519,-0.000008
 25,0.00000421,-0.00000933,-0.00000852,0.00001644,-0.00002659,0.0000134
 8,0.00000024,-0.00002934,0.00013342,-0.00022930,0.00041814,-0.00010751
 ,0.00012727,0.00002846,0.00006892,0.00001422,0.00003784,-0.00004059,-0
 .00008137,-0.00009573,-0.00050280,-0.00013599,0.00049917,-0.00005027,0
 .00010495,-0.00019982,0.00001243,-0.00024512,0.00009205,-0.00039619,-0
 .00023780,0.00027684,-0.00158007,0.02424087,-0.01790980,0.01019401,-0.
 13916930,0.15213956,0.00001032,-0.00000596,-0.00000326,-0.00000735,0.0
 0002752,-0.00001539,0.00001287,0.00001377,0.00000387,-0.00000369,0.000
 02035,0.00001114,-0.00002425,-0.00003763,-0.00002641,0.00000336,0.0000
 1553,0.00000959,0.00001188,0.00003668,0.00000970,-0.00005879,-0.000104
 69,0.00000548,-0.00004915,0.00019247,-0.00008573,0.00005181,-0.0001032
 1,0.00000440,0.00040277,0.00043782,0.00011657,-0.00023971,-0.00154961,
 0.00024127,-0.00032498,-0.00013263,0.00019239,-0.01785920,-0.02297347,
 -0.00999573,-0.00574068,0.00456330,0.00013255,-0.15587021,-0.11636695,
 -0.05523175,-0.00000256,0.00000168,-0.00000172,-0.00000148,-0.00000104
 ,0.00000241,0.00000033,0.00000127,0.00000224,0.00001059,-0.00001033,0.
 00002551,-0.00000038,0.00000527,-0.00000790,0.00000890,0.00000369,0.00
 000092,-0.00000027,0.00000400,-0.00001250,-0.00001237,-0.00001131,0.00
 000150,0.00000175,0.00000653,0.00000061,-0.00000299,-0.00001779,-0.000
 00265,-0.00000010,-0.00000212,0.00000483,0.00003451,-0.00004034,0.0000
 3363,0.00001569,-0.00000669,0.00002043,-0.00002442,0.00008547,-0.00004
 824,-0.00000741,0.00000119,0.00001855,0.00006406,0.00009531,0.00005667
 ,-0.00016907,0.00032463,0.00019382,0.00050641,-0.00000012,0.00019478,0
 .00082511,0.00004297,-0.00041987,0.00130585,-0.00009440,0.00060708,0.0
 0026230,0.00012876,-0.00014173,-0.00128844,-0.00179967,-0.00042947,0.0
 0027554,0.00011318,0.00018131,0.00597152,0.00697304,0.00258717,0.00103
 041,0.00150675,0.00118480,0.17088152,0.00002021,-0.00000242,-0.0000037
 4,-0.00002255,0.00001177,-0.00001479,-0.00000259,0.00000709,0.00000602
 ,-0.00000703,-0.00000628,0.00001056,0.00000572,-0.00002161,-0.00000096
 ,0.00000095,0.00000162,0.00000474,-0.00001005,0.00002452,-0.00000820,0
 .00000988,0.00000394,-0.00001782,-0.00002772,0.00001929,-0.00000759,0.
 00000283,-0.00006359,0.00011425,-0.00026187,0.00020409,-0.00034725,-0.
 00033368,0.00030919,0.00038900,0.00013939,-0.00109181,0.00114540,0.007
 83117,0.00925138,0.00461929,0.00171950,-0.00045140,0.00030650,-0.11830
 950,-0.17343363,-0.06090786,-0.00000320,0.00000164,-0.00000148,-0.0000
 0138,-0.00000046,0.00000248,-0.00000208,-0.00000123,0.00000113,0.00000
 612,-0.00000210,0.00000574,-0.00000205,-0.00000188,0.00000228,-0.00000
 115,0.00000211,0.00000077,-0.00000192,-0.00000438,0.00000273,0.0000011
 6,-0.00000309,-0.00000775,-0.00000349,0.00000585,0.00000113,0.00000383
 ,-0.00000660,0.00000201,0.00000245,-0.00000247,0.00000124,0.00001137,-
 0.00000697,0.00000513,-0.00000313,-0.00000112,-0.00000309,0.00000522,0
 .00002864,-0.00002027,-0.00000334,0.00000655,-0.00001486,0.00001266,-0
 .00003702,0.00000072,-0.00004489,-0.00013387,-0.00009804,0.00031670,-0
 .00001272,-0.00004971,0.00083334,-0.00130977,0.00069147,-0.00078687,0.
 00072134,0.00009894,0.00015098,0.00000404,0.00021228,0.00049134,0.0005
 5296,0.00002164,0.00023173,0.00016772,-0.00019843,-0.00489536,-0.00644
 628,-0.00159236,-0.01572949,-0.01750999,-0.00948749,0.12865676,0.18922
 692,-0.00001116,-0.00000133,0.00000123,0.00001257,0.00000331,0.0000043
 9,0.00000847,0.00000196,-0.00000276,-0.00000428,0.00000544,-0.00000279
 ,-0.00001418,-0.00000316,-0.00000847,-0.00000015,0.00000359,0.00000635
 ,0.00001306,-0.00000004,0.00000697,-0.00002393,-0.00000707,0.00000982,
 0.00001641,0.00003134,-0.00001747,-0.00001530,-0.00004257,-0.00006788,
 0.00018947,0.00031551,0.00008621,-0.00066550,-0.00104874,-0.00024762,-
 0.00069869,0.00025336,0.00057106,0.00136775,0.00089017,-0.00139990,0.0
 0023004,0.00014216,0.00036603,-0.05555719,-0.05983915,-0.07535946,0.00
 000107,-0.00000052,0.00000016,0.00000042,-0.00000010,-0.00000062,0.000
 00189,0.00000179,0.00000004,-0.00000092,-0.00000138,0.00000358,0.00000
 091,0.00000190,-0.00000478,0.00000671,0.00000098,-0.00000039,0.0000008
 0,0.00000612,-0.00001121,-0.00000715,-0.00000189,0.00000744,0.00000369
 ,-0.00000181,-0.00000029,-0.00000497,-0.00000390,-0.00000242,-0.000000
 58,-0.00000018,0.00000060,0.00000498,-0.00000992,0.00000470,0.00000662
 ,-0.00000091,0.00000972,-0.00001633,0.00003660,-0.00000960,0.00000553,
 0.00000260,0.00001397,-0.00002154,0.00006917,0.00012260,0.00002780,-0.
 00002633,-0.00004126,0.00038897,-0.00010017,-0.00005318,0.00024688,0.0
 0087780,-0.00075092,-0.00000641,0.00054122,0.00046904,0.00024101,0.000
 34595,0.00035397,0.00006947,-0.00008428,0.00059676,-0.00020980,-0.0003
 3945,0.00014218,-0.01968195,-0.02099735,-0.00920759,0.01351638,0.01384
 305,0.00685711,0.06057913,0.06513622,0.07755467\\0.00000489,-0.0000039
 0,-0.00000198,-0.00000179,0.00000279,-0.00000404,-0.00000301,-0.000008
 91,0.00000438,0.00000793,-0.00000140,0.00000016,-0.00000351,-0.0000056
 2,-0.00000269,0.00000150,-0.00000332,0.00000406,0.00000364,0.00000577,
 -0.00000105,-0.00000576,0.00000864,0.00000536,0.00000213,-0.00000370,0
 .00000120,-0.00000699,0.00001216,-0.00002869,0.00000125,-0.00001079,0.
 00002050,0.00000282,0.00000073,-0.00000367,0.00000223,-0.00000080,-0.0
 0000006,-0.00000058,0.00000192,-0.00000022,-0.00000013,0.00000150,-0.0
 0000016,-0.00000089,0.00000181,-0.00000067,-0.00000009,-0.00000065,0.0
 0000032,-0.00000179,0.00000236,0.00000100,0.00000116,0.00000061,0.0000
 0238,-0.00000168,0.00000194,-0.00000080,-0.00000062,-0.00000162,-0.000
 00037,0.00000088,-0.00000139,0.00000042,-0.00000131,0.00000036,-0.0000
 0303,0.00000069,0.00000121,0.00000015,0.00000123,0.00000065,-0.0000003
 8,-0.00000556,0.00000069,-0.00000223,0.00000166,-0.00000119,-0.0000013
 7,-0.00000078,0.00000039,-0.00000083,-0.00000083,-0.00000003,0.0000005
 5,0.00000059,-0.00000184,0.00000120,0.00000085,-0.00000055,0.00000701,
 -0.00000038,-0.00000153,0.00000088,-0.00000029,0.00000020,-0.00000002,
 0.00000035,-0.00000075,-0.00000033,0.00000099,0.00000140,0.00000004,0.
 00000016,0.00000051,0.00000044,-0.00000025,0.00000027,0.00000079,-0.00
 000005,0.00000045,0.00000024,0.00000038,0.00000041,0.00000087,0.000000
 27,-0.00000002,0.00000020,0.00000018,0.00000059,0.00000060,0.00000053,
 0.00000067,-0.00000017\\\@


 THE FIRST AND LAST THING REQUIRED OF GENIUS IS THE LOVE OF TRUTH.

                          -- GOETHE
 Job cpu time:       0 days 16 hours 47 minutes  7.4 seconds.
 Elapsed time:       0 days  4 hours 15 minutes 36.8 seconds.
 File lengths (MBytes):  RWF=    995 Int=      0 D2E=      0 Chk=     28 Scr=      1
 Normal termination of Gaussian 16 at Mon May 22 17:28:06 2023.
### All Done ###
