### Starting Gaussian ###
 Entering Gaussian System, Link 0=g16
 Initial command:
 /cluster/software/gaussian/gaussian-16-A.03/avx2/g16/l1.exe "/local/scratch/ks29c/Gau-32656.inp" -scrdir="/local/scratch/ks29c/"
 Entering Link 1 = /cluster/software/gaussian/gaussian-16-A.03/avx2/g16/l1.exe PID=     32662.
  
 Copyright (c) 1988,1990,1992,1993,1995,1998,2003,2009,2016,
            Gaussian, Inc.  All Rights Reserved.
  
 This is part of the Gaussian(R) 16 program.  It is based on
 the Gaussian(R) 09 system (copyright 2009, Gaussian, Inc.),
 the Gaussian(R) 03 system (copyright 2003, Gaussian, Inc.),
 the Gaussian(R) 98 system (copyright 1998, Gaussian, Inc.),
 the Gaussian(R) 94 system (copyright 1995, Gaussian, Inc.),
 the Gaussian 92(TM) system (copyright 1992, Gaussian, Inc.),
 the Gaussian 90(TM) system (copyright 1990, Gaussian, Inc.),
 the Gaussian 88(TM) system (copyright 1988, Gaussian, Inc.),
 the Gaussian 86(TM) system (copyright 1986, Carnegie Mellon
 University), and the Gaussian 82(TM) system (copyright 1983,
 Carnegie Mellon University). Gaussian is a federally registered
 trademark of Gaussian, Inc.
  
 This software contains proprietary and confidential information,
 including trade secrets, belonging to Gaussian, Inc.
  
 This software is provided under written license and may be
 used, copied, transmitted, or stored only in accord with that
 written license.
  
 The following legend is applicable only to US Government
 contracts under FAR:
  
                    RESTRICTED RIGHTS LEGEND
  
 Use, reproduction and disclosure by the US Government is
 subject to restrictions as set forth in subparagraphs (a)
 and (c) of the Commercial Computer Software - Restricted
 Rights clause in FAR 52.227-19.
  
 Gaussian, Inc.
 340 Quinnipiac St., Bldg. 40, Wallingford CT 06492
  
  
 ---------------------------------------------------------------
 Warning -- This program may not be used in any manner that
 competes with the business of Gaussian, Inc. or will provide
 assistance to any competitor of Gaussian, Inc.  The licensee
 of this program is prohibited from giving any competitor of
 Gaussian, Inc. access to this program.  By using this program,
 the user acknowledges that Gaussian, Inc. is engaged in the
 business of creating and licensing software in the field of
 computational chemistry and represents and warrants to the
 licensee that it is not a competitor of Gaussian, Inc. and that
 it will not use this program in any manner prohibited above.
 ---------------------------------------------------------------
  

 Cite this work as:
 Gaussian 16, Revision A.03,
 M. J. Frisch, G. W. Trucks, H. B. Schlegel, G. E. Scuseria, 
 M. A. Robb, J. R. Cheeseman, G. Scalmani, V. Barone, 
 G. A. Petersson, H. Nakatsuji, X. Li, M. Caricato, A. V. Marenich, 
 J. Bloino, B. G. Janesko, R. Gomperts, B. Mennucci, H. P. Hratchian, 
 J. V. Ortiz, A. F. Izmaylov, J. L. Sonnenberg, D. Williams-Young, 
 F. Ding, F. Lipparini, F. Egidi, J. Goings, B. Peng, A. Petrone, 
 T. Henderson, D. Ranasinghe, V. G. Zakrzewski, J. Gao, N. Rega, 
 G. Zheng, W. Liang, M. Hada, M. Ehara, K. Toyota, R. Fukuda, 
 J. Hasegawa, M. Ishida, T. Nakajima, Y. Honda, O. Kitao, H. Nakai, 
 T. Vreven, K. Throssell, J. A. Montgomery, Jr., J. E. Peralta, 
 F. Ogliaro, M. J. Bearpark, J. J. Heyd, E. N. Brothers, K. N. Kudin, 
 V. N. Staroverov, T. A. Keith, R. Kobayashi, J. Normand, 
 K. Raghavachari, A. P. Rendell, J. C. Burant, S. S. Iyengar, 
 J. Tomasi, M. Cossi, J. M. Millam, M. Klene, C. Adamo, R. Cammi, 
 J. W. Ochterski, R. L. Martin, K. Morokuma, O. Farkas, 
 J. B. Foresman, and D. J. Fox, Gaussian, Inc., Wallingford CT, 2016.
 
 ******************************************
 Gaussian 16:  ES64L-G16RevA.03 25-Dec-2016
                22-May-2023 
 ******************************************
 %chk=COOCOOCCC1CCCCCCC1.chk
 %NProcShared=20
 Will use up to   20 processors via shared memory.
 -----------------------------
 # opt freq b3lyp/6-31g(2df,p)
 -----------------------------
 1/18=20,19=15,26=3,38=1/1,3;
 2/9=110,12=2,17=6,18=5,40=1/2;
 3/5=1,6=6,7=104,11=2,25=1,30=1,71=1,74=-5/1,2,3;
 4//1;
 5/5=2,38=5/2;
 6/7=2,8=2,9=2,10=2,28=1/1;
 7//1,2,3,16;
 1/18=20,19=15,26=3/3(2);
 2/9=110/2;
 99//99;
 2/9=110/2;
 3/5=1,6=6,7=104,11=2,25=1,30=1,71=1,74=-5/1,2,3;
 4/5=5,16=3,69=1/1;
 5/5=2,38=5/2;
 7//1,2,3,16;
 1/18=20,19=15,26=3/3(-5);
 2/9=110/2;
 6/7=2,8=2,9=2,10=2,19=2,28=1/1;
 99/9=1/99;
 -------------------
 Title Card Required
 -------------------
 Symbolic Z-matrix:
 Charge =  0 Multiplicity = 1
 C                     0.86537  -0.03584   0.13205 
 O                     2.28198  -0.05447   0.22139 
 O                     2.72485   0.23276  -1.1316 
 C                     4.14637   0.21971  -1.07902 
 O                     4.63498   0.49489  -2.37984 
 O                     6.0859    0.44099  -2.2833 
 C                     6.48133   0.72712  -3.614 
 C                     7.99391   0.72687  -3.75681 
 C                     8.4925    1.08846  -5.18941 
 C                     7.33924   1.16769  -6.21016 
 C                     7.677     1.4916   -7.65439 
 C                     8.16879   2.90553  -7.9596 
 C                     7.52931   4.03828  -7.15106 
 C                     8.36254   4.55852  -5.97472 
 C                     8.61362   3.626    -4.79106 
 C                     9.3799    2.34292  -5.11538 
 H                     0.45555  -0.24525   1.12279 
 H                     0.52762  -0.80347  -0.56912 
 H                     0.52735   0.94974  -0.19862 
 H                     4.49452  -0.76695  -0.76562 
 H                     4.49717   0.99462  -0.39375 
 H                     6.07254   1.70968  -3.86887 
 H                     6.03695  -0.03547  -4.2602 
 H                     8.37686  -0.26265  -3.47853 
 H                     8.41649   1.40313  -3.00248 
 H                     9.14894   0.26617  -5.50733 
 H                     6.576     1.8768   -5.87893 
 H                     6.8453    0.18688  -6.22954 
 H                     6.75239   1.33641  -8.22926 
 H                     8.39243   0.75744  -8.04148 
 H                     7.9487    3.08307  -9.02057 
 H                     9.25944   2.94959  -7.89435 
 H                     6.50991   3.79348  -6.83312 
 H                     7.41621   4.8899   -7.83541 
 H                     7.8482    5.44422  -5.57792 
 H                     9.32752   4.91685  -6.35246 
 H                     7.66981   3.4158   -4.27765 
 H                     9.2162    4.19082  -4.06627 
 H                     10.12382   2.17734  -4.32304 
 H                     9.98251   2.45154  -6.02054 
 

 GradGradGradGradGradGradGradGradGradGradGradGradGradGradGradGradGradGrad
 Berny optimization.
 Initialization pass.
                           ----------------------------
                           !    Initial Parameters    !
                           ! (Angstroms and Degrees)  !
 --------------------------                            --------------------------
 ! Name  Definition              Value          Derivative Info.                !
 --------------------------------------------------------------------------------
 ! R1    R(1,2)                  1.4195         estimate D2E/DX2                !
 ! R2    R(1,17)                 1.0924         estimate D2E/DX2                !
 ! R3    R(1,18)                 1.0931         estimate D2E/DX2                !
 ! R4    R(1,19)                 1.0931         estimate D2E/DX2                !
 ! R5    R(2,3)                  1.4523         estimate D2E/DX2                !
 ! R6    R(3,4)                  1.4226         estimate D2E/DX2                !
 ! R7    R(4,5)                  1.4165         estimate D2E/DX2                !
 ! R8    R(4,20)                 1.0922         estimate D2E/DX2                !
 ! R9    R(4,21)                 1.0923         estimate D2E/DX2                !
 ! R10   R(5,6)                  1.4551         estimate D2E/DX2                !
 ! R11   R(6,7)                  1.4174         estimate D2E/DX2                !
 ! R12   R(7,8)                  1.5193         estimate D2E/DX2                !
 ! R13   R(7,22)                 1.0943         estimate D2E/DX2                !
 ! R14   R(7,23)                 1.0939         estimate D2E/DX2                !
 ! R15   R(8,9)                  1.5594         estimate D2E/DX2                !
 ! R16   R(8,24)                 1.0969         estimate D2E/DX2                !
 ! R17   R(8,25)                 1.0977         estimate D2E/DX2                !
 ! R18   R(9,10)                 1.5421         estimate D2E/DX2                !
 ! R19   R(9,16)                 1.5384         estimate D2E/DX2                !
 ! R20   R(9,26)                 1.0992         estimate D2E/DX2                !
 ! R21   R(10,11)                1.5182         estimate D2E/DX2                !
 ! R22   R(10,27)                1.0932         estimate D2E/DX2                !
 ! R23   R(10,28)                1.0983         estimate D2E/DX2                !
 ! R24   R(11,12)                1.5278         estimate D2E/DX2                !
 ! R25   R(11,29)                1.0998         estimate D2E/DX2                !
 ! R26   R(11,30)                1.0958         estimate D2E/DX2                !
 ! R27   R(12,13)                1.5316         estimate D2E/DX2                !
 ! R28   R(12,31)                1.098          estimate D2E/DX2                !
 ! R29   R(12,32)                1.0935         estimate D2E/DX2                !
 ! R30   R(13,14)                1.5325         estimate D2E/DX2                !
 ! R31   R(13,33)                1.0955         estimate D2E/DX2                !
 ! R32   R(13,34)                1.0984         estimate D2E/DX2                !
 ! R33   R(14,15)                1.5276         estimate D2E/DX2                !
 ! R34   R(14,35)                1.0984         estimate D2E/DX2                !
 ! R35   R(14,36)                1.0965         estimate D2E/DX2                !
 ! R36   R(15,16)                1.5293         estimate D2E/DX2                !
 ! R37   R(15,37)                1.0948         estimate D2E/DX2                !
 ! R38   R(15,38)                1.0988         estimate D2E/DX2                !
 ! R39   R(16,39)                1.0994         estimate D2E/DX2                !
 ! R40   R(16,40)                1.0928         estimate D2E/DX2                !
 ! A1    A(2,1,17)             108.3476         estimate D2E/DX2                !
 ! A2    A(2,1,18)             109.8454         estimate D2E/DX2                !
 ! A3    A(2,1,19)             109.8433         estimate D2E/DX2                !
 ! A4    A(17,1,18)            109.3417         estimate D2E/DX2                !
 ! A5    A(17,1,19)            109.3397         estimate D2E/DX2                !
 ! A6    A(18,1,19)            110.0937         estimate D2E/DX2                !
 ! A7    A(1,2,3)              104.0686         estimate D2E/DX2                !
 ! A8    A(2,3,4)              105.5733         estimate D2E/DX2                !
 ! A9    A(3,4,5)              107.9964         estimate D2E/DX2                !
 ! A10   A(3,4,20)             109.7197         estimate D2E/DX2                !
 ! A11   A(3,4,21)             109.7308         estimate D2E/DX2                !
 ! A12   A(5,4,20)             109.2104         estimate D2E/DX2                !
 ! A13   A(5,4,21)             109.1181         estimate D2E/DX2                !
 ! A14   A(20,4,21)            111.0068         estimate D2E/DX2                !
 ! A15   A(4,5,6)              106.0105         estimate D2E/DX2                !
 ! A16   A(5,6,7)              102.0294         estimate D2E/DX2                !
 ! A17   A(6,7,8)              111.4669         estimate D2E/DX2                !
 ! A18   A(6,7,22)             107.1996         estimate D2E/DX2                !
 ! A19   A(6,7,23)             107.49           estimate D2E/DX2                !
 ! A20   A(8,7,22)             110.4974         estimate D2E/DX2                !
 ! A21   A(8,7,23)             110.4138         estimate D2E/DX2                !
 ! A22   A(22,7,23)            109.6704         estimate D2E/DX2                !
 ! A23   A(7,8,9)              113.8683         estimate D2E/DX2                !
 ! A24   A(7,8,24)             108.8971         estimate D2E/DX2                !
 ! A25   A(7,8,25)             108.5766         estimate D2E/DX2                !
 ! A26   A(9,8,24)             109.3062         estimate D2E/DX2                !
 ! A27   A(9,8,25)             111.4311         estimate D2E/DX2                !
 ! A28   A(24,8,25)            104.3012         estimate D2E/DX2                !
 ! A29   A(8,9,10)             112.389          estimate D2E/DX2                !
 ! A30   A(8,9,16)             109.2269         estimate D2E/DX2                !
 ! A31   A(8,9,26)             106.4515         estimate D2E/DX2                !
 ! A32   A(10,9,16)            114.9188         estimate D2E/DX2                !
 ! A33   A(10,9,26)            107.0739         estimate D2E/DX2                !
 ! A34   A(16,9,26)            106.2278         estimate D2E/DX2                !
 ! A35   A(9,10,11)            118.3109         estimate D2E/DX2                !
 ! A36   A(9,10,27)            110.7865         estimate D2E/DX2                !
 ! A37   A(9,10,28)            107.5844         estimate D2E/DX2                !
 ! A38   A(11,10,27)           107.7684         estimate D2E/DX2                !
 ! A39   A(11,10,28)           105.8902         estimate D2E/DX2                !
 ! A40   A(27,10,28)           105.7008         estimate D2E/DX2                !
 ! A41   A(10,11,12)           117.3297         estimate D2E/DX2                !
 ! A42   A(10,11,29)           106.2671         estimate D2E/DX2                !
 ! A43   A(10,11,30)           109.7777         estimate D2E/DX2                !
 ! A44   A(12,11,29)           107.2654         estimate D2E/DX2                !
 ! A45   A(12,11,30)           109.8358         estimate D2E/DX2                !
 ! A46   A(29,11,30)           105.6478         estimate D2E/DX2                !
 ! A47   A(11,12,13)           116.3978         estimate D2E/DX2                !
 ! A48   A(11,12,31)           106.1498         estimate D2E/DX2                !
 ! A49   A(11,12,32)           110.2688         estimate D2E/DX2                !
 ! A50   A(13,12,31)           107.8679         estimate D2E/DX2                !
 ! A51   A(13,12,32)           110.802          estimate D2E/DX2                !
 ! A52   A(31,12,32)           104.5407         estimate D2E/DX2                !
 ! A53   A(12,13,14)           115.4208         estimate D2E/DX2                !
 ! A54   A(12,13,33)           112.1141         estimate D2E/DX2                !
 ! A55   A(12,13,34)           106.7094         estimate D2E/DX2                !
 ! A56   A(14,13,33)           111.0388         estimate D2E/DX2                !
 ! A57   A(14,13,34)           105.7256         estimate D2E/DX2                !
 ! A58   A(33,13,34)           104.9671         estimate D2E/DX2                !
 ! A59   A(13,14,15)           118.4818         estimate D2E/DX2                !
 ! A60   A(13,14,35)           107.2431         estimate D2E/DX2                !
 ! A61   A(13,14,36)           108.965          estimate D2E/DX2                !
 ! A62   A(15,14,35)           106.8149         estimate D2E/DX2                !
 ! A63   A(15,14,36)           108.7701         estimate D2E/DX2                !
 ! A64   A(35,14,36)           105.8454         estimate D2E/DX2                !
 ! A65   A(14,15,16)           115.48           estimate D2E/DX2                !
 ! A66   A(14,15,37)           109.8084         estimate D2E/DX2                !
 ! A67   A(14,15,38)           106.7044         estimate D2E/DX2                !
 ! A68   A(16,15,37)           111.7365         estimate D2E/DX2                !
 ! A69   A(16,15,38)           107.2398         estimate D2E/DX2                !
 ! A70   A(37,15,38)           105.1961         estimate D2E/DX2                !
 ! A71   A(9,16,15)            113.9119         estimate D2E/DX2                !
 ! A72   A(9,16,39)            107.5897         estimate D2E/DX2                !
 ! A73   A(9,16,40)            111.0558         estimate D2E/DX2                !
 ! A74   A(15,16,39)           108.215          estimate D2E/DX2                !
 ! A75   A(15,16,40)           111.6275         estimate D2E/DX2                !
 ! A76   A(39,16,40)           103.8151         estimate D2E/DX2                !
 ! D1    D(17,1,2,3)          -179.9494         estimate D2E/DX2                !
 ! D2    D(18,1,2,3)            60.6663         estimate D2E/DX2                !
 ! D3    D(19,1,2,3)           -60.5687         estimate D2E/DX2                !
 ! D4    D(1,2,3,4)           -179.9091         estimate D2E/DX2                !
 ! D5    D(2,3,4,5)            179.9629         estimate D2E/DX2                !
 ! D6    D(2,3,4,20)            61.0188         estimate D2E/DX2                !
 ! D7    D(2,3,4,21)           -61.1979         estimate D2E/DX2                !
 ! D8    D(3,4,5,6)           -178.738          estimate D2E/DX2                !
 ! D9    D(20,4,5,6)           -59.4706         estimate D2E/DX2                !
 ! D10   D(21,4,5,6)            62.0335         estimate D2E/DX2                !
 ! D11   D(4,5,6,7)           -179.908          estimate D2E/DX2                !
 ! D12   D(5,6,7,8)            179.922          estimate D2E/DX2                !
 ! D13   D(5,6,7,22)            58.884          estimate D2E/DX2                !
 ! D14   D(5,6,7,23)           -58.9549         estimate D2E/DX2                !
 ! D15   D(6,7,8,9)           -177.839          estimate D2E/DX2                !
 ! D16   D(6,7,8,24)            59.9119         estimate D2E/DX2                !
 ! D17   D(6,7,8,25)           -53.0732         estimate D2E/DX2                !
 ! D18   D(22,7,8,9)           -58.7461         estimate D2E/DX2                !
 ! D19   D(22,7,8,24)          179.0047         estimate D2E/DX2                !
 ! D20   D(22,7,8,25)           66.0197         estimate D2E/DX2                !
 ! D21   D(23,7,8,9)            62.7588         estimate D2E/DX2                !
 ! D22   D(23,7,8,24)          -59.4903         estimate D2E/DX2                !
 ! D23   D(23,7,8,25)         -172.4754         estimate D2E/DX2                !
 ! D24   D(7,8,9,10)            -8.4194         estimate D2E/DX2                !
 ! D25   D(7,8,9,16)           120.3563         estimate D2E/DX2                !
 ! D26   D(7,8,9,26)          -125.3392         estimate D2E/DX2                !
 ! D27   D(24,8,9,10)          113.6041         estimate D2E/DX2                !
 ! D28   D(24,8,9,16)         -117.6202         estimate D2E/DX2                !
 ! D29   D(24,8,9,26)           -3.3156         estimate D2E/DX2                !
 ! D30   D(25,8,9,10)         -131.6441         estimate D2E/DX2                !
 ! D31   D(25,8,9,16)           -2.8684         estimate D2E/DX2                !
 ! D32   D(25,8,9,26)          111.4361         estimate D2E/DX2                !
 ! D33   D(8,9,10,11)         -179.1202         estimate D2E/DX2                !
 ! D34   D(8,9,10,27)           55.7627         estimate D2E/DX2                !
 ! D35   D(8,9,10,28)          -59.3212         estimate D2E/DX2                !
 ! D36   D(16,9,10,11)          55.1403         estimate D2E/DX2                !
 ! D37   D(16,9,10,27)         -69.9768         estimate D2E/DX2                !
 ! D38   D(16,9,10,28)         174.9394         estimate D2E/DX2                !
 ! D39   D(26,9,10,11)         -62.5727         estimate D2E/DX2                !
 ! D40   D(26,9,10,27)         172.3103         estimate D2E/DX2                !
 ! D41   D(26,9,10,28)          57.2264         estimate D2E/DX2                !
 ! D42   D(8,9,16,15)          -70.0884         estimate D2E/DX2                !
 ! D43   D(8,9,16,39)           49.8631         estimate D2E/DX2                !
 ! D44   D(8,9,16,40)          162.8468         estimate D2E/DX2                !
 ! D45   D(10,9,16,15)          57.2724         estimate D2E/DX2                !
 ! D46   D(10,9,16,39)         177.2239         estimate D2E/DX2                !
 ! D47   D(10,9,16,40)         -69.7924         estimate D2E/DX2                !
 ! D48   D(26,9,16,15)         175.4623         estimate D2E/DX2                !
 ! D49   D(26,9,16,39)         -64.5862         estimate D2E/DX2                !
 ! D50   D(26,9,16,40)          48.3975         estimate D2E/DX2                !
 ! D51   D(9,10,11,12)         -69.1259         estimate D2E/DX2                !
 ! D52   D(9,10,11,29)         170.952          estimate D2E/DX2                !
 ! D53   D(9,10,11,30)          57.1542         estimate D2E/DX2                !
 ! D54   D(27,10,11,12)         57.4524         estimate D2E/DX2                !
 ! D55   D(27,10,11,29)        -62.4696         estimate D2E/DX2                !
 ! D56   D(27,10,11,30)       -176.2674         estimate D2E/DX2                !
 ! D57   D(28,10,11,12)        170.2009         estimate D2E/DX2                !
 ! D58   D(28,10,11,29)         50.2788         estimate D2E/DX2                !
 ! D59   D(28,10,11,30)        -63.519          estimate D2E/DX2                !
 ! D60   D(10,11,12,13)        -36.2878         estimate D2E/DX2                !
 ! D61   D(10,11,12,31)       -156.3107         estimate D2E/DX2                !
 ! D62   D(10,11,12,32)         91.0098         estimate D2E/DX2                !
 ! D63   D(29,11,12,13)         83.106          estimate D2E/DX2                !
 ! D64   D(29,11,12,31)        -36.9169         estimate D2E/DX2                !
 ! D65   D(29,11,12,32)       -149.5964         estimate D2E/DX2                !
 ! D66   D(30,11,12,13)       -162.5394         estimate D2E/DX2                !
 ! D67   D(30,11,12,31)         77.4376         estimate D2E/DX2                !
 ! D68   D(30,11,12,32)        -35.2419         estimate D2E/DX2                !
 ! D69   D(11,12,13,14)        100.3236         estimate D2E/DX2                !
 ! D70   D(11,12,13,33)        -28.1516         estimate D2E/DX2                !
 ! D71   D(11,12,13,34)       -142.5478         estimate D2E/DX2                !
 ! D72   D(31,12,13,14)       -140.5802         estimate D2E/DX2                !
 ! D73   D(31,12,13,33)         90.9447         estimate D2E/DX2                !
 ! D74   D(31,12,13,34)        -23.4515         estimate D2E/DX2                !
 ! D75   D(32,12,13,14)        -26.7105         estimate D2E/DX2                !
 ! D76   D(32,12,13,33)       -155.1857         estimate D2E/DX2                !
 ! D77   D(32,12,13,34)         90.4181         estimate D2E/DX2                !
 ! D78   D(12,13,14,15)        -66.5624         estimate D2E/DX2                !
 ! D79   D(12,13,14,35)        172.5741         estimate D2E/DX2                !
 ! D80   D(12,13,14,36)         58.4346         estimate D2E/DX2                !
 ! D81   D(33,13,14,15)         62.4428         estimate D2E/DX2                !
 ! D82   D(33,13,14,35)        -58.4207         estimate D2E/DX2                !
 ! D83   D(33,13,14,36)       -172.5602         estimate D2E/DX2                !
 ! D84   D(34,13,14,15)        175.757          estimate D2E/DX2                !
 ! D85   D(34,13,14,35)         54.8935         estimate D2E/DX2                !
 ! D86   D(34,13,14,36)        -59.246          estimate D2E/DX2                !
 ! D87   D(13,14,15,16)         61.36           estimate D2E/DX2                !
 ! D88   D(13,14,15,37)        -66.0624         estimate D2E/DX2                !
 ! D89   D(13,14,15,38)       -179.5765         estimate D2E/DX2                !
 ! D90   D(35,14,15,16)       -177.558          estimate D2E/DX2                !
 ! D91   D(35,14,15,37)         55.0196         estimate D2E/DX2                !
 ! D92   D(35,14,15,38)        -58.4945         estimate D2E/DX2                !
 ! D93   D(36,14,15,16)        -63.732          estimate D2E/DX2                !
 ! D94   D(36,14,15,37)        168.8456         estimate D2E/DX2                !
 ! D95   D(36,14,15,38)         55.3315         estimate D2E/DX2                !
 ! D96   D(14,15,16,9)        -103.4038         estimate D2E/DX2                !
 ! D97   D(14,15,16,39)        136.9978         estimate D2E/DX2                !
 ! D98   D(14,15,16,40)         23.3636         estimate D2E/DX2                !
 ! D99   D(37,15,16,9)          23.0457         estimate D2E/DX2                !
 ! D100  D(37,15,16,39)        -96.5527         estimate D2E/DX2                !
 ! D101  D(37,15,16,40)        149.8131         estimate D2E/DX2                !
 ! D102  D(38,15,16,9)         137.8285         estimate D2E/DX2                !
 ! D103  D(38,15,16,39)         18.2302         estimate D2E/DX2                !
 ! D104  D(38,15,16,40)        -95.4041         estimate D2E/DX2                !
 --------------------------------------------------------------------------------
 Trust Radius=3.00D-01 FncErr=1.00D-07 GrdErr=1.00D-06 EigMax=2.50D+02 EigMin=1.00D-04
 Number of steps in this run=    230 maximum allowed number of steps=    240.
 GradGradGradGradGradGradGradGradGradGradGradGradGradGradGradGradGradGrad

                          Input orientation:                          
 ---------------------------------------------------------------------
 Center     Atomic      Atomic             Coordinates (Angstroms)
 Number     Number       Type             X           Y           Z
 ---------------------------------------------------------------------
      1          6           0        0.865370   -0.035840    0.132050
      2          8           0        2.281980   -0.054470    0.221390
      3          8           0        2.724850    0.232760   -1.131600
      4          6           0        4.146370    0.219710   -1.079020
      5          8           0        4.634980    0.494890   -2.379840
      6          8           0        6.085900    0.440990   -2.283300
      7          6           0        6.481330    0.727120   -3.614000
      8          6           0        7.993910    0.726870   -3.756810
      9          6           0        8.492500    1.088460   -5.189410
     10          6           0        7.339240    1.167690   -6.210160
     11          6           0        7.677000    1.491600   -7.654390
     12          6           0        8.168790    2.905530   -7.959600
     13          6           0        7.529310    4.038280   -7.151060
     14          6           0        8.362540    4.558520   -5.974720
     15          6           0        8.613620    3.626000   -4.791060
     16          6           0        9.379900    2.342920   -5.115380
     17          1           0        0.455550   -0.245250    1.122790
     18          1           0        0.527620   -0.803470   -0.569120
     19          1           0        0.527350    0.949740   -0.198620
     20          1           0        4.494520   -0.766950   -0.765620
     21          1           0        4.497170    0.994620   -0.393750
     22          1           0        6.072540    1.709680   -3.868870
     23          1           0        6.036950   -0.035470   -4.260200
     24          1           0        8.376860   -0.262650   -3.478530
     25          1           0        8.416490    1.403130   -3.002480
     26          1           0        9.148940    0.266170   -5.507330
     27          1           0        6.576000    1.876800   -5.878930
     28          1           0        6.845300    0.186880   -6.229540
     29          1           0        6.752390    1.336410   -8.229260
     30          1           0        8.392430    0.757440   -8.041480
     31          1           0        7.948700    3.083070   -9.020570
     32          1           0        9.259440    2.949590   -7.894350
     33          1           0        6.509910    3.793480   -6.833120
     34          1           0        7.416210    4.889900   -7.835410
     35          1           0        7.848200    5.444220   -5.577920
     36          1           0        9.327520    4.916850   -6.352460
     37          1           0        7.669810    3.415800   -4.277650
     38          1           0        9.216200    4.190820   -4.066270
     39          1           0       10.123820    2.177340   -4.323040
     40          1           0        9.982510    2.451540   -6.020540
 ---------------------------------------------------------------------
                    Distance matrix (angstroms):
                    1          2          3          4          5
     1  C    0.000000
     2  O    1.419547   0.000000
     3  O    2.264205   1.452314   0.000000
     4  C    3.506702   2.289583   1.422552   0.000000
     5  O    4.560836   3.550324   2.296826   1.416544   0.000000
     6  O    5.771933   4.581349   3.558993   2.293694   1.455127
     7  C    6.793674   5.740700   4.529663   3.483623   2.232955
     8  C    8.156043   7.004478   5.907526   4.715012   3.637619
     9  C    9.367769   8.315865   7.103790   6.044740   4.808999
    10  C    9.142380   8.272508   6.925205   6.117326   4.736775
    11  C   10.457534   9.670806   8.285847   7.570901   6.169943
    12  C   11.290102  10.504510   9.132457   8.410462   7.030841
    13  C   10.679431   9.931671   8.590618   7.930664   6.610393
    14  C   10.705529   9.830802   8.599509   7.782624   6.582625
    15  C    9.883393   8.874693   7.719024   6.733378   5.607799
    16  C   10.280625   9.198318   8.038219   6.941906   5.780368
    17  H    1.092415   2.045670   3.234268   4.322766   5.503077
    18  H    1.093147   2.064870   2.493587   3.795029   4.672778
    19  H    1.093146   2.064842   2.492693   3.795439   4.673033
    20  H    3.809339   2.525302   2.065210   1.092211   2.053698
    21  H    3.811599   2.527064   2.065423   1.092310   2.052626
    22  H    6.794764   5.849000   4.569570   3.703161   2.399897
    23  H    6.785064   5.846778   4.564000   3.709355   2.404694
    24  H    8.337278   7.133043   6.139929   4.887470   3.972739
    25  H    8.301526   7.081677   6.104484   4.830539   3.938578
    26  H   10.025535   8.948530   7.772841   6.681152   5.496303
    27  H    8.508899   7.705992   6.330195   5.629226   4.233304
    28  H    8.733785   7.905481   6.555090   5.814908   4.449784
    29  H   10.317537   9.660880   8.235041   7.691833   6.277523
    30  H   11.139682  10.308822   8.952273   8.172761   6.800113
    31  H   11.986310  11.285818   9.881737   9.258767   7.859943
    32  H   11.991510  11.116410   9.788607   8.946757   7.604012
    33  H    9.748749   9.080100   7.714450   7.174108   5.850450
    34  H   11.430522  10.757283   9.414822   8.840324   7.537546
    35  H   10.554370   9.739117   8.554402   7.825545   6.711808
    36  H   11.755254  10.842931   9.632929   8.758802   7.573333
    37  H    8.812473   7.830252   6.669483   5.732439   4.619912
    38  H   10.258017   9.191840   8.149611   7.099053   6.123032
    39  H   10.510228   9.334199   8.289236   7.077139   6.060860
    40  H   11.276687  10.224477   9.027644   7.966192   6.758643
                    6          7          8          9         10
     6  O    0.000000
     7  C    1.417391   0.000000
     8  C    2.427645   1.519307   0.000000
     9  C    3.828370   2.580172   1.559385   0.000000
    10  C    4.185592   2.769505   2.577177   1.542147   0.000000
    11  C    5.699473   4.282383   3.984517   2.627487   1.518157
    12  C    6.529377   5.145603   4.737150   3.328736   2.601688
    13  C    6.222461   4.957100   4.764685   3.671137   3.026831
    14  C    5.980278   4.877661   4.442584   3.560185   3.549691
    15  C    4.777292   3.786243   3.139852   2.571471   3.111459
    16  C    4.742199   3.642343   2.525529   1.538385   2.596922
    17  H    6.616133   7.726106   9.032297  10.306077  10.156463
    18  H    5.948241   6.860077   8.261283   9.400308   9.061179
    19  H    5.958372   6.867624   8.274050   9.400577   9.087792
    20  H    2.508976   3.780599   4.839881   6.244702   6.440363
    21  H    2.530014   3.791894   4.858915   6.242581   6.475951
    22  H    2.030710   1.094300   2.161050   2.825942   2.716601
    23  H    2.034095   1.093888   2.159689   2.855937   2.635507
    24  H    2.678093   2.142669   1.096923   2.183113   3.253357
    25  H    2.621943   2.139110   1.097686   2.210759   3.391918
    26  H    4.450522   3.303531   2.147245   1.099158   2.140496
    27  H    3.902602   2.541778   2.799322   2.184008   1.093200
    28  H    4.026670   2.695437   2.779440   2.146622   1.098335
    29  H    6.049829   4.663189   4.681423   3.511431   2.109413
    30  H    6.211027   4.822427   4.303272   2.872959   2.152033
    31  H    7.472712   6.077390   5.767226   4.353387   3.455217
    32  H    6.917247   5.565848   4.864287   3.371751   3.114295
    33  H    5.667436   4.445910   4.590211   3.734914   2.823232
    34  H    7.237987   6.001920   5.856580   4.755067   4.062291
    35  H    6.244400   5.289267   5.058761   4.420261   4.352870
    36  H    6.862907   5.757933   5.106060   4.087360   4.246140
    37  H    3.916082   3.013622   2.758017   2.631470   2.982930
    38  H    5.199902   4.436359   3.686286   3.377843   4.154342
    39  H    4.845642   3.984170   2.638370   2.144169   3.512051
    40  H    5.761323   4.585119   3.471814   2.183780   2.944674
                   11         12         13         14         15
    11  C    0.000000
    12  C    1.527812   0.000000
    13  C    2.600141   1.531599   0.000000
    14  C    3.563321   2.590302   1.532546   0.000000
    15  C    3.692097   3.279725   2.629696   1.527641   0.000000
    16  C    3.173513   3.142118   3.231551   2.585028   1.529269
    17  H   11.498038  12.325230  11.698004  11.660675  10.794179
    18  H   10.323857  11.258923  10.760490  10.925082  10.140433
    19  H   10.344062  11.065692  10.339388  10.381562   9.676809
    20  H    7.917347   8.873597   8.548335   8.393863   7.243560
    21  H    7.941990   8.624063   8.007433   7.667444   6.573101
    22  H    4.117282   4.749568   4.279875   4.218364   3.313579
    23  H    4.067214   5.184572   5.213410   5.427033   4.508592
    24  H    4.583122   5.491871   5.718725   5.429074   4.111008
    25  H    4.711151   5.185711   4.994179   4.335159   2.859900
    26  H    2.877178   3.733704   4.421975   4.388752   3.476790
    27  H    2.124344   2.815041   2.683116   3.223744   2.897422
    28  H    2.103382   3.483646   4.018750   4.634456   4.125982
    29  H    1.099756   2.130972   3.011017   4.249415   4.530742
    30  H    1.095751   2.161252   3.507383   4.326731   4.340828
    31  H    2.114958   1.098006   2.140883   3.409607   4.315744
    32  H    2.165048   1.093488   2.175104   2.660463   3.241145
    33  H    2.708364   2.193011   1.095531   2.180453   2.936606
    34  H    3.413096   2.125917   1.098355   2.113651   3.507036
    35  H    4.468136   3.495729   2.133806   1.098390   2.123897
    36  H    4.018902   2.823289   2.154810   1.096483   2.148003
    37  H    3.886511   3.750482   2.943418   2.160030   1.094784
    38  H    4.746528   4.231673   3.519204   2.122762   1.098838
    39  H    4.189876   4.192490   4.265241   3.391190   2.144379
    40  H    2.984347   2.693630   3.132732   2.658151   2.182851
                   16         17         18         19         20
    16  C    0.000000
    17  H   11.191846   0.000000
    18  H   10.437007   1.783077   0.000000
    19  H   10.221699   1.783054   1.791931   0.000000
    20  H    7.242834   4.489047   3.971932   4.359696   0.000000
    21  H    6.924793   4.491310   4.361331   3.974866   1.800395
    22  H    3.590740   7.764599   6.924624   6.693084   4.272470
    23  H    4.190869   7.757101   6.675823   6.915400   3.889247
    24  H    3.236412   9.160764   8.388547   8.593166   4.763062
    25  H    2.505137   9.116555   8.545443   8.384851   5.009455
    26  H    2.125996  10.945093   9.992858  10.147979   6.724193
    27  H    2.943150   9.538715   8.482973   8.349343   6.121104
    28  H    3.509139   9.750508   8.540154   8.767579   6.024150
    29  H    4.196799  11.384757  10.099732  10.168177   8.076387
    30  H    3.471441  12.164839  10.960285  11.108867   8.393784
    31  H    4.224531  13.042728  11.899774  11.724092   9.741571
    32  H    2.846969  13.000934  11.999547  11.809871   9.345369
    33  H    3.645764  10.782538   9.805990   9.375205   7.853272
    34  H    4.212096  12.452707  11.518077  11.013710   9.514103
    35  H    3.489715  11.485681  10.849544  10.135683   8.543069
    36  H    2.856261  12.697972  11.983627  11.447738   9.320743
    37  H    2.185697   9.726952   9.086601   8.586890   6.317612
    38  H    2.131235  11.106487  10.614349  10.047857   7.600529
    39  H    1.099380  11.357881  10.726798  10.517133   7.281009
    40  H    1.092818  12.209128  11.388943  11.204919   8.251721
                   21         22         23         24         25
    21  H    0.000000
    22  H    3.881953   0.000000
    23  H    4.287359   1.788842   0.000000
    24  H    5.113569   3.058160   2.477458   0.000000
    25  H    4.725825   2.517679   3.051826   1.732922   0.000000
    26  H    6.951137   3.772600   3.366126   2.234231   2.846653
    27  H    5.931861   2.078880   2.562740   3.685412   3.447569
    28  H    6.342129   2.913562   2.140367   3.180536   3.789699
    29  H    8.160763   4.428829   4.259970   5.269282   5.485700
    30  H    8.585865   4.868195   4.524939   4.675611   5.080257
    31  H    9.523482   5.652096   6.003433   6.487786   6.265655
    32  H    9.097259   5.281874   5.701059   5.531446   5.199278
    33  H    7.304124   3.649698   4.637291   5.584887   4.901288
    34  H    8.892261   5.258582   6.240493   6.815719   6.042792
    35  H    7.609465   4.474440   5.919799   6.103711   4.825583
    36  H    8.615242   5.200870   6.303243   5.999204   4.939491
    37  H    5.568881   2.372597   3.818089   3.830079   2.496884
    38  H    6.780291   4.009691   5.292142   4.569828   3.089078
    39  H    6.964003   4.103394   4.647901   3.117470   2.293089
    40  H    7.992017   4.524147   4.985124   4.050525   3.558127
                   26         27         28         29         30
    26  H    0.000000
    27  H    3.058143   0.000000
    28  H    2.415498   1.746791   0.000000
    29  H    3.781239   2.418096   2.308448   0.000000
    30  H    2.689901   3.037928   2.449954   1.749342   0.000000
    31  H    4.660296   3.634459   4.170762   2.260122   2.562044
    32  H    3.593163   3.523300   4.028924   2.999969   2.361964
    33  H    4.600447   2.142080   3.672106   2.836406   3.771148
    34  H    5.459047   3.689517   5.002315   3.636353   4.251199
    35  H    5.339392   3.799419   5.391664   5.010440   5.322708
    36  H    4.730218   4.127590   5.343140   4.793039   4.585616
    37  H    3.690543   2.475690   3.862074   4.558590   4.664276
    38  H    4.181394   3.951086   5.131514   5.616805   5.316859
    39  H    2.450613   3.885633   4.283149   5.228026   4.340579
    40  H    2.394591   3.457555   3.874849   4.068862   3.079371
                   31         32         33         34         35
    31  H    0.000000
    32  H    1.733271   0.000000
    33  H    2.712883   3.065661   0.000000
    34  H    2.225485   2.676896   1.740144   0.000000
    35  H    4.175760   3.685190   2.468094   2.364349   0.000000
    36  H    3.518907   2.500434   3.071143   2.419292   1.751119
    37  H    4.762749   3.978039   2.831685   3.859396   2.415991
    38  H    5.232471   4.024515   3.890674   4.234984   2.393224
    39  H    5.255310   3.754701   4.687511   5.198642   4.174407
    40  H    3.679048   2.069311   3.810517   3.978096   3.702341
                   36         37         38         39         40
    36  H    0.000000
    37  H    3.050572   0.000000
    38  H    2.401286   1.742601   0.000000
    39  H    3.501079   2.749183   2.223467   0.000000
    40  H    2.572341   3.052220   2.726077   1.725300   0.000000
 Stoichiometry    C12H24O4
 Framework group  C1[X(C12H24O4)]
 Deg. of freedom   114
 Full point group                 C1      NOp   1
 Largest Abelian subgroup         C1      NOp   1
 Largest concise Abelian subgroup C1      NOp   1
                         Standard orientation:                         
 ---------------------------------------------------------------------
 Center     Atomic      Atomic             Coordinates (Angstroms)
 Number     Number       Type             X           Y           Z
 ---------------------------------------------------------------------
      1          6           0        6.807897   -1.248519   -0.000101
      2          8           0        5.945379   -0.170247    0.329298
      3          8           0        4.637769   -0.613987   -0.120666
      4          6           0        3.745106    0.448206    0.193263
      5          8           0        2.447007    0.067660   -0.227118
      6          8           0        1.578138    1.192283    0.085423
      7          6           0        0.317255    0.724853   -0.362552
      8          6           0       -0.772892    1.757407   -0.130810
      9          6           0       -2.195213    1.279477   -0.555391
     10          6           0       -2.161923   -0.063751   -1.312257
     11          6           0       -3.474658   -0.644275   -1.806744
     12          6           0       -4.456641   -1.155090   -0.753660
     13          6           0       -3.844867   -1.833921    0.475452
     14          6           0       -3.752729   -0.960795    1.731581
     15          6           0       -2.810709    0.241712    1.715440
     16          6           0       -3.126569    1.310861    0.668627
     17          1           0        7.821235   -0.986117    0.312408
     18          1           0        6.794484   -1.417926   -1.079958
     19          1           0        6.489492   -2.152389    0.525831
     20          1           0        4.045395    1.352106   -0.341262
     21          1           0        3.736761    0.616080    1.272564
     22          1           0        0.098100   -0.194241    0.189472
     23          1           0        0.409806    0.500548   -1.429189
     24          1           0       -0.518550    2.672014   -0.680397
     25          1           0       -0.749668    2.059690    0.924179
     26          1           0       -2.581434    2.034443   -1.254681
     27          1           0       -1.660455   -0.831832   -0.717558
     28          1           0       -1.538559    0.074310   -2.205955
     29          1           0       -3.211721   -1.497444   -2.448950
     30          1           0       -3.974982    0.076541   -2.463074
     31          1           0       -5.094523   -1.890183   -1.261953
     32          1           0       -5.141720   -0.356628   -0.455598
     33          1           0       -2.880469   -2.302483    0.250565
     34          1           0       -4.510109   -2.666885    0.740041
     35          1           0       -3.426000   -1.609341    2.555655
     36          1           0       -4.758495   -0.617488    2.001487
     37          1           0       -1.773229   -0.100670    1.645009
     38          1           0       -2.890299    0.718548    2.702221
     39          1           0       -3.019980    2.297370    1.141994
     40          1           0       -4.175761    1.279313    0.364567
 ---------------------------------------------------------------------
 Rotational constants (GHZ):           1.0797167           0.1481277           0.1456766
 Standard basis: 6-31G(2df,p) (6D, 7F)
 There are   616 symmetry adapted cartesian basis functions of A   symmetry.
 There are   568 symmetry adapted basis functions of A   symmetry.
   568 basis functions,   872 primitive gaussians,   616 cartesian basis functions
    64 alpha electrons       64 beta electrons
       nuclear repulsion energy      1158.3012215895 Hartrees.
 NAtoms=   40 NActive=   40 NUniq=   40 SFac= 1.00D+00 NAtFMM=   60 NAOKFM=F Big=F
 Integral buffers will be    131072 words long.
 Raffenetti 2 integral format.
 Two-electron integral symmetry is turned on.
 One-electron integrals computed using PRISM.
 PrsmSu:  requested number of processors reduced to:  12 ShMem   1 Linda.
 NBasis=   568 RedAO= T EigKep=  4.81D-04  NBF=   568
 NBsUse=   568 1.00D-06 EigRej= -1.00D+00 NBFU=   568
 ExpMin= 1.61D-01 ExpMax= 5.48D+03 ExpMxC= 8.25D+02 IAcc=3 IRadAn=         5 AccDes= 0.00D+00
 Harris functional with IExCor=  402 and IRadAn=       5 diagonalized for initial guess.
 HarFok:  IExCor=  402 AccDes= 0.00D+00 IRadAn=         5 IDoV= 1 UseB2=F ITyADJ=14
 ICtDFT=  3500011 ScaDFX=  1.000000  1.000000  1.000000  1.000000
 FoFCou: FMM=F IPFlag=           0 FMFlag=      100000 FMFlg1=           0
         NFxFlg=           0 DoJE=T BraDBF=F KetDBF=T FulRan=T
         wScrn=  0.000000 ICntrl=       500 IOpCl=  0 I1Cent=   200000004 NGrid=           0
         NMat0=    1 NMatS0=      1 NMatT0=    0 NMatD0=    1 NMtDS0=    0 NMtDT0=    0
 Petite list used in FoFCou.
 Requested convergence on RMS density matrix=1.00D-08 within 128 cycles.
 Requested convergence on MAX density matrix=1.00D-06.
 Requested convergence on             energy=1.00D-06.
 No special actions if energy rises.
 Integral accuracy reduced to 1.0D-05 until final iterations.
 Initial convergence to 1.0D-05 achieved.  Increase integral accuracy.
 SCF Done:  E(RB3LYP) =  -772.452477394     A.U. after   13 cycles
            NFock= 13  Conv=0.34D-08     -V/T= 2.0072

 **********************************************************************

            Population analysis using the SCF density.

 **********************************************************************

 Orbital symmetries:
       Occupied  (A) (A) (A) (A) (A) (A) (A) (A) (A) (A) (A) (A)
                 (A) (A) (A) (A) (A) (A) (A) (A) (A) (A) (A) (A)
                 (A) (A) (A) (A) (A) (A) (A) (A) (A) (A) (A) (A)
                 (A) (A) (A) (A) (A) (A) (A) (A) (A) (A) (A) (A)
                 (A) (A) (A) (A) (A) (A) (A) (A) (A) (A) (A) (A)
                 (A) (A) (A) (A)
       Virtual   (A) (A) (A) (A) (A) (A) (A) (A) (A) (A) (A) (A)
                 (A) (A) (A) (A) (A) (A) (A) (A) (A) (A) (A) (A)
                 (A) (A) (A) (A) (A) (A) (A) (A) (A) (A) (A) (A)
                 (A) (A) (A) (A) (A) (A) (A) (A) (A) (A) (A) (A)
                 (A) (A) (A) (A) (A) (A) (A) (A) (A) (A) (A) (A)
                 (A) (A) (A) (A) (A) (A) (A) (A) (A) (A) (A) (A)
                 (A) (A) (A) (A) (A) (A) (A) (A) (A) (A) (A) (A)
                 (A) (A) (A) (A) (A) (A) (A) (A) (A) (A) (A) (A)
                 (A) (A) (A) (A) (A) (A) (A) (A) (A) (A) (A) (A)
                 (A) (A) (A) (A) (A) (A) (A) (A) (A) (A) (A) (A)
                 (A) (A) (A) (A) (A) (A) (A) (A) (A) (A) (A) (A)
                 (A) (A) (A) (A) (A) (A) (A) (A) (A) (A) (A) (A)
                 (A) (A) (A) (A) (A) (A) (A) (A) (A) (A) (A) (A)
                 (A) (A) (A) (A) (A) (A) (A) (A) (A) (A) (A) (A)
                 (A) (A) (A) (A) (A) (A) (A) (A) (A) (A) (A) (A)
                 (A) (A) (A) (A) (A) (A) (A) (A) (A) (A) (A) (A)
                 (A) (A) (A) (A) (A) (A) (A) (A) (A) (A) (A) (A)
                 (A) (A) (A) (A) (A) (A) (A) (A) (A) (A) (A) (A)
                 (A) (A) (A) (A) (A) (A) (A) (A) (A) (A) (A) (A)
                 (A) (A) (A) (A) (A) (A) (A) (A) (A) (A) (A) (A)
                 (A) (A) (A) (A) (A) (A) (A) (A) (A) (A) (A) (A)
                 (A) (A) (A) (A) (A) (A) (A) (A) (A) (A) (A) (A)
                 (A) (A) (A) (A) (A) (A) (A) (A) (A) (A) (A) (A)
                 (A) (A) (A) (A) (A) (A) (A) (A) (A) (A) (A) (A)
                 (A) (A) (A) (A) (A) (A) (A) (A) (A) (A) (A) (A)
                 (A) (A) (A) (A) (A) (A) (A) (A) (A) (A) (A) (A)
                 (A) (A) (A) (A) (A) (A) (A) (A) (A) (A) (A) (A)
                 (A) (A) (A) (A) (A) (A) (A) (A) (A) (A) (A) (A)
                 (A) (A) (A) (A) (A) (A) (A) (A) (A) (A) (A) (A)
                 (A) (A) (A) (A) (A) (A) (A) (A) (A) (A) (A) (A)
                 (A) (A) (A) (A) (A) (A) (A) (A) (A) (A) (A) (A)
                 (A) (A) (A) (A) (A) (A) (A) (A) (A) (A) (A) (A)
                 (A) (A) (A) (A) (A) (A) (A) (A) (A) (A) (A) (A)
                 (A) (A) (A) (A) (A) (A) (A) (A) (A) (A) (A) (A)
                 (A) (A) (A) (A) (A) (A) (A) (A) (A) (A) (A) (A)
                 (A) (A) (A) (A) (A) (A) (A) (A) (A) (A) (A) (A)
                 (A) (A) (A) (A) (A) (A) (A) (A) (A) (A) (A) (A)
                 (A) (A) (A) (A) (A) (A) (A) (A) (A) (A) (A) (A)
                 (A) (A) (A) (A) (A) (A) (A) (A) (A) (A) (A) (A)
                 (A) (A) (A) (A) (A) (A) (A) (A) (A) (A) (A) (A)
                 (A) (A) (A) (A) (A) (A) (A) (A) (A) (A) (A) (A)
                 (A) (A) (A) (A) (A) (A) (A) (A) (A) (A) (A) (A)
 The electronic state is 1-A.
 Alpha  occ. eigenvalues --  -19.19788 -19.19347 -19.19308 -19.19100 -10.27515
 Alpha  occ. eigenvalues --  -10.23183 -10.22410 -10.18803 -10.18310 -10.17411
 Alpha  occ. eigenvalues --  -10.17395 -10.17388 -10.17369 -10.17354 -10.17277
 Alpha  occ. eigenvalues --  -10.17181  -1.13002  -1.11019  -0.95271  -0.89631
 Alpha  occ. eigenvalues --   -0.83012  -0.78743  -0.77188  -0.72728  -0.68099
 Alpha  occ. eigenvalues --   -0.67808  -0.66495  -0.64120  -0.61380  -0.57750
 Alpha  occ. eigenvalues --   -0.56874  -0.53182  -0.52867  -0.50263  -0.49969
 Alpha  occ. eigenvalues --   -0.48700  -0.47554  -0.46874  -0.45702  -0.45051
 Alpha  occ. eigenvalues --   -0.44406  -0.43413  -0.42871  -0.41382  -0.41202
 Alpha  occ. eigenvalues --   -0.40259  -0.39168  -0.38028  -0.37026  -0.36255
 Alpha  occ. eigenvalues --   -0.34977  -0.34469  -0.33898  -0.33747  -0.33425
 Alpha  occ. eigenvalues --   -0.33033  -0.32758  -0.31768  -0.31002  -0.29951
 Alpha  occ. eigenvalues --   -0.28831  -0.28599  -0.23786  -0.23317
 Alpha virt. eigenvalues --   -0.00453   0.05275   0.07119   0.08474   0.10119
 Alpha virt. eigenvalues --    0.10768   0.11433   0.11562   0.12340   0.13028
 Alpha virt. eigenvalues --    0.13472   0.14102   0.14476   0.15146   0.15776
 Alpha virt. eigenvalues --    0.16289   0.16994   0.17132   0.17315   0.17741
 Alpha virt. eigenvalues --    0.18840   0.19159   0.19346   0.19806   0.20499
 Alpha virt. eigenvalues --    0.20540   0.21329   0.21559   0.22678   0.23186
 Alpha virt. eigenvalues --    0.23740   0.23907   0.25820   0.27174   0.27767
 Alpha virt. eigenvalues --    0.29489   0.30963   0.31996   0.34193   0.35852
 Alpha virt. eigenvalues --    0.39305   0.43588   0.43696   0.45372   0.45787
 Alpha virt. eigenvalues --    0.48042   0.48223   0.48736   0.49976   0.50205
 Alpha virt. eigenvalues --    0.51271   0.51556   0.53110   0.53625   0.55087
 Alpha virt. eigenvalues --    0.55268   0.56290   0.56501   0.57563   0.58580
 Alpha virt. eigenvalues --    0.59433   0.59865   0.60045   0.61549   0.62162
 Alpha virt. eigenvalues --    0.63868   0.64650   0.65369   0.66444   0.67172
 Alpha virt. eigenvalues --    0.67336   0.67783   0.68149   0.69530   0.70048
 Alpha virt. eigenvalues --    0.70809   0.71587   0.72262   0.72339   0.73286
 Alpha virt. eigenvalues --    0.73524   0.74455   0.74970   0.75289   0.75825
 Alpha virt. eigenvalues --    0.75926   0.76418   0.77193   0.77831   0.78193
 Alpha virt. eigenvalues --    0.78433   0.79312   0.79793   0.81595   0.83182
 Alpha virt. eigenvalues --    0.83832   0.83878   0.84510   0.85327   0.85658
 Alpha virt. eigenvalues --    0.86723   0.86745   0.87642   0.88275   0.88781
 Alpha virt. eigenvalues --    0.89991   0.90431   0.91092   0.91577   0.92724
 Alpha virt. eigenvalues --    0.94614   0.95405   0.96331   0.96924   0.97999
 Alpha virt. eigenvalues --    0.99795   1.02137   1.03281   1.03733   1.03968
 Alpha virt. eigenvalues --    1.05335   1.05507   1.07221   1.08651   1.11926
 Alpha virt. eigenvalues --    1.11988   1.13331   1.14961   1.17817   1.19272
 Alpha virt. eigenvalues --    1.21712   1.24002   1.24355   1.25374   1.27344
 Alpha virt. eigenvalues --    1.29444   1.29537   1.30485   1.30856   1.31439
 Alpha virt. eigenvalues --    1.33293   1.35050   1.35322   1.37398   1.38461
 Alpha virt. eigenvalues --    1.39349   1.40424   1.40596   1.41627   1.41997
 Alpha virt. eigenvalues --    1.43087   1.43736   1.44417   1.45330   1.45936
 Alpha virt. eigenvalues --    1.46193   1.47892   1.48727   1.49867   1.50760
 Alpha virt. eigenvalues --    1.51399   1.51550   1.53547   1.54996   1.55962
 Alpha virt. eigenvalues --    1.56899   1.57497   1.58593   1.59764   1.60812
 Alpha virt. eigenvalues --    1.61036   1.62825   1.64584   1.64843   1.66562
 Alpha virt. eigenvalues --    1.68494   1.69613   1.70785   1.72056   1.74247
 Alpha virt. eigenvalues --    1.74848   1.78405   1.78676   1.79218   1.80283
 Alpha virt. eigenvalues --    1.80647   1.81395   1.82367   1.82844   1.85526
 Alpha virt. eigenvalues --    1.86773   1.88900   1.89450   1.91099   1.91972
 Alpha virt. eigenvalues --    1.94211   1.94502   1.95459   1.95978   1.97594
 Alpha virt. eigenvalues --    1.97954   2.01401   2.03805   2.05397   2.06417
 Alpha virt. eigenvalues --    2.09666   2.11239   2.14020   2.17356   2.17545
 Alpha virt. eigenvalues --    2.18590   2.19533   2.22413   2.23622   2.24382
 Alpha virt. eigenvalues --    2.25692   2.27446   2.28208   2.30537   2.31796
 Alpha virt. eigenvalues --    2.34115   2.35448   2.36517   2.37683   2.38336
 Alpha virt. eigenvalues --    2.39595   2.40912   2.42748   2.43308   2.44050
 Alpha virt. eigenvalues --    2.48811   2.49263   2.51866   2.53241   2.55454
 Alpha virt. eigenvalues --    2.56214   2.58578   2.59112   2.59542   2.61387
 Alpha virt. eigenvalues --    2.63010   2.63638   2.64435   2.65628   2.71125
 Alpha virt. eigenvalues --    2.72024   2.73802   2.74764   2.75169   2.76381
 Alpha virt. eigenvalues --    2.77038   2.77963   2.79275   2.79605   2.80307
 Alpha virt. eigenvalues --    2.81573   2.81903   2.83297   2.84827   2.85429
 Alpha virt. eigenvalues --    2.86323   2.86465   2.87603   2.89262   2.89899
 Alpha virt. eigenvalues --    2.91740   2.91890   2.92031   2.93205   2.94280
 Alpha virt. eigenvalues --    2.95012   2.95863   2.96229   2.97690   2.98269
 Alpha virt. eigenvalues --    2.99186   3.01133   3.02335   3.04162   3.06543
 Alpha virt. eigenvalues --    3.10246   3.10560   3.11922   3.14322   3.16704
 Alpha virt. eigenvalues --    3.17480   3.19251   3.20836   3.23129   3.24025
 Alpha virt. eigenvalues --    3.27195   3.28510   3.29345   3.31130   3.32738
 Alpha virt. eigenvalues --    3.33986   3.34288   3.35073   3.35735   3.37163
 Alpha virt. eigenvalues --    3.39203   3.40371   3.40636   3.42627   3.43510
 Alpha virt. eigenvalues --    3.43706   3.44754   3.46301   3.47099   3.47700
 Alpha virt. eigenvalues --    3.48364   3.49057   3.49736   3.50683   3.52325
 Alpha virt. eigenvalues --    3.52790   3.54779   3.55650   3.58209   3.60509
 Alpha virt. eigenvalues --    3.61911   3.62565   3.66639   3.66986   3.68420
 Alpha virt. eigenvalues --    3.68712   3.70854   3.71644   3.73390   3.73764
 Alpha virt. eigenvalues --    3.76492   3.78062   3.79503   3.81154   3.82416
 Alpha virt. eigenvalues --    3.83568   3.84612   3.84736   3.85136   3.85281
 Alpha virt. eigenvalues --    3.86606   3.88763   3.91818   3.93550   3.95859
 Alpha virt. eigenvalues --    3.98428   4.00020   4.04118   4.05424   4.05771
 Alpha virt. eigenvalues --    4.08426   4.10182   4.12500   4.14020   4.17536
 Alpha virt. eigenvalues --    4.18659   4.19885   4.21594   4.21787   4.25465
 Alpha virt. eigenvalues --    4.26402   4.28660   4.31019   4.33295   4.34732
 Alpha virt. eigenvalues --    4.35105   4.35800   4.36577   4.38726   4.39229
 Alpha virt. eigenvalues --    4.40287   4.41543   4.42855   4.44422   4.45072
 Alpha virt. eigenvalues --    4.46529   4.46870   4.47931   4.49253   4.49976
 Alpha virt. eigenvalues --    4.51152   4.52268   4.54179   4.54390   4.54838
 Alpha virt. eigenvalues --    4.56033   4.56552   4.57723   4.58701   4.59679
 Alpha virt. eigenvalues --    4.60851   4.61338   4.62666   4.64846   4.65221
 Alpha virt. eigenvalues --    4.66057   4.67038   4.67448   4.68841   4.69671
 Alpha virt. eigenvalues --    4.70473   4.71460   4.71681   4.71806   4.72359
 Alpha virt. eigenvalues --    4.73141   4.73737   4.74494   4.75555   4.75816
 Alpha virt. eigenvalues --    4.76704   4.77252   4.78385   4.80501   4.82651
 Alpha virt. eigenvalues --    4.83222   4.84305   4.84728   4.86582   4.87320
 Alpha virt. eigenvalues --    4.88685   4.89010   4.90826   4.90867   4.92416
 Alpha virt. eigenvalues --    4.93267   4.94564   4.95299   4.96656   4.98072
 Alpha virt. eigenvalues --    4.99337   5.01058   5.01511   5.03609   5.04743
 Alpha virt. eigenvalues --    5.05876   5.06154   5.07759   5.09721   5.11475
 Alpha virt. eigenvalues --    5.12689   5.14423   5.17868   5.24262   5.29623
 Alpha virt. eigenvalues --    5.30671   5.31810   5.36096   5.37611   5.39411
 Alpha virt. eigenvalues --    5.40006   5.42271   5.44434   5.44817   5.46035
 Alpha virt. eigenvalues --    5.47102   5.48403   5.50105   5.51956   5.54811
 Alpha virt. eigenvalues --    5.55403   5.60071   5.63444   5.67573   5.74450
 Alpha virt. eigenvalues --    5.78823   5.84248   5.84959   5.86796   5.91380
 Alpha virt. eigenvalues --    5.91617   5.93036   5.93335   6.05367   6.13432
 Alpha virt. eigenvalues --    6.14626   6.18886   6.32173   6.35147   6.38730
 Alpha virt. eigenvalues --    6.42513   6.50703   6.77363   6.83074   6.91185
 Alpha virt. eigenvalues --    7.11097   7.21256   7.26797  11.14413  11.18447
 Alpha virt. eigenvalues --   11.30482  11.40814  11.70137  11.91480  12.24682
 Alpha virt. eigenvalues --   12.43070  12.46902  12.59100  12.88202  13.06473
 Alpha virt. eigenvalues --   13.10284  13.20825  13.50170  13.60231
          Condensed to atoms (all electrons):
               1          2          3          4          5          6
     1  C    4.782163   0.340536  -0.052101   0.000958  -0.000106   0.000000
     2  O    0.340536   7.827732   0.106152  -0.038595   0.000744  -0.000005
     3  O   -0.052101   0.106152   7.877623   0.350288  -0.016470   0.000749
     4  C    0.000958  -0.038595   0.350288   4.515511   0.352472  -0.040215
     5  O   -0.000106   0.000744  -0.016470   0.352472   7.873008   0.106886
     6  O    0.000000  -0.000005   0.000749  -0.040215   0.106886   7.875717
     7  C   -0.000000   0.000001  -0.000093   0.000605  -0.051134   0.334159
     8  C    0.000000  -0.000000   0.000000  -0.000322   0.002260  -0.021881
     9  C   -0.000000   0.000000  -0.000000   0.000001  -0.000039   0.000982
    10  C    0.000000   0.000000   0.000000  -0.000000   0.000035  -0.000009
    11  C    0.000000   0.000000   0.000000   0.000000  -0.000000  -0.000004
    12  C   -0.000000   0.000000  -0.000000   0.000000  -0.000000   0.000000
    13  C   -0.000000   0.000000  -0.000000  -0.000000  -0.000000  -0.000000
    14  C   -0.000000  -0.000000  -0.000000   0.000000   0.000000  -0.000000
    15  C    0.000000  -0.000000  -0.000000  -0.000000   0.000001   0.000002
    16  C    0.000000  -0.000000   0.000000  -0.000000   0.000000  -0.000004
    17  H    0.379208  -0.016287   0.002450  -0.000303   0.000001  -0.000000
    18  H    0.373091  -0.031678   0.005204   0.000605   0.000003   0.000000
    19  H    0.373046  -0.031649   0.005190   0.000607   0.000004   0.000000
    20  H    0.000372   0.006162  -0.034608   0.353661  -0.035296   0.006659
    21  H    0.000360   0.006299  -0.035263   0.354372  -0.035841   0.006562
    22  H    0.000000   0.000000   0.000004   0.000809   0.008259  -0.033328
    23  H    0.000000   0.000000   0.000005   0.000758   0.006728  -0.033092
    24  H   -0.000000   0.000000   0.000000   0.000019   0.000010   0.001958
    25  H    0.000000   0.000000   0.000000   0.000022  -0.000002   0.002441
    26  H    0.000000  -0.000000   0.000000  -0.000000   0.000001  -0.000026
    27  H    0.000000  -0.000000   0.000000   0.000000   0.000000   0.000058
    28  H   -0.000000  -0.000000   0.000000   0.000000  -0.000006   0.000077
    29  H    0.000000   0.000000   0.000000   0.000000   0.000000  -0.000000
    30  H    0.000000  -0.000000  -0.000000  -0.000000   0.000000   0.000000
    31  H   -0.000000   0.000000   0.000000   0.000000  -0.000000  -0.000000
    32  H   -0.000000  -0.000000  -0.000000   0.000000  -0.000000  -0.000000
    33  H    0.000000  -0.000000  -0.000000  -0.000000   0.000000  -0.000000
    34  H    0.000000  -0.000000   0.000000   0.000000   0.000000   0.000000
    35  H   -0.000000   0.000000  -0.000000   0.000000  -0.000000   0.000000
    36  H   -0.000000  -0.000000  -0.000000  -0.000000  -0.000000  -0.000000
    37  H   -0.000000   0.000000  -0.000000   0.000000  -0.000018  -0.000068
    38  H    0.000000   0.000000   0.000000   0.000000  -0.000000   0.000000
    39  H    0.000000   0.000000   0.000000   0.000000   0.000000  -0.000001
    40  H   -0.000000   0.000000  -0.000000   0.000000  -0.000000   0.000000
               7          8          9         10         11         12
     1  C   -0.000000   0.000000  -0.000000   0.000000   0.000000  -0.000000
     2  O    0.000001  -0.000000   0.000000   0.000000   0.000000   0.000000
     3  O   -0.000093   0.000000  -0.000000   0.000000   0.000000  -0.000000
     4  C    0.000605  -0.000322   0.000001  -0.000000   0.000000   0.000000
     5  O   -0.051134   0.002260  -0.000039   0.000035  -0.000000  -0.000000
     6  O    0.334159  -0.021881   0.000982  -0.000009  -0.000004   0.000000
     7  C    4.676818   0.405201  -0.030664  -0.010647  -0.000132   0.000012
     8  C    0.405201   4.965791   0.383105  -0.042055   0.003680   0.000031
     9  C   -0.030664   0.383105   4.643930   0.440957  -0.027462  -0.003889
    10  C   -0.010647  -0.042055   0.440957   4.822006   0.418345  -0.032825
    11  C   -0.000132   0.003680  -0.027462   0.418345   4.869420   0.416714
    12  C    0.000012   0.000031  -0.003889  -0.032825   0.416714   4.815737
    13  C   -0.000021   0.000016  -0.000229  -0.006535  -0.028907   0.419028
    14  C    0.000073   0.000121   0.000207   0.000197   0.000330  -0.023821
    15  C   -0.001077  -0.005427  -0.022862  -0.004944   0.000351  -0.005254
    16  C    0.001739  -0.028530   0.411369  -0.043226  -0.004556   0.006894
    17  H    0.000000  -0.000000   0.000000  -0.000000   0.000000   0.000000
    18  H    0.000000   0.000000  -0.000000   0.000000   0.000000  -0.000000
    19  H    0.000000   0.000000  -0.000000   0.000000   0.000000  -0.000000
    20  H    0.000465   0.000040   0.000000   0.000000   0.000000  -0.000000
    21  H    0.000515   0.000032   0.000000   0.000000   0.000000  -0.000000
    22  H    0.359919  -0.037868   0.000930  -0.002294   0.000010   0.000034
    23  H    0.355168  -0.026982  -0.003628   0.001466   0.000056  -0.000007
    24  H   -0.027920   0.349768  -0.016966   0.002929  -0.000079   0.000002
    25  H   -0.032589   0.361499  -0.028302   0.002730  -0.000074  -0.000005
    26  H    0.002696  -0.034170   0.353653  -0.044351  -0.003258  -0.000537
    27  H    0.002728  -0.008474  -0.027221   0.362454  -0.039017  -0.009867
    28  H   -0.000635  -0.003678  -0.026141   0.360972  -0.033535   0.005339
    29  H    0.000032  -0.000226   0.003614  -0.025081   0.360266  -0.032982
    30  H    0.000017   0.000023  -0.005679  -0.033446   0.361220  -0.032568
    31  H   -0.000000   0.000004   0.000138   0.004089  -0.031456   0.359941
    32  H   -0.000001  -0.000030   0.000781  -0.000908  -0.037999   0.372294
    33  H   -0.000066  -0.000016   0.000379  -0.002213  -0.009165  -0.039100
    34  H    0.000000  -0.000001   0.000000   0.000154   0.004435  -0.031322
    35  H   -0.000003   0.000012  -0.000123  -0.000106  -0.000094   0.004524
    36  H   -0.000002  -0.000001   0.000013  -0.000004  -0.000025  -0.008031
    37  H   -0.000483   0.000972  -0.009453  -0.000830   0.000221  -0.000542
    38  H   -0.000016   0.000336   0.003542   0.000101  -0.000031   0.000027
    39  H    0.000257  -0.012094  -0.027670   0.005336   0.000100  -0.000150
    40  H   -0.000141   0.004253  -0.028959  -0.002720   0.000630  -0.000744
              13         14         15         16         17         18
     1  C   -0.000000  -0.000000   0.000000   0.000000   0.379208   0.373091
     2  O    0.000000  -0.000000  -0.000000  -0.000000  -0.016287  -0.031678
     3  O   -0.000000  -0.000000  -0.000000   0.000000   0.002450   0.005204
     4  C   -0.000000   0.000000  -0.000000  -0.000000  -0.000303   0.000605
     5  O   -0.000000   0.000000   0.000001   0.000000   0.000001   0.000003
     6  O   -0.000000  -0.000000   0.000002  -0.000004  -0.000000   0.000000
     7  C   -0.000021   0.000073  -0.001077   0.001739   0.000000   0.000000
     8  C    0.000016   0.000121  -0.005427  -0.028530  -0.000000   0.000000
     9  C   -0.000229   0.000207  -0.022862   0.411369   0.000000  -0.000000
    10  C   -0.006535   0.000197  -0.004944  -0.043226  -0.000000   0.000000
    11  C   -0.028907   0.000330   0.000351  -0.004556   0.000000   0.000000
    12  C    0.419028  -0.023821  -0.005254   0.006894   0.000000  -0.000000
    13  C    4.817451   0.426521  -0.032129  -0.006322   0.000000  -0.000000
    14  C    0.426521   4.793817   0.428812  -0.026363  -0.000000   0.000000
    15  C   -0.032129   0.428812   4.811628   0.412471  -0.000000  -0.000000
    16  C   -0.006322  -0.026363   0.412471   4.891853  -0.000000   0.000000
    17  H    0.000000  -0.000000  -0.000000  -0.000000   0.558140  -0.031395
    18  H   -0.000000   0.000000  -0.000000   0.000000  -0.031395   0.604429
    19  H    0.000000  -0.000000   0.000000   0.000000  -0.031367  -0.047337
    20  H   -0.000000   0.000000   0.000000  -0.000000   0.000014  -0.000202
    21  H    0.000000  -0.000000  -0.000000  -0.000000   0.000015   0.000121
    22  H   -0.000059  -0.000054  -0.000675   0.000283   0.000000   0.000000
    23  H    0.000001  -0.000000   0.000064   0.000024   0.000000  -0.000000
    24  H    0.000000  -0.000011  -0.000031   0.003827   0.000000  -0.000000
    25  H    0.000002   0.000056   0.002173  -0.013759   0.000000  -0.000000
    26  H    0.000038  -0.000074   0.005153  -0.044285  -0.000000   0.000000
    27  H    0.005607  -0.001793   0.003632  -0.007678  -0.000000   0.000000
    28  H    0.000016   0.000059  -0.000058   0.005826  -0.000000   0.000000
    29  H   -0.002620  -0.000045  -0.000045   0.000091  -0.000000   0.000000
    30  H    0.004719  -0.000176   0.000084  -0.000630  -0.000000   0.000000
    31  H   -0.031356   0.003577   0.000097  -0.000071   0.000000  -0.000000
    32  H   -0.039642  -0.009687  -0.000707  -0.002907   0.000000  -0.000000
    33  H    0.369573  -0.036647  -0.004728  -0.000667  -0.000000   0.000000
    34  H    0.360018  -0.030498   0.004765   0.000022  -0.000000   0.000000
    35  H   -0.033379   0.361182  -0.033134   0.004866   0.000000   0.000000
    36  H   -0.036068   0.368904  -0.036399  -0.006555   0.000000  -0.000000
    37  H   -0.004084  -0.034891   0.370780  -0.041757   0.000000   0.000000
    38  H    0.004699  -0.030888   0.362540  -0.030663   0.000000  -0.000000
    39  H    0.000122   0.003525  -0.034287   0.357952  -0.000000   0.000000
    40  H   -0.001118  -0.008534  -0.040489   0.364663   0.000000  -0.000000
              19         20         21         22         23         24
     1  C    0.373046   0.000372   0.000360   0.000000   0.000000  -0.000000
     2  O   -0.031649   0.006162   0.006299   0.000000   0.000000   0.000000
     3  O    0.005190  -0.034608  -0.035263   0.000004   0.000005   0.000000
     4  C    0.000607   0.353661   0.354372   0.000809   0.000758   0.000019
     5  O    0.000004  -0.035296  -0.035841   0.008259   0.006728   0.000010
     6  O    0.000000   0.006659   0.006562  -0.033328  -0.033092   0.001958
     7  C    0.000000   0.000465   0.000515   0.359919   0.355168  -0.027920
     8  C    0.000000   0.000040   0.000032  -0.037868  -0.026982   0.349768
     9  C   -0.000000   0.000000   0.000000   0.000930  -0.003628  -0.016966
    10  C    0.000000   0.000000   0.000000  -0.002294   0.001466   0.002929
    11  C    0.000000   0.000000   0.000000   0.000010   0.000056  -0.000079
    12  C   -0.000000  -0.000000  -0.000000   0.000034  -0.000007   0.000002
    13  C    0.000000  -0.000000   0.000000  -0.000059   0.000001   0.000000
    14  C   -0.000000   0.000000  -0.000000  -0.000054  -0.000000  -0.000011
    15  C    0.000000   0.000000  -0.000000  -0.000675   0.000064  -0.000031
    16  C    0.000000  -0.000000  -0.000000   0.000283   0.000024   0.003827
    17  H   -0.031367   0.000014   0.000015   0.000000   0.000000   0.000000
    18  H   -0.047337  -0.000202   0.000121   0.000000  -0.000000  -0.000000
    19  H    0.604453   0.000122  -0.000202  -0.000000   0.000000  -0.000000
    20  H    0.000122   0.673520  -0.073356   0.000173  -0.000270   0.000006
    21  H   -0.000202  -0.073356   0.674960  -0.000285   0.000155  -0.000001
    22  H   -0.000000   0.000173  -0.000285   0.649217  -0.056003   0.006878
    23  H    0.000000  -0.000270   0.000155  -0.056003   0.649868  -0.007901
    24  H   -0.000000   0.000006  -0.000001   0.006878  -0.007901   0.638048
    25  H    0.000000  -0.000002   0.000008  -0.007495   0.006758  -0.042957
    26  H    0.000000  -0.000000  -0.000000  -0.000195   0.000250  -0.014638
    27  H    0.000000  -0.000000   0.000000   0.001012  -0.000314  -0.000122
    28  H    0.000000   0.000000  -0.000000   0.000087   0.001905   0.000585
    29  H    0.000000   0.000000   0.000000   0.000014   0.000011   0.000004
    30  H    0.000000  -0.000000   0.000000  -0.000008   0.000005  -0.000013
    31  H   -0.000000  -0.000000   0.000000  -0.000000  -0.000000  -0.000000
    32  H   -0.000000  -0.000000   0.000000   0.000001  -0.000000   0.000000
    33  H   -0.000000   0.000000  -0.000000   0.000080  -0.000003   0.000000
    34  H   -0.000000   0.000000  -0.000000   0.000000   0.000000  -0.000000
    35  H   -0.000000   0.000000  -0.000000  -0.000003   0.000000  -0.000000
    36  H    0.000000  -0.000000   0.000000   0.000002   0.000000   0.000000
    37  H   -0.000000  -0.000000   0.000000   0.004291  -0.000094  -0.000034
    38  H   -0.000000  -0.000000  -0.000000  -0.000023  -0.000001   0.000015
    39  H    0.000000   0.000000   0.000000   0.000061  -0.000004   0.000814
    40  H   -0.000000   0.000000  -0.000000  -0.000023   0.000009  -0.000263
              25         26         27         28         29         30
     1  C    0.000000   0.000000   0.000000  -0.000000   0.000000   0.000000
     2  O    0.000000  -0.000000  -0.000000  -0.000000   0.000000  -0.000000
     3  O    0.000000   0.000000   0.000000   0.000000   0.000000  -0.000000
     4  C    0.000022  -0.000000   0.000000   0.000000   0.000000  -0.000000
     5  O   -0.000002   0.000001   0.000000  -0.000006   0.000000   0.000000
     6  O    0.002441  -0.000026   0.000058   0.000077  -0.000000   0.000000
     7  C   -0.032589   0.002696   0.002728  -0.000635   0.000032   0.000017
     8  C    0.361499  -0.034170  -0.008474  -0.003678  -0.000226   0.000023
     9  C   -0.028302   0.353653  -0.027221  -0.026141   0.003614  -0.005679
    10  C    0.002730  -0.044351   0.362454   0.360972  -0.025081  -0.033446
    11  C   -0.000074  -0.003258  -0.039017  -0.033535   0.360266   0.361220
    12  C   -0.000005  -0.000537  -0.009867   0.005339  -0.032982  -0.032568
    13  C    0.000002   0.000038   0.005607   0.000016  -0.002620   0.004719
    14  C    0.000056  -0.000074  -0.001793   0.000059  -0.000045  -0.000176
    15  C    0.002173   0.005153   0.003632  -0.000058  -0.000045   0.000084
    16  C   -0.013759  -0.044285  -0.007678   0.005826   0.000091  -0.000630
    17  H    0.000000  -0.000000  -0.000000  -0.000000  -0.000000  -0.000000
    18  H   -0.000000   0.000000   0.000000   0.000000   0.000000   0.000000
    19  H    0.000000   0.000000   0.000000   0.000000   0.000000   0.000000
    20  H   -0.000002  -0.000000  -0.000000   0.000000   0.000000  -0.000000
    21  H    0.000008  -0.000000   0.000000  -0.000000   0.000000   0.000000
    22  H   -0.007495  -0.000195   0.001012   0.000087   0.000014  -0.000008
    23  H    0.006758   0.000250  -0.000314   0.001905   0.000011   0.000005
    24  H   -0.042957  -0.014638  -0.000122   0.000585   0.000004  -0.000013
    25  H    0.627872   0.004978   0.000295  -0.000193   0.000003   0.000002
    26  H    0.004978   0.707160   0.006902  -0.006924  -0.000116   0.004889
    27  H    0.000295   0.006902   0.640566  -0.040834  -0.003161   0.006787
    28  H   -0.000193  -0.006924  -0.040834   0.651737  -0.005469  -0.002940
    29  H    0.000003  -0.000116  -0.003161  -0.005469   0.655732  -0.039253
    30  H    0.000002   0.004889   0.006787  -0.002940  -0.039253   0.655911
    31  H   -0.000000  -0.000008   0.000119  -0.000193  -0.012943   0.001966
    32  H    0.000000  -0.000029  -0.000142  -0.000130   0.006409  -0.009358
    33  H   -0.000001   0.000001   0.004784  -0.000077   0.002143   0.000036
    34  H   -0.000000   0.000001  -0.000174  -0.000009  -0.000068  -0.000170
    35  H    0.000005   0.000005   0.000105   0.000000   0.000006   0.000005
    36  H    0.000003   0.000001   0.000028  -0.000000   0.000003   0.000002
    37  H    0.001237   0.000282   0.001407  -0.000104  -0.000004   0.000000
    38  H   -0.000335  -0.000257  -0.000052  -0.000001   0.000000   0.000001
    39  H    0.004026  -0.002209  -0.000077  -0.000175   0.000005  -0.000045
    40  H    0.000395  -0.004274  -0.000035  -0.000086  -0.000019   0.000230
              31         32         33         34         35         36
     1  C   -0.000000  -0.000000   0.000000   0.000000  -0.000000  -0.000000
     2  O    0.000000  -0.000000  -0.000000  -0.000000   0.000000  -0.000000
     3  O    0.000000  -0.000000  -0.000000   0.000000  -0.000000  -0.000000
     4  C    0.000000   0.000000  -0.000000   0.000000   0.000000  -0.000000
     5  O   -0.000000  -0.000000   0.000000   0.000000  -0.000000  -0.000000
     6  O   -0.000000  -0.000000  -0.000000   0.000000   0.000000  -0.000000
     7  C   -0.000000  -0.000001  -0.000066   0.000000  -0.000003  -0.000002
     8  C    0.000004  -0.000030  -0.000016  -0.000001   0.000012  -0.000001
     9  C    0.000138   0.000781   0.000379   0.000000  -0.000123   0.000013
    10  C    0.004089  -0.000908  -0.002213   0.000154  -0.000106  -0.000004
    11  C   -0.031456  -0.037999  -0.009165   0.004435  -0.000094  -0.000025
    12  C    0.359941   0.372294  -0.039100  -0.031322   0.004524  -0.008031
    13  C   -0.031356  -0.039642   0.369573   0.360018  -0.033379  -0.036068
    14  C    0.003577  -0.009687  -0.036647  -0.030498   0.361182   0.368904
    15  C    0.000097  -0.000707  -0.004728   0.004765  -0.033134  -0.036399
    16  C   -0.000071  -0.002907  -0.000667   0.000022   0.004866  -0.006555
    17  H    0.000000   0.000000  -0.000000  -0.000000   0.000000   0.000000
    18  H   -0.000000  -0.000000   0.000000   0.000000   0.000000  -0.000000
    19  H   -0.000000  -0.000000  -0.000000  -0.000000  -0.000000   0.000000
    20  H   -0.000000  -0.000000   0.000000   0.000000   0.000000  -0.000000
    21  H    0.000000   0.000000  -0.000000  -0.000000  -0.000000   0.000000
    22  H   -0.000000   0.000001   0.000080   0.000000  -0.000003   0.000002
    23  H   -0.000000  -0.000000  -0.000003   0.000000   0.000000   0.000000
    24  H   -0.000000   0.000000   0.000000  -0.000000  -0.000000   0.000000
    25  H   -0.000000   0.000000  -0.000001  -0.000000   0.000005   0.000003
    26  H   -0.000008  -0.000029   0.000001   0.000001   0.000005   0.000001
    27  H    0.000119  -0.000142   0.004784  -0.000174   0.000105   0.000028
    28  H   -0.000193  -0.000130  -0.000077  -0.000009   0.000000  -0.000000
    29  H   -0.012943   0.006409   0.002143  -0.000068   0.000006   0.000003
    30  H    0.001966  -0.009358   0.000036  -0.000170   0.000005   0.000002
    31  H    0.669427  -0.038160   0.002456  -0.013722  -0.000230   0.000154
    32  H   -0.038160   0.645685   0.005744   0.002580   0.000117   0.005282
    33  H    0.002456   0.005744   0.642520  -0.037029  -0.002853   0.006110
    34  H   -0.013722   0.002580  -0.037029   0.659795  -0.004461  -0.004311
    35  H   -0.000230   0.000117  -0.002853  -0.004461   0.661228  -0.037387
    36  H    0.000154   0.005282   0.006110  -0.004311  -0.037387   0.651213
    37  H    0.000004   0.000078   0.002731  -0.000075  -0.004310   0.006129
    38  H    0.000006  -0.000094  -0.000072  -0.000234  -0.003405  -0.005358
    39  H   -0.000008   0.000164  -0.000000   0.000006  -0.000226   0.000145
    40  H    0.000104   0.004285   0.000112  -0.000077   0.000160   0.003686
              37         38         39         40
     1  C   -0.000000   0.000000   0.000000  -0.000000
     2  O    0.000000   0.000000   0.000000   0.000000
     3  O   -0.000000   0.000000   0.000000  -0.000000
     4  C    0.000000   0.000000   0.000000   0.000000
     5  O   -0.000018  -0.000000   0.000000  -0.000000
     6  O   -0.000068   0.000000  -0.000001   0.000000
     7  C   -0.000483  -0.000016   0.000257  -0.000141
     8  C    0.000972   0.000336  -0.012094   0.004253
     9  C   -0.009453   0.003542  -0.027670  -0.028959
    10  C   -0.000830   0.000101   0.005336  -0.002720
    11  C    0.000221  -0.000031   0.000100   0.000630
    12  C   -0.000542   0.000027  -0.000150  -0.000744
    13  C   -0.004084   0.004699   0.000122  -0.001118
    14  C   -0.034891  -0.030888   0.003525  -0.008534
    15  C    0.370780   0.362540  -0.034287  -0.040489
    16  C   -0.041757  -0.030663   0.357952   0.364663
    17  H    0.000000   0.000000  -0.000000   0.000000
    18  H    0.000000  -0.000000   0.000000  -0.000000
    19  H   -0.000000  -0.000000   0.000000  -0.000000
    20  H   -0.000000  -0.000000   0.000000   0.000000
    21  H    0.000000  -0.000000   0.000000  -0.000000
    22  H    0.004291  -0.000023   0.000061  -0.000023
    23  H   -0.000094  -0.000001  -0.000004   0.000009
    24  H   -0.000034   0.000015   0.000814  -0.000263
    25  H    0.001237  -0.000335   0.004026   0.000395
    26  H    0.000282  -0.000257  -0.002209  -0.004274
    27  H    0.001407  -0.000052  -0.000077  -0.000035
    28  H   -0.000104  -0.000001  -0.000175  -0.000086
    29  H   -0.000004   0.000000   0.000005  -0.000019
    30  H    0.000000   0.000001  -0.000045   0.000230
    31  H    0.000004   0.000006  -0.000008   0.000104
    32  H    0.000078  -0.000094   0.000164   0.004285
    33  H    0.002731  -0.000072  -0.000000   0.000112
    34  H   -0.000075  -0.000234   0.000006  -0.000077
    35  H   -0.004310  -0.003405  -0.000226   0.000160
    36  H    0.006129  -0.005358   0.000145   0.003686
    37  H    0.641367  -0.038200   0.002945   0.005418
    38  H   -0.038200   0.658328  -0.014070   0.002910
    39  H    0.002945  -0.014070   0.665787  -0.038482
    40  H    0.005418   0.002910  -0.038482   0.646517
 Mulliken charges:
               1
     1  C   -0.197527
     2  O   -0.169411
     3  O   -0.209130
     4  C    0.148746
     5  O   -0.211498
     6  O   -0.207617
     7  C    0.015220
     8  C   -0.255390
     9  C    0.015689
    10  C   -0.169578
    11  C   -0.219983
    12  C   -0.178931
    13  C   -0.185344
    14  C   -0.183898
    15  C   -0.180306
    16  C   -0.203909
    17  H    0.139524
    18  H    0.127158
    19  H    0.127134
    20  H    0.102542
    21  H    0.101549
    22  H    0.106249
    23  H    0.105067
[...]
 2,0.00002025,0.00002300,0.00002352,0.00000109,0.00000093,0.00000048,-0
 .00000450,0.00000150,0.00000640,0.00000630,-0.00000117,0.00000298,0.00
 001504,-0.00010755,-0.00015887,0.00003732,0.00005062,0.00003247,0.0000
 5327,0.00004005,-0.00002732,0.00002325,-0.00002617,0.00002344,0.000059
 59,-0.00006836,-0.00001374,0.00012674,0.00011294,0.00008951,0.00007184
 ,-0.00001741,-0.00000769,0.00006392,0.00015870,0.00002888,0.00004336,-
 0.00002596,-0.00002438,0.00011090,0.00004208,0.00015131,0.00081805,-0.
 00029919,0.00010859,0.00012185,0.00048056,-0.00228047,0.00049623,0.000
 66850,0.00003354,0.01542198,0.01083328,0.00390435,0.12316775,0.1355574
 5,-0.00002188,0.00000035,0.00008465,0.00001617,0.00002347,-0.00004073,
 0.00000789,0.00000590,-0.00001873,-0.00000760,-0.00001457,0.00005733,-
 0.00000653,0.00000002,-0.00002647,-0.00003488,0.00018950,-0.00002459,0
 .00006723,-0.00020535,-0.00013800,0.00006901,-0.00004857,0.00000954,0.
 00002455,-0.00009683,-0.00001327,0.00000563,0.00003304,0.00001601,0.00
 004468,-0.00000205,0.00012065,-0.00200042,0.00098060,0.00113899,-0.026
 14247,-0.01931167,-0.01075453,-0.03881369,-0.02743718,-0.05503498,0.01
 875032,0.01530586,0.00221820,0.00121756,-0.00085931,0.00074999,0.00000
 869,-0.00000103,-0.00001202,-0.00001938,-0.00002387,-0.00001953,-0.000
 00007,-0.00000071,-0.00000038,0.00000460,-0.00000102,-0.00000693,-0.00
 000527,0.00000068,-0.00000188,-0.00001259,0.00009277,0.00015816,-0.000
 01125,-0.00003831,-0.00002326,-0.00003137,0.00001294,0.00000409,-0.000
 02033,0.00000229,0.00000696,-0.00001913,0.00003476,0.00005514,0.000003
 05,0.00006702,-0.00017282,0.00000222,-0.00001521,0.00002763,0.00005485
 ,0.00017277,0.00014545,0.00005069,-0.00009274,0.00006745,0.00000728,0.
 00015708,0.00011570,0.00108831,-0.00001854,0.00051375,0.00061152,-0.00
 209131,-0.00643862,-0.00002917,0.00056486,0.00128733,0.00247386,0.0019
 0531,0.00010042,0.04278072,0.02806274,0.06765162,-0.00001342,-0.000051
 81,-0.00010152,0.00000020,0.00000462,0.00004586,-0.00001629,0.00005241
 ,0.00009246,0.00001336,-0.00004519,-0.00029416,0.00006220,0.00004415,0
 .00010774,0.00027316,-0.00083479,0.00016399,-0.00049316,0.00071754,0.0
 0066670,-0.00025671,0.00049305,0.00018169,0.00104843,-0.00157362,-0.00
 096536,-0.00063246,0.00013768,-0.00025657,0.00019462,-0.00032962,0.000
 18253,-0.00018204,-0.00018439,-0.00009522,0.00016442,0.00022000,-0.000
 22530,-0.00275816,-0.00215631,-0.00054539,-0.21232411,-0.11421920,-0.0
 3546174,-0.02176525,-0.01330408,-0.00306260,-0.00001843,0.00000697,0.0
 0002207,0.00005886,0.00002997,0.00000771,0.00000901,0.00000542,0.00000
 769,-0.00000929,0.00000639,0.00003082,0.00001765,0.00000606,0.00001254
 ,0.00010477,-0.00068885,-0.00050807,0.00015882,0.00018113,0.00015608,0
 .00018141,0.00011207,-0.00006738,0.00006650,-0.00013243,0.00010968,0.0
 0033431,-0.00014355,-0.00003932,0.00107589,0.00030159,0.00082525,0.000
 53505,-0.00012907,0.00004878,0.00001668,0.00004502,0.00000744,0.000129
 12,0.00011157,-0.00020066,0.00007398,0.00008013,0.00007304,0.00018242,
 0.00008559,-0.00008919,0.00003532,0.00009212,0.00064587,0.00015914,0.0
 0017141,0.00008876,0.00060561,-0.00030537,0.00040872,0.00123860,-0.000
 39050,0.00026060,0.23257846,0.00007151,0.00000691,-0.00027605,-0.00005
 310,-0.00009861,0.00014974,-0.00000020,-0.00008613,-0.00004062,0.00001
 358,0.00012371,0.00011770,0.00005044,-0.00002429,-0.00006390,0.0000342
 9,-0.00023743,-0.00012159,-0.00004336,-0.00070336,0.00120450,0.0000028
 4,0.00002435,0.00014822,-0.00053629,0.00080718,-0.00067459,0.00013527,
 -0.00071675,-0.00078163,0.00005767,0.00000945,0.00006786,0.00014846,0.
 00001162,0.00003615,0.00029658,0.00089322,-0.00124340,-0.01934060,-0.0
 1499264,-0.00351390,-0.11538581,-0.12582753,-0.02443732,0.01603331,0.0
 1109241,0.00269911,-0.00000080,-0.00000970,0.00000575,0.00000864,0.000
 14677,0.00007444,-0.00000686,0.00000301,0.00001030,-0.00000525,-0.0000
 0172,-0.00001940,-0.00000160,-0.00001923,-0.00001040,-0.00003481,-0.00
 083258,0.00024981,-0.00018977,-0.00013833,-0.00002039,-0.00000150,0.00
 003456,-0.00003851,-0.00003396,0.00004516,-0.00001197,-0.00021935,0.00
 031017,0.00012399,0.00082106,-0.00094645,-0.00120524,0.00002449,0.0000
 1275,0.00010283,-0.00000393,0.00003017,0.00001126,0.00001646,0.0000552
 9,-0.00005258,-0.00003995,0.00003281,0.00000422,0.00007333,-0.00009457
 ,0.00000983,0.00030613,0.00050668,0.00075837,0.00026200,0.00007557,-0.
 00017724,0.00042077,0.00028586,-0.00048295,0.00018016,-0.00290944,0.00
 393817,0.12581630,0.14423404,0.00010694,-0.00001467,-0.00047544,-0.000
 07839,-0.00012240,0.00020926,-0.00002294,-0.00007771,0.00001420,0.0000
 2589,0.00012577,-0.00003841,0.00006978,-0.00000434,0.00000897,0.000070
 61,-0.00046125,-0.00000879,-0.00010182,0.00103553,0.00037598,-0.000262
 81,-0.00013471,0.00007505,0.00005784,-0.00075537,0.00034795,0.00102388
 ,-0.00052599,-0.00033809,-0.00003030,0.00012139,-0.00017193,0.00017868
 ,-0.00010748,-0.00008398,0.00085723,-0.00027329,0.00200038,0.02031912,
 0.01541672,0.00346772,-0.03670179,-0.02515818,-0.05352970,-0.00130143,
 -0.00039977,-0.00060053,-0.00003372,0.00000058,0.00006319,0.00010908,0
 .00015994,0.00013016,-0.00000496,0.00000779,0.00001144,-0.00001292,-0.
 00000132,0.00000129,0.00000944,-0.00001522,-0.00000224,-0.00001678,0.0
 0032489,-0.00071755,-0.00002865,-0.00001599,0.00003253,0.00012133,0.00
 001406,-0.00003271,0.00004352,-0.00002322,-0.00003158,-0.00014444,0.00
 017951,-0.00007797,0.00031282,-0.00128367,-0.00097121,-0.00011362,0.00
 011595,0.00020185,0.00000640,-0.00002734,-0.00000019,-0.00005661,-0.00
 002454,0.00003540,-0.00000558,-0.00003292,-0.00000567,-0.00015967,0.00
 003241,-0.00005772,-0.00051493,-0.00033310,-0.00020880,-0.00028257,-0.
 00016542,0.00032382,-0.00034988,-0.00085692,0.00066391,0.00086762,0.00
 416003,-0.00299563,0.03931560,0.02560943,0.05802144,-0.00004084,-0.000
 00236,0.00012238,0.00005306,0.00005230,-0.00007410,-0.00000457,0.00002
 161,0.00000053,0.00000327,-0.00003345,0.00001224,0.00004447,0.00003032
 ,-0.00004957,0.00008083,-0.00002911,0.00008502,-0.00025713,0.00002974,
 -0.00026996,-0.00010994,0.00006645,0.00027753,-0.00406909,0.00023503,-
 0.00073689,-0.00075618,-0.00043877,-0.00064175,0.00011944,-0.00004687,
 0.00004859,0.00000748,0.00000561,-0.00033715,0.00078344,-0.00084150,-0
 .00006181,-0.00098291,0.00177929,0.00391733,-0.05315854,0.01725824,0.0
 3593825,-0.00618590,0.01676128,0.02061733,0.00000391,0.00000329,-0.000
 01450,-0.00004410,-0.00008583,-0.00007375,0.00001199,0.00000663,0.0000
 5061,0.00000394,-0.00000163,-0.00000621,-0.00000396,0.00000934,0.00000
 329,0.00005839,0.00001444,0.00001624,0.00008813,0.00003062,0.00008123,
 0.00006351,0.00010534,-0.00010902,0.00001763,0.00001249,-0.00000530,-0
 .00003182,0.00131943,0.00050626,0.00054908,-0.00009100,0.00017964,0.00
 026341,-0.00005938,0.00002916,-0.00000569,-0.00001594,0.00005832,0.000
 05734,0.00003837,-0.00008360,0.00008006,-0.00004166,0.00000990,0.00007
 032,0.00005275,-0.00003418,0.00012829,0.00008659,0.00032591,0.00022252
 ,0.00016779,0.00023154,0.00038147,-0.00018569,-0.00070136,-0.00000197,
 0.00045102,0.00009045,0.00389853,-0.01242756,-0.02339504,0.05809209,-0
 .00013905,-0.00015638,0.00011352,0.00011307,0.00015964,-0.00009410,0.0
 0001794,0.00016843,0.00005357,-0.00002891,-0.00024193,-0.00025651,-0.0
 0009211,0.00000505,0.00016833,-0.00001271,0.00018892,0.00011061,0.0001
 8306,-0.00041965,-0.00044911,0.00007916,0.00018499,-0.00023212,0.00338
 498,-0.00035490,-0.00015859,0.00003397,0.00001694,0.00054749,-0.000055
 70,-0.00019758,0.00013359,0.00022328,-0.00022507,0.00004676,-0.0005517
 6,-0.00351182,0.00211201,-0.00304570,0.00930368,0.02445859,0.01722865,
 -0.10304157,-0.10678392,0.00389670,-0.01113110,-0.01383742,0.00005049,
 0.00003447,-0.00002832,-0.00007317,-0.00010030,-0.00012162,-0.00000164
 ,0.00006400,0.00015090,0.00001097,0.00001253,0.00003660,0.00000528,0.0
 0002246,0.00001802,-0.00014234,0.00001962,0.00014002,0.00004392,0.0001
 2997,0.00014436,-0.00011188,-0.00005733,0.00009695,0.00002552,-0.00004
 549,0.00005038,0.00015403,-0.00114588,-0.00035627,0.00023927,0.0001003
 1,0.00022810,0.00013541,-0.00006495,-0.00009365,0.00001273,0.00003366,
 -0.00006808,0.00002631,0.00012763,-0.00004429,-0.00011388,0.00013678,-
 0.00003059,-0.00011686,0.00002570,-0.00005944,0.00018599,-0.00001674,0
 .00000872,0.00006156,0.00015781,0.00138122,-0.00001320,0.00127145,-0.0
 0027328,-0.00004049,0.00096841,-0.00074773,0.00254662,-0.00939924,-0.0
 1683114,-0.02463944,0.11699717,-0.00008488,-0.00009337,0.00012196,0.00
 007059,0.00011508,-0.00008366,0.00000285,0.00012101,0.00004291,-0.0000
 1618,-0.00015917,-0.00017373,-0.00003093,0.00002860,0.00009651,0.00002
 876,0.00001381,0.00003560,-0.00001605,-0.00008438,-0.00007834,0.000047
 64,-0.00007767,0.00001810,-0.00066430,0.00090421,0.00066376,-0.0003272
 3,0.00018762,0.00003788,0.00007672,0.00012123,0.00007236,-0.00041322,0
 .00018527,0.00032255,0.00031770,0.00550687,-0.00092588,0.00275212,-0.0
 1063658,-0.02414911,0.03641385,-0.10695130,-0.23574015,-0.00243820,0.0
 0369269,0.00249728,0.00000488,0.00000802,-0.00001488,-0.00001668,-0.00
 007911,-0.00009576,0.00001165,0.00001151,0.00008497,0.00000723,0.00000
 593,0.00002072,0.00000327,0.00001895,0.00001335,-0.00003047,-0.0001441
 8,0.00000879,0.00003412,0.00007208,0.00004398,-0.00001438,-0.00000318,
 0.00002819,-0.00000077,-0.00002203,0.00002384,-0.00009503,0.00011869,0
 .00010319,0.00024069,0.00000726,0.00001739,0.00012498,-0.00009242,0.00
 002253,-0.00001915,-0.00001993,0.00001036,0.00003983,-0.00008227,-0.00
 003590,0.00011954,-0.00007410,-0.00002016,0.00012141,-0.00007234,0.000
 08622,-0.00004096,0.00000202,0.00042425,0.00012582,-0.00033637,-0.0017
 8161,-0.00080276,-0.00002736,0.00067810,0.00063175,-0.00007969,0.00097
 183,0.00026689,-0.00296367,-0.00531648,-0.03616137,0.11047573,0.259598
 54,-0.00002284,-0.00001571,0.00000145,0.00001916,0.00001604,-0.0000014
 8,0.00002913,0.00001025,-0.00005574,-0.00000686,-0.00002949,0.00011885
 ,0.00003984,0.00003341,-0.00007159,0.00005488,0.00023527,0.00003905,-0
 .00003031,-0.00055777,-0.00037150,0.00068455,0.00007227,-0.00030149,-0
 .00003128,-0.00054389,-0.00266626,0.00018667,-0.00074395,-0.00049149,-
 0.00004475,-0.00020010,-0.00002345,-0.00083858,-0.00040912,0.00010354,
 -0.00015303,0.00030621,0.00010939,-0.00423820,0.00050429,0.00070174,-0
 .00480749,0.00808814,-0.02658000,-0.05176888,0.00382754,-0.03234067,0.
 00002843,0.00000355,-0.00001023,-0.00003890,0.00000250,-0.00002875,-0.
 00001532,0.00002287,0.00003626,0.00001141,0.00000134,-0.00001855,-0.00
 001115,-0.00000863,-0.00000389,-0.00049906,-0.00003091,0.00013240,0.00
 001940,0.00017721,0.00010779,-0.00000968,0.00016707,0.00012278,0.00011
 777,-0.00009911,0.00008985,-0.00014526,-0.00023427,-0.00017399,0.00009
 260,0.00012554,0.00016317,0.00005596,-0.00008142,-0.00028568,0.0000257
 7,0.00009929,0.00001036,0.00001112,-0.00004614,-0.00003851,0.00028139,
 0.00002492,0.00021746,0.00057658,0.00020792,0.00032468,0.00008461,-0.0
 0003222,-0.00000174,0.00011183,-0.00006080,-0.00015896,0.00021041,0.00
 104580,-0.00073503,0.00025395,0.00012386,0.00008980,-0.00106928,0.0001
 3528,-0.00030401,0.00156749,-0.00002460,-0.00034427,0.05581064,0.00002
 083,0.00004546,0.00004552,-0.00000520,-0.00002173,-0.00001595,0.000005
 92,-0.00003456,-0.00003403,-0.00001831,0.00004063,0.00011625,0.0000378
 2,0.00000372,-0.00003622,0.00000353,0.00004050,0.00004041,-0.00030509,
 -0.00020454,0.00005361,-0.00115770,0.00066606,-0.00227300,-0.00544696,
 0.00011621,-0.03007155,0.00122983,-0.00559522,-0.00099504,-0.00030353,
 -0.00035775,0.00023087,-0.00027754,-0.00020258,0.00006920,-0.00006529,
 -0.00011943,-0.00035297,0.00342269,-0.00086075,-0.00007815,0.00377268,
 -0.00625298,0.01628987,0.00400755,-0.04914326,0.03769135,-0.00000501,-
 0.00000837,-0.00000237,-0.00000327,-0.00000594,-0.00001060,-0.00000063
 ,-0.00001166,-0.00001650,0.00000260,-0.00000477,-0.00001290,-0.0000086
 1,-0.00000744,-0.00000359,-0.00015793,0.00000971,0.00002061,0.00020996
 ,0.00004190,-0.00001299,0.00021019,0.00034528,0.00011073,0.00037949,-0
 .00056943,0.00042983,0.00047058,0.00001965,0.00025545,-0.00008890,0.00
 008292,0.00021792,-0.00084959,-0.00010349,-0.00171579,0.00005482,0.000
 18887,-0.00010317,0.00000265,0.00007522,-0.00003235,0.00011371,0.00013
 806,0.00014623,0.00029968,0.00018266,0.00013847,0.00007823,0.00000729,
 0.00005223,-0.00004389,0.00005988,0.00010823,0.00020351,-0.00085774,0.
 00069496,-0.00002951,0.00019545,-0.00014373,0.00044716,-0.00020671,0.0
 0019896,0.00035659,0.00039549,0.00070331,-0.00852429,0.06418359,-0.000
 00974,-0.00000245,-0.00002741,0.00001272,0.00000110,0.00001890,0.00003
 416,0.00001837,-0.00002332,-0.00003987,-0.00003722,0.00001961,-0.00004
 058,-0.00004726,0.00001511,-0.00004053,0.00022922,0.00004437,0.0000218
 7,-0.00047326,0.00012074,0.00008045,0.00233136,0.00058252,-0.00305392,
 0.00022249,-0.01627893,0.00164729,-0.00277210,0.00089219,-0.00016452,-
 0.00000702,0.00023896,0.00041703,0.00019372,0.00013037,0.00019123,-0.0
 0027428,0.00023653,-0.00096834,0.00015660,0.00115105,0.00114583,-0.000
 38658,-0.00273470,-0.03435124,0.03757949,-0.29119327,0.00001812,-0.000
 00139,-0.00000657,-0.00002303,0.00001197,-0.00000729,-0.00000761,0.000
 01575,0.00001765,0.00001006,0.00000204,-0.00000187,-0.00000602,-0.0000
 1201,0.00000172,-0.00036901,0.00018434,0.00014666,0.00015278,0.0001733
 8,0.00010465,0.00046637,0.00034299,0.00041116,0.00013594,-0.00084295,0
 .00113933,0.00022141,-0.00045832,-0.00025902,-0.00003672,0.00015644,0.
 00015532,-0.00044960,-0.00024726,-0.00083658,0.00001066,0.00004600,-0.
 00010188,0.00003197,-0.00001596,-0.00000964,-0.00014325,0.00001551,-0.
 00011557,-0.00029021,-0.00005091,-0.00021143,-0.00002293,-0.00000822,0
 .00000148,-0.00002229,0.00006462,0.00003624,-0.00000360,0.00021966,-0.
 00033336,0.00001697,-0.00010979,-0.00001196,-0.00021958,0.00030626,-0.
 00012842,0.00023908,0.00001673,0.00234816,0.03616358,-0.03855324,0.316
 08621,0.00004689,0.00002252,-0.00013456,-0.00003174,-0.00005208,0.0000
 7038,-0.00000894,-0.00002358,0.00002562,0.00002158,0.00004223,-0.00006
 873,0.00003809,-0.00001715,0.00000249,0.00001711,-0.00021487,0.0000796
 0,-0.00002061,0.00049779,-0.00006683,0.00095493,0.00055675,-0.00061556
 ,-0.00067084,0.00194486,0.00080476,-0.00014815,-0.00026789,0.00014936,
 -0.00009211,-0.00042940,-0.00013182,-0.00101073,-0.00062746,0.00038546
 ,-0.00023747,0.00050021,-0.00035854,0.00118524,-0.00237866,0.00078780,
 -0.02521338,-0.01189694,0.00665326,-0.20827068,-0.10688134,0.06556407,
 -0.00001247,-0.00000187,0.00001280,0.00002400,0.00004224,0.00003865,-0
 .00000222,-0.00000085,-0.00000676,-0.00000770,0.00000110,0.00000352,0.
 00000819,-0.00000358,0.00000080,0.00002847,-0.00002019,-0.00016292,0.0
 0002430,0.00002448,0.00005496,-0.00001311,0.00006608,0.00011553,-0.000
 00493,-0.00001011,0.00010037,0.00197096,0.00070943,-0.00018201,0.00010
 719,0.00007760,0.00015469,0.00002232,-0.00003929,-0.00020807,0.0000691
 7,0.00015654,0.00000234,0.00001999,0.00004927,-0.00003930,0.00048291,0
 .00009246,0.00043993,0.00112192,0.00031179,0.00054695,0.00013634,-0.00
 000256,0.00021752,0.00007970,-0.00004775,-0.00016624,0.00064194,-0.000
 09688,0.00041389,0.00069525,0.00139544,-0.00055364,-0.00367790,0.00341
 614,0.00042709,-0.00099746,0.00054449,0.00007452,0.00345727,0.00196122
 ,-0.00075492,0.22926667,-0.00003325,-0.00006539,0.00003117,0.00001699,
 0.00005712,-0.00002306,-0.00000577,0.00011031,0.00009802,-0.00004226,-
 0.00014401,-0.00033826,-0.00016237,0.00000149,0.00031564,-0.00014957,0
 .00000761,0.00008118,0.00083358,-0.00004518,-0.00044273,-0.00007837,-0
 .00395111,-0.00389391,-0.02033546,-0.01768532,0.01023566,0.00026098,-0
 .00036888,0.00048319,-0.00033080,-0.00011914,-0.00031991,-0.00080182,-
 0.00046754,0.00035963,-0.00006450,0.00000289,0.00013960,0.00131022,0.0
 0181307,0.00030164,0.01554634,0.00754770,-0.00436919,-0.10603737,-0.11
 239072,0.04191001,-0.00000723,0.00001305,0.00000132,0.00000706,-0.0000
 3215,0.00000214,0.00001383,0.00000635,0.00000540,-0.00000659,0.0000087
 2,0.00005880,0.00002001,0.00001892,0.00001730,-0.00000127,0.00003895,0
 .00010293,-0.00007583,-0.00008092,-0.00001947,-0.00055451,-0.00140354,
 0.00079187,0.00009888,0.00023902,-0.00011125,-0.00001011,0.00068907,0.
 00032602,-0.00003112,0.00000092,0.00000044,-0.00001976,-0.00008191,-0.
 00025908,0.00012538,0.00008500,-0.00005650,0.00005773,-0.00004881,-0.0
 0005566,0.00032199,0.00010057,0.00026510,0.00054184,0.00064725,0.00079
 054,0.00005147,-0.00008827,-0.00004077,0.00003004,-0.00002563,0.000022
 50,0.00001187,0.00012879,-0.00019096,-0.00033124,-0.00008050,-0.000400
 37,0.00277377,-0.00149703,0.00014302,0.00004563,-0.00041518,-0.0003007
 7,-0.00358816,-0.00227022,0.00201217,0.11059978,0.12974465,-0.00001147
 ,-0.00001718,0.00001371,0.00001080,0.00001466,-0.00000807,0.00001961,0
 .00002812,-0.00001696,-0.00002835,-0.00005056,0.00000709,-0.00006189,-
 0.00001017,0.00004660,-0.00002951,0.00020072,-0.00002168,0.00029032,-0
 .00051196,-0.00014170,-0.00010506,-0.00135872,-0.00132849,-0.01241000,
 -0.00952543,0.00523563,-0.00009810,-0.00009518,0.00019811,0.00014178,-
 0.00012297,0.00007383,-0.00029048,-0.00003682,-0.00171224,-0.00018756,
 -0.00001292,0.00010841,-0.00068743,0.00002187,0.00076065,-0.00560798,-
 0.00201160,0.00195124,0.06791382,0.04318326,-0.07386056,0.00001275,0.0
 0000343,-0.00000371,-0.00001635,0.00000059,-0.00002036,-0.00000591,0.0
 0001307,0.00001619,0.00000650,0.00000278,0.00000598,-0.00000323,-0.000
 00221,0.00000208,-0.00028187,0.00015771,0.00013250,-0.00001336,0.00013
 915,0.00009098,0.00001650,-0.00039105,0.00055196,0.00021074,-0.0001331
 7,0.00028603,-0.00036068,0.00066987,0.00117118,-0.00003701,0.00002886,
 0.00005548,0.00006572,-0.00003444,-0.00018488,0.00006564,0.00012339,0.
 00000341,-0.00000137,0.00001276,-0.00004593,-0.00002231,0.00006336,-0.
 00004028,0.00017959,0.00037758,-0.00201900,0.00015489,-0.00001922,-0.0
 0003780,0.00003701,0.,0.00010145,0.00003433,-0.00014925,-0.00005097,-0
 .00001705,-0.00021656,0.00023343,-0.00159645,0.00050746,-0.00019151,-0
 .00008528,-0.00002599,0.00002232,0.02647515,0.01685013,-0.01161773,-0.
 07367644,-0.04767338,0.08023360\\0.00000095,0.00000095,0.00000089,0.00
 000125,-0.00000060,0.00000150,-0.00000219,0.00000280,0.00000222,0.0000
 0164,0.00000253,-0.00000099,0.00000527,-0.00000227,-0.00000195,-0.0000
 0102,0.00000014,0.00000138,-0.00000213,-0.00000098,0.00000173,0.000002
 26,0.00000155,-0.00000100,-0.00000024,-0.00000088,0.00000171,-0.000000
 12,0.00000076,-0.00000089,-0.00000029,-0.00000061,-0.00000023,-0.00000
 041,-0.00000097,-0.00000093,-0.00000211,0.00000069,0.00000057,-0.00000
 059,-0.00000031,-0.00000029,-0.00000084,0.00000036,-0.00000074,-0.0000
 0052,0.00000024,-0.00000076,-0.00000019,-0.00000137,0.00000008,0.00000
 033,-0.00000027,-0.00000069,0.00000016,-0.00000097,-0.00000020,0.00000
 169,-0.00000060,0.00000146,0.00000248,-0.00000255,0.00000041,0.0000001
 6,0.00000061,-0.00000012,0.00000083,-0.00000012,0.00000035,0.00000078,
 -0.00000029,0.00000069,0.00000051,0.00000026,0.00000055,0.00000024,0.0
 0000118,-0.00000040,-0.00000021,-0.00000006,-0.00000010,0.00000019,-0.
 00000026,0.00000043,-0.00000034,-0.00000041,-0.00000002,-0.00000011,0.
 00000066,-0.00000038,-0.00000098,0.00000022,-0.00000047,-0.00000077,0.
 00000045,-0.00000040,-0.00000066,-0.00000074,-0.00000012,-0.00000108,-
 0.00000064,-0.00000105,-0.00000134,-0.00000036,-0.00000081,-0.00000139
 ,0.00000035,-0.00000079,-0.00000044,-0.00000003,-0.00000022,-0.0000002
 6,-0.00000003,-0.00000018,-0.00000003,0.00000078,0.00000003,-0.0000004
 9,0.00000078,-0.00000026\\\@


 IF THERE IS ONE WAY BETTER THAN ANOTHER IT IS THE WAY OF NATURE.

                          -- ARISTOTLE
 Job cpu time:       0 days 14 hours  3 minutes 47.4 seconds.
 Elapsed time:       0 days  3 hours 30 minutes 57.9 seconds.
 File lengths (MBytes):  RWF=    925 Int=      0 D2E=      0 Chk=     27 Scr=      1
 Normal termination of Gaussian 16 at Mon May 22 15:37:25 2023.
### All Done ###
