### Starting Gaussian ###
 Entering Gaussian System, Link 0=g16
 Initial command:
 /cluster/software/gaussian/gaussian-16-A.03/avx2/g16/l1.exe "/local/scratch/yxie/Gau-20615.inp" -scrdir="/local/scratch/yxie/"
 Entering Link 1 = /cluster/software/gaussian/gaussian-16-A.03/avx2/g16/l1.exe PID=     20616.
  
 Copyright (c) 1988,1990,1992,1993,1995,1998,2003,2009,2016,
            Gaussian, Inc.  All Rights Reserved.
  
 This is part of the Gaussian(R) 16 program.  It is based on
 the Gaussian(R) 09 system (copyright 2009, Gaussian, Inc.),
 the Gaussian(R) 03 system (copyright 2003, Gaussian, Inc.),
 the Gaussian(R) 98 system (copyright 1998, Gaussian, Inc.),
 the Gaussian(R) 94 system (copyright 1995, Gaussian, Inc.),
 the Gaussian 92(TM) system (copyright 1992, Gaussian, Inc.),
 the Gaussian 90(TM) system (copyright 1990, Gaussian, Inc.),
 the Gaussian 88(TM) system (copyright 1988, Gaussian, Inc.),
 the Gaussian 86(TM) system (copyright 1986, Carnegie Mellon
 University), and the Gaussian 82(TM) system (copyright 1983,
 Carnegie Mellon University). Gaussian is a federally registered
 trademark of Gaussian, Inc.
  
 This software contains proprietary and confidential information,
 including trade secrets, belonging to Gaussian, Inc.
  
 This software is provided under written license and may be
 used, copied, transmitted, or stored only in accord with that
 written license.
  
 The following legend is applicable only to US Government
 contracts under FAR:
  
                    RESTRICTED RIGHTS LEGEND
  
 Use, reproduction and disclosure by the US Government is
 subject to restrictions as set forth in subparagraphs (a)
 and (c) of the Commercial Computer Software - Restricted
 Rights clause in FAR 52.227-19.
  
 Gaussian, Inc.
 340 Quinnipiac St., Bldg. 40, Wallingford CT 06492
  
  
 ---------------------------------------------------------------
 Warning -- This program may not be used in any manner that
 competes with the business of Gaussian, Inc. or will provide
 assistance to any competitor of Gaussian, Inc.  The licensee
 of this program is prohibited from giving any competitor of
 Gaussian, Inc. access to this program.  By using this program,
 the user acknowledges that Gaussian, Inc. is engaged in the
 business of creating and licensing software in the field of
 computational chemistry and represents and warrants to the
 licensee that it is not a competitor of Gaussian, Inc. and that
 it will not use this program in any manner prohibited above.
 ---------------------------------------------------------------
  

 Cite this work as:
 Gaussian 16, Revision A.03,
 M. J. Frisch, G. W. Trucks, H. B. Schlegel, G. E. Scuseria, 
 M. A. Robb, J. R. Cheeseman, G. Scalmani, V. Barone, 
 G. A. Petersson, H. Nakatsuji, X. Li, M. Caricato, A. V. Marenich, 
 J. Bloino, B. G. Janesko, R. Gomperts, B. Mennucci, H. P. Hratchian, 
 J. V. Ortiz, A. F. Izmaylov, J. L. Sonnenberg, D. Williams-Young, 
 F. Ding, F. Lipparini, F. Egidi, J. Goings, B. Peng, A. Petrone, 
 T. Henderson, D. Ranasinghe, V. G. Zakrzewski, J. Gao, N. Rega, 
 G. Zheng, W. Liang, M. Hada, M. Ehara, K. Toyota, R. Fukuda, 
 J. Hasegawa, M. Ishida, T. Nakajima, Y. Honda, O. Kitao, H. Nakai, 
 T. Vreven, K. Throssell, J. A. Montgomery, Jr., J. E. Peralta, 
 F. Ogliaro, M. J. Bearpark, J. J. Heyd, E. N. Brothers, K. N. Kudin, 
 V. N. Staroverov, T. A. Keith, R. Kobayashi, J. Normand, 
 K. Raghavachari, A. P. Rendell, J. C. Burant, S. S. Iyengar, 
 J. Tomasi, M. Cossi, J. M. Millam, M. Klene, C. Adamo, R. Cammi, 
 J. W. Ochterski, R. L. Martin, K. Morokuma, O. Farkas, 
 J. B. Foresman, and D. J. Fox, Gaussian, Inc., Wallingford CT, 2016.
 
 ******************************************
 Gaussian 16:  ES64L-G16RevA.03 25-Dec-2016
                22-May-2023 
 ******************************************
 %chk=CtCC1dCCqCCCCCCCrC1CCC.chk
 %NProcShared=20
 Will use up to   20 processors via shared memory.
 -----------------------------
 # opt freq b3lyp/6-31g(2df,p)
 -----------------------------
 1/18=20,19=15,26=3,38=1/1,3;
 2/9=110,12=2,17=6,18=5,40=1/2;
 3/5=1,6=6,7=104,11=2,25=1,30=1,71=1,74=-5/1,2,3;
 4//1;
 5/5=2,38=5/2;
 6/7=2,8=2,9=2,10=2,28=1/1;
 7//1,2,3,16;
 1/18=20,19=15,26=3/3(2);
 2/9=110/2;
 99//99;
 2/9=110/2;
 3/5=1,6=6,7=104,11=2,25=1,30=1,71=1,74=-5/1,2,3;
 4/5=5,16=3,69=1/1;
 5/5=2,38=5/2;
 7//1,2,3,16;
 1/18=20,19=15,26=3/3(-5);
 2/9=110/2;
 6/7=2,8=2,9=2,10=2,19=2,28=1/1;
 99/9=1/99;
 -------------------
 Title Card Required
 -------------------
 Symbolic Z-matrix:
 Charge =  0 Multiplicity = 1
 C                     1.15248   0.09145  -0.01382 
 C                     2.3547    0.10957  -0.01256 
 C                     3.85307   0.10445  -0.00553 
 C                     4.78454   1.0735   -0.01101 
 C                     5.94383   0.10059  -0.02089 
 C                     6.8094    0.12626  -1.26973 
 C                     7.86925  -0.9583   -1.155 
 C                     8.76301  -0.94916  -2.37508 
 C                     9.81854  -2.03378  -2.25105 
 C                     10.70819  -2.02108  -3.48078 
 C                     11.77433  -3.09949  -3.37552 
 C                     12.65898  -3.08082  -4.60534 
 C                     4.86617  -1.0224    0.01081 
 C                     4.87568  -1.88803   1.2636 
 C                     5.96807  -2.94589   1.14483 
 C                     5.9787   -3.83708   2.36617 
 H                     0.08977   0.0735   -0.01127 
 H                     4.75619   2.15794  -0.0133 
 H                     6.57374   0.15006   0.87905 
 H                     7.29432   1.1041   -1.36735 
 H                     6.20718  -0.03388  -2.17328 
 H                     7.39713  -1.94259  -1.0674 
 H                     8.46709  -0.80644  -0.24689 
 H                     9.24062   0.03214  -2.47657 
 H                     8.15759  -1.11721  -3.27392 
 H                     9.33804  -3.0145   -2.14506 
 H                     10.42061  -1.86818  -1.34907 
 H                     11.17996  -1.03594  -3.58337 
 H                     10.09825  -2.18305  -4.37826 
 H                     11.30134  -4.08327  -3.2748 
 H                     12.38348  -2.93556  -2.47901 
 H                     12.06746  -3.26263  -5.50837 
 H                     13.42608  -3.85536  -4.53122 
 H                     13.15407  -2.10999  -4.70921 
 H                     4.8426   -1.65528  -0.88862 
 H                     3.90327  -2.38019   1.37845 
 H                     5.04148  -1.27769   2.16071 
 H                     6.9496   -2.4716    1.04605 
 H                     5.81     -3.55098   0.24334 
 H                     6.17308  -3.24448   3.2653 
 H                     6.76036  -4.5956    2.27412 
 H                     5.01417  -4.33971   2.48097 
 

 GradGradGradGradGradGradGradGradGradGradGradGradGradGradGradGradGradGrad
 Berny optimization.
 Initialization pass.
                           ----------------------------
                           !    Initial Parameters    !
                           ! (Angstroms and Degrees)  !
 --------------------------                            --------------------------
 ! Name  Definition              Value          Derivative Info.                !
 --------------------------------------------------------------------------------
 ! R1    R(1,2)                  1.2024         estimate D2E/DX2                !
 ! R2    R(1,17)                 1.0629         estimate D2E/DX2                !
 ! R3    R(2,3)                  1.4984         estimate D2E/DX2                !
 ! R4    R(3,4)                  1.3441         estimate D2E/DX2                !
 ! R5    R(3,13)                 1.5154         estimate D2E/DX2                !
 ! R6    R(4,5)                  1.5135         estimate D2E/DX2                !
 ! R7    R(4,18)                 1.0848         estimate D2E/DX2                !
 ! R8    R(5,6)                  1.5197         estimate D2E/DX2                !
 ! R9    R(5,13)                 1.5567         estimate D2E/DX2                !
 ! R10   R(5,19)                 1.0996         estimate D2E/DX2                !
 ! R11   R(6,7)                  1.5208         estimate D2E/DX2                !
 ! R12   R(6,20)                 1.0958         estimate D2E/DX2                !
 ! R13   R(6,21)                 1.0976         estimate D2E/DX2                !
 ! R14   R(7,8)                  1.5124         estimate D2E/DX2                !
 ! R15   R(7,22)                 1.0952         estimate D2E/DX2                !
 ! R16   R(7,23)                 1.0978         estimate D2E/DX2                !
 ! R17   R(8,9)                  1.5185         estimate D2E/DX2                !
 ! R18   R(8,24)                 1.0961         estimate D2E/DX2                !
 ! R19   R(8,25)                 1.0967         estimate D2E/DX2                !
 ! R20   R(9,10)                 1.5179         estimate D2E/DX2                !
 ! R21   R(9,26)                 1.0972         estimate D2E/DX2                !
 ! R22   R(9,27)                 1.097          estimate D2E/DX2                !
 ! R23   R(10,11)                1.5201         estimate D2E/DX2                !
 ! R24   R(10,28)                1.0971         estimate D2E/DX2                !
 ! R25   R(10,29)                1.0971         estimate D2E/DX2                !
 ! R26   R(11,12)                1.5151         estimate D2E/DX2                !
 ! R27   R(11,30)                1.0962         estimate D2E/DX2                !
 ! R28   R(11,31)                1.0962         estimate D2E/DX2                !
 ! R29   R(12,32)                1.0947         estimate D2E/DX2                !
 ! R30   R(12,33)                1.0926         estimate D2E/DX2                !
 ! R31   R(12,34)                1.0947         estimate D2E/DX2                !
 ! R32   R(13,14)                1.5228         estimate D2E/DX2                !
 ! R33   R(13,35)                1.1            estimate D2E/DX2                !
 ! R34   R(14,15)                1.5253         estimate D2E/DX2                !
 ! R35   R(14,36)                1.0959         estimate D2E/DX2                !
 ! R36   R(14,37)                1.0976         estimate D2E/DX2                !
 ! R37   R(15,16)                1.512          estimate D2E/DX2                !
 ! R38   R(15,38)                1.0946         estimate D2E/DX2                !
 ! R39   R(15,39)                1.0972         estimate D2E/DX2                !
 ! R40   R(16,40)                1.0943         estimate D2E/DX2                !
 ! R41   R(16,41)                1.0931         estimate D2E/DX2                !
 ! R42   R(16,42)                1.0937         estimate D2E/DX2                !
 ! A1    A(2,3,4)              133.6689         estimate D2E/DX2                !
 ! A2    A(2,3,13)             132.1534         estimate D2E/DX2                !
 ! A3    A(4,3,13)              94.1778         estimate D2E/DX2                !
 ! A4    A(3,4,5)               93.8643         estimate D2E/DX2                !
 ! A5    A(3,4,18)             134.6354         estimate D2E/DX2                !
 ! A6    A(5,4,18)             131.4996         estimate D2E/DX2                !
 ! A7    A(4,5,6)              115.5173         estimate D2E/DX2                !
 ! A8    A(4,5,13)              86.1776         estimate D2E/DX2                !
 ! A9    A(4,5,19)             113.8617         estimate D2E/DX2                !
 ! A10   A(6,5,13)             115.037          estimate D2E/DX2                !
 ! A11   A(6,5,19)             110.2134         estimate D2E/DX2                !
 ! A12   A(13,5,19)            114.3523         estimate D2E/DX2                !
 ! A13   A(5,6,7)              108.8385         estimate D2E/DX2                !
 ! A14   A(5,6,20)             109.8964         estimate D2E/DX2                !
 ! A15   A(5,6,21)             111.1934         estimate D2E/DX2                !
 ! A16   A(7,6,20)             109.5545         estimate D2E/DX2                !
 ! A17   A(7,6,21)             109.9033         estimate D2E/DX2                !
 ! A18   A(20,6,21)            107.4367         estimate D2E/DX2                !
 ! A19   A(6,7,8)              110.2836         estimate D2E/DX2                !
 ! A20   A(6,7,22)             110.2771         estimate D2E/DX2                !
 ! A21   A(6,7,23)             110.0772         estimate D2E/DX2                !
 ! A22   A(8,7,22)             108.9478         estimate D2E/DX2                !
 ! A23   A(8,7,23)             110.161          estimate D2E/DX2                !
 ! A24   A(22,7,23)            107.0333         estimate D2E/DX2                !
 ! A25   A(7,8,9)              109.9107         estimate D2E/DX2                !
 ! A26   A(7,8,24)             109.7311         estimate D2E/DX2                !
 ! A27   A(7,8,25)             109.5129         estimate D2E/DX2                !
 ! A28   A(9,8,24)             110.1295         estimate D2E/DX2                !
 ! A29   A(9,8,25)             109.9516         estimate D2E/DX2                !
 ! A30   A(24,8,25)            107.5691         estimate D2E/DX2                !
 ! A31   A(8,9,10)             109.5887         estimate D2E/DX2                !
 ! A32   A(8,9,26)             109.9928         estimate D2E/DX2                !
 ! A33   A(8,9,27)             109.9268         estimate D2E/DX2                !
 ! A34   A(10,9,26)            110.024          estimate D2E/DX2                !
 ! A35   A(10,9,27)            110.0714         estimate D2E/DX2                !
 ! A36   A(26,9,27)            107.2078         estimate D2E/DX2                !
 ! A37   A(9,10,11)            110.4291         estimate D2E/DX2                !
 ! A38   A(9,10,28)            109.592          estimate D2E/DX2                !
 ! A39   A(9,10,29)            109.6124         estimate D2E/DX2                !
 ! A40   A(11,10,28)           109.9938         estimate D2E/DX2                !
 ! A41   A(11,10,29)           109.9879         estimate D2E/DX2                !
 ! A42   A(28,10,29)           107.1656         estimate D2E/DX2                !
 ! A43   A(10,11,12)           110.156          estimate D2E/DX2                !
 ! A44   A(10,11,30)           109.9019         estimate D2E/DX2                !
 ! A45   A(10,11,31)           109.8939         estimate D2E/DX2                !
 ! A46   A(12,11,30)           109.7295         estimate D2E/DX2                !
 ! A47   A(12,11,31)           109.7274         estimate D2E/DX2                !
 ! A48   A(30,11,31)           107.3873         estimate D2E/DX2                !
 ! A49   A(11,12,32)           110.6121         estimate D2E/DX2                !
 ! A50   A(11,12,33)           110.2513         estimate D2E/DX2                !
 ! A51   A(11,12,34)           110.6109         estimate D2E/DX2                !
 ! A52   A(32,12,33)           108.5167         estimate D2E/DX2                !
 ! A53   A(32,12,34)           108.2633         estimate D2E/DX2                !
 ! A54   A(33,12,34)           108.5164         estimate D2E/DX2                !
 ! A55   A(3,13,5)              85.7658         estimate D2E/DX2                !
 ! A56   A(3,13,14)            115.8327         estimate D2E/DX2                !
 ! A57   A(3,13,35)            113.8707         estimate D2E/DX2                !
 ! A58   A(5,13,14)            114.992          estimate D2E/DX2                !
 ! A59   A(5,13,35)            114.4065         estimate D2E/DX2                !
 ! A60   A(14,13,35)           110.228          estimate D2E/DX2                !
 ! A61   A(13,14,15)           109.5519         estimate D2E/DX2                !
 ! A62   A(13,14,36)           109.6311         estimate D2E/DX2                !
 ! A63   A(13,14,37)           110.9316         estimate D2E/DX2                !
 ! A64   A(15,14,36)           109.4011         estimate D2E/DX2                !
 ! A65   A(15,14,37)           109.9444         estimate D2E/DX2                !
 ! A66   A(36,14,37)           107.3432         estimate D2E/DX2                !
 ! A67   A(14,15,16)           110.5444         estimate D2E/DX2                !
 ! A68   A(14,15,38)           110.4094         estimate D2E/DX2                !
 ! A69   A(14,15,39)           110.0773         estimate D2E/DX2                !
 ! A70   A(16,15,38)           108.7838         estimate D2E/DX2                !
 ! A71   A(16,15,39)           109.8561         estimate D2E/DX2                !
 ! A72   A(38,15,39)           107.098          estimate D2E/DX2                !
 ! A73   A(15,16,40)           110.2298         estimate D2E/DX2                !
 ! A74   A(15,16,41)           110.2444         estimate D2E/DX2                !
 ! A75   A(15,16,42)           110.4554         estimate D2E/DX2                !
 ! A76   A(40,16,41)           108.5402         estimate D2E/DX2                !
 ! A77   A(40,16,42)           108.6205         estimate D2E/DX2                !
 ! A78   A(41,16,42)           108.6981         estimate D2E/DX2                !
 ! A79   L(2,1,17,42,-1)       179.813          estimate D2E/DX2                !
 ! A80   L(1,2,3,42,-1)        178.973          estimate D2E/DX2                !
 ! A81   L(2,1,17,42,-2)       179.8484         estimate D2E/DX2                !
 ! A82   L(1,2,3,42,-2)        179.6253         estimate D2E/DX2                !
 ! D1    D(2,3,4,5)           -179.0463         estimate D2E/DX2                !
 ! D2    D(2,3,4,18)             0.6553         estimate D2E/DX2                !
 ! D3    D(13,3,4,5)             0.9615         estimate D2E/DX2                !
 ! D4    D(13,3,4,18)         -179.3369         estimate D2E/DX2                !
 ! D5    D(2,3,13,5)           179.0724         estimate D2E/DX2                !
 ! D6    D(2,3,13,14)          -65.1525         estimate D2E/DX2                !
 ! D7    D(2,3,13,35)           64.2167         estimate D2E/DX2                !
 ! D8    D(4,3,13,5)            -0.9352         estimate D2E/DX2                !
 ! D9    D(4,3,13,14)          114.84           estimate D2E/DX2                !
 ! D10   D(4,3,13,35)         -115.7908         estimate D2E/DX2                !
 ! D11   D(3,4,5,6)            115.0471         estimate D2E/DX2                !
 ! D12   D(3,4,5,13)            -0.9356         estimate D2E/DX2                !
 ! D13   D(3,4,5,19)          -115.9178         estimate D2E/DX2                !
 ! D14   D(18,4,5,6)           -64.6693         estimate D2E/DX2                !
 ! D15   D(18,4,5,13)          179.348          estimate D2E/DX2                !
 ! D16   D(18,4,5,19)           64.3658         estimate D2E/DX2                !
 ! D17   D(4,5,6,7)           -176.6824         estimate D2E/DX2                !
 ! D18   D(4,5,6,20)            63.3456         estimate D2E/DX2                !
 ! D19   D(4,5,6,21)           -55.4786         estimate D2E/DX2                !
 ! D20   D(13,5,6,7)           -78.5515         estimate D2E/DX2                !
 ! D21   D(13,5,6,20)          161.4765         estimate D2E/DX2                !
 ! D22   D(13,5,6,21)           42.6523         estimate D2E/DX2                !
 ! D23   D(19,5,6,7)            52.5169         estimate D2E/DX2                !
 ! D24   D(19,5,6,20)          -67.4551         estimate D2E/DX2                !
 ! D25   D(19,5,6,21)          173.7208         estimate D2E/DX2                !
 ! D26   D(4,5,13,3)             0.8302         estimate D2E/DX2                !
 ! D27   D(4,5,13,14)         -115.7574         estimate D2E/DX2                !
 ! D28   D(4,5,13,35)          115.1612         estimate D2E/DX2                !
 ! D29   D(6,5,13,3)          -115.6132         estimate D2E/DX2                !
 ! D30   D(6,5,13,14)          127.7993         estimate D2E/DX2                !
 ! D31   D(6,5,13,35)           -1.2821         estimate D2E/DX2                !
 ! D32   D(19,5,13,3)          115.3361         estimate D2E/DX2                !
 ! D33   D(19,5,13,14)          -1.2515         estimate D2E/DX2                !
 ! D34   D(19,5,13,35)        -130.3329         estimate D2E/DX2                !
 ! D35   D(5,6,7,8)           -179.2178         estimate D2E/DX2                !
 ! D36   D(5,6,7,22)            60.4116         estimate D2E/DX2                !
 ! D37   D(5,6,7,23)           -57.4618         estimate D2E/DX2                !
 ! D38   D(20,6,7,8)           -59.0342         estimate D2E/DX2                !
 ! D39   D(20,6,7,22)         -179.4047         estimate D2E/DX2                !
 ! D40   D(20,6,7,23)           62.7218         estimate D2E/DX2                !
 ! D41   D(21,6,7,8)            58.7922         estimate D2E/DX2                !
 ! D42   D(21,6,7,22)          -61.5784         estimate D2E/DX2                !
 ! D43   D(21,6,7,23)         -179.4518         estimate D2E/DX2                !
 ! D44   D(6,7,8,9)            179.9384         estimate D2E/DX2                !
 ! D45   D(6,7,8,24)            58.6891         estimate D2E/DX2                !
 ! D46   D(6,7,8,25)           -59.1717         estimate D2E/DX2                !
 ! D47   D(22,7,8,9)           -58.8954         estimate D2E/DX2                !
 ! D48   D(22,7,8,24)          179.8553         estimate D2E/DX2                !
 ! D49   D(22,7,8,25)           61.9944         estimate D2E/DX2                !
 ! D50   D(23,7,8,9)            58.2321         estimate D2E/DX2                !
 ! D51   D(23,7,8,24)          -63.0172         estimate D2E/DX2                !
 ! D52   D(23,7,8,25)          179.1219         estimate D2E/DX2                !
 ! D53   D(7,8,9,10)           179.8163         estimate D2E/DX2                !
 ! D54   D(7,8,9,26)            58.7366         estimate D2E/DX2                !
 ! D55   D(7,8,9,27)           -59.0873         estimate D2E/DX2                !
 ! D56   D(24,8,9,10)          -59.1735         estimate D2E/DX2                !
 ! D57   D(24,8,9,26)          179.7467         estimate D2E/DX2                !
 ! D58   D(24,8,9,27)           61.9229         estimate D2E/DX2                !
 ! D59   D(25,8,9,10)           59.1909         estimate D2E/DX2                !
 ! D60   D(25,8,9,26)          -61.8888         estimate D2E/DX2                !
 ! D61   D(25,8,9,27)         -179.7127         estimate D2E/DX2                !
 ! D62   D(8,9,10,11)          179.9163         estimate D2E/DX2                !
 ! D63   D(8,9,10,28)           58.5932         estimate D2E/DX2                !
 ! D64   D(8,9,10,29)          -58.7547         estimate D2E/DX2                !
 ! D65   D(26,9,10,11)         -59.0228         estimate D2E/DX2                !
 ! D66   D(26,9,10,28)         179.654          estimate D2E/DX2                !
 ! D67   D(26,9,10,29)          62.3061         estimate D2E/DX2                !
 ! D68   D(27,9,10,11)          58.9073         estimate D2E/DX2                !
 ! D69   D(27,9,10,28)         -62.4159         estimate D2E/DX2                !
 ! D70   D(27,9,10,29)        -179.7638         estimate D2E/DX2                !
 ! D71   D(9,10,11,12)        -179.9688         estimate D2E/DX2                !
 ! D72   D(9,10,11,30)          59.0116         estimate D2E/DX2                !
 ! D73   D(9,10,11,31)         -58.9571         estimate D2E/DX2                !
 ! D74   D(28,10,11,12)        -58.8844         estimate D2E/DX2                !
 ! D75   D(28,10,11,30)       -179.904          estimate D2E/DX2                !
 ! D76   D(28,10,11,31)         62.1273         estimate D2E/DX2                !
 ! D77   D(29,10,11,12)         58.9253         estimate D2E/DX2                !
 ! D78   D(29,10,11,30)        -62.0943         estimate D2E/DX2                !
 ! D79   D(29,10,11,31)        179.937          estimate D2E/DX2                !
 ! D80   D(10,11,12,32)        -59.9816         estimate D2E/DX2                !
 ! D81   D(10,11,12,33)        179.9903         estimate D2E/DX2                !
 ! D82   D(10,11,12,34)         59.9634         estimate D2E/DX2                !
 ! D83   D(30,11,12,32)         61.1411         estimate D2E/DX2                !
 ! D84   D(30,11,12,33)        -58.8871         estimate D2E/DX2                !
 ! D85   D(30,11,12,34)       -178.9139         estimate D2E/DX2                !
 ! D86   D(31,11,12,32)        178.9071         estimate D2E/DX2                !
 ! D87   D(31,11,12,33)         58.879          estimate D2E/DX2                !
 ! D88   D(31,11,12,34)        -61.1479         estimate D2E/DX2                !
 ! D89   D(3,13,14,15)        -178.439          estimate D2E/DX2                !
 ! D90   D(3,13,14,36)          61.4991         estimate D2E/DX2                !
 ! D91   D(3,13,14,37)         -56.8789         estimate D2E/DX2                !
 ! D92   D(5,13,14,15)         -80.671          estimate D2E/DX2                !
 ! D93   D(5,13,14,36)         159.2671         estimate D2E/DX2                !
 ! D94   D(5,13,14,37)          40.8892         estimate D2E/DX2                !
 ! D95   D(35,13,14,15)         50.4479         estimate D2E/DX2                !
 ! D96   D(35,13,14,36)        -69.6139         estimate D2E/DX2                !
 ! D97   D(35,13,14,37)        172.0081         estimate D2E/DX2                !
 ! D98   D(13,14,15,16)       -178.8382         estimate D2E/DX2                !
 ! D99   D(13,14,15,38)         60.7412         estimate D2E/DX2                !
 ! D100  D(13,14,15,39)        -57.2927         estimate D2E/DX2                !
 ! D101  D(36,14,15,16)        -58.6358         estimate D2E/DX2                !
 ! D102  D(36,14,15,38)       -179.0565         estimate D2E/DX2                !
 ! D103  D(36,14,15,39)         62.9097         estimate D2E/DX2                !
 ! D104  D(37,14,15,16)         59.0096         estimate D2E/DX2                !
 ! D105  D(37,14,15,38)        -61.4111         estimate D2E/DX2                !
 ! D106  D(37,14,15,39)       -179.4449         estimate D2E/DX2                !
 ! D107  D(14,15,16,40)        -60.4218         estimate D2E/DX2                !
 ! D108  D(14,15,16,41)        179.77           estimate D2E/DX2                !
 ! D109  D(14,15,16,42)         59.621          estimate D2E/DX2                !
 ! D110  D(38,15,16,40)         60.9657         estimate D2E/DX2                !
 ! D111  D(38,15,16,41)        -58.8425         estimate D2E/DX2                !
 ! D112  D(38,15,16,42)       -178.9914         estimate D2E/DX2                !
 ! D113  D(39,15,16,40)        177.9021         estimate D2E/DX2                !
 ! D114  D(39,15,16,41)         58.0939         estimate D2E/DX2                !
 ! D115  D(39,15,16,42)        -62.0551         estimate D2E/DX2                !
 --------------------------------------------------------------------------------
 Trust Radius=3.00D-01 FncErr=1.00D-07 GrdErr=1.00D-06 EigMax=2.50D+02 EigMin=1.00D-04
 Number of steps in this run=    249 maximum allowed number of steps=    252.
 GradGradGradGradGradGradGradGradGradGradGradGradGradGradGradGradGradGrad

                          Input orientation:                          
 ---------------------------------------------------------------------
 Center     Atomic      Atomic             Coordinates (Angstroms)
 Number     Number       Type             X           Y           Z
 ---------------------------------------------------------------------
      1          6           0        1.152480    0.091450   -0.013820
      2          6           0        2.354700    0.109570   -0.012560
      3          6           0        3.853070    0.104450   -0.005530
      4          6           0        4.784540    1.073500   -0.011010
      5          6           0        5.943830    0.100590   -0.020890
      6          6           0        6.809400    0.126260   -1.269730
      7          6           0        7.869250   -0.958300   -1.155000
      8          6           0        8.763010   -0.949160   -2.375080
      9          6           0        9.818540   -2.033780   -2.251050
     10          6           0       10.708190   -2.021080   -3.480780
     11          6           0       11.774330   -3.099490   -3.375520
     12          6           0       12.658980   -3.080820   -4.605340
     13          6           0        4.866170   -1.022400    0.010810
     14          6           0        4.875680   -1.888030    1.263600
     15          6           0        5.968070   -2.945890    1.144830
     16          6           0        5.978700   -3.837080    2.366170
     17          1           0        0.089770    0.073500   -0.011270
     18          1           0        4.756190    2.157940   -0.013300
     19          1           0        6.573740    0.150060    0.879050
     20          1           0        7.294320    1.104100   -1.367350
     21          1           0        6.207180   -0.033880   -2.173280
     22          1           0        7.397130   -1.942590   -1.067400
     23          1           0        8.467090   -0.806440   -0.246890
     24          1           0        9.240620    0.032140   -2.476570
     25          1           0        8.157590   -1.117210   -3.273920
     26          1           0        9.338040   -3.014500   -2.145060
     27          1           0       10.420610   -1.868180   -1.349070
     28          1           0       11.179960   -1.035940   -3.583370
     29          1           0       10.098250   -2.183050   -4.378260
     30          1           0       11.301340   -4.083270   -3.274800
     31          1           0       12.383480   -2.935560   -2.479010
     32          1           0       12.067460   -3.262630   -5.508370
     33          1           0       13.426080   -3.855360   -4.531220
     34          1           0       13.154070   -2.109990   -4.709210
     35          1           0        4.842600   -1.655280   -0.888620
     36          1           0        3.903270   -2.380190    1.378450
     37          1           0        5.041480   -1.277690    2.160710
     38          1           0        6.949600   -2.471600    1.046050
     39          1           0        5.810000   -3.550980    0.243340
     40          1           0        6.173080   -3.244480    3.265300
     41          1           0        6.760360   -4.595600    2.274120
     42          1           0        5.014170   -4.339710    2.480970
 ---------------------------------------------------------------------
                    Distance matrix (angstroms):
                    1          2          3          4          5
     1  C    0.000000
     2  C    1.202357   0.000000
     3  C    2.700634   1.498395   0.000000
     4  C    3.762485   2.614055   1.344144   0.000000
     5  C    4.791364   3.589151   2.090820   1.513474   0.000000
     6  C    5.794762   4.628726   3.215364   2.565482   1.519695
     7  C    6.893422   5.731996   4.310501   3.866828   2.472791
     8  C    8.036080   6.911501   5.552691   5.050565   3.819943
     9  C    9.199043   8.081689   6.723185   6.325672   4.954041
    10  C   10.382398   9.292417   7.974203   7.530296   6.258710
    11  C   11.589082  10.504142   9.185229   8.808572   7.449079
    12  C   12.788467  11.723924  10.433036  10.018635   8.731082
    13  C    3.877211   2.754884   1.515397   2.097603   1.556747
    14  C    4.405946   3.460395   2.574179   3.225461   2.597204
    15  C    5.810147   4.871533   3.886017   4.346516   3.261983
    16  C    6.662590   5.862404   5.067437   5.584872   4.604836
    17  H    1.062865   2.265218   3.763432   4.800090   5.854131
    18  H    4.154167   3.156418   2.243325   1.084813   2.375549
    19  H    5.494608   4.312413   2.861225   2.201405   1.099603
    20  H    6.370220   5.217700   3.833543   2.852997   2.154950
    21  H    5.498088   4.419377   3.203141   2.815245   2.172606
    22  H    6.651541   5.545282   4.228274   4.127758   2.716956
    23  H    7.373198   6.185087   4.709263   4.141375   2.690840
    24  H    8.454979   7.313907   5.927644   5.198083   4.111432
    25  H    7.820529   6.768677   5.541094   5.179118   4.118977
    26  H    9.010688   7.941940   6.662607   6.480762   5.073120
    27  H    9.566675   8.411698   6.987771   6.496859   5.067709
    28  H   10.703413   9.588957   8.233149   7.623181   6.434285
    29  H   10.210215   9.180306   7.959629   7.610092   6.439013
    30  H   11.448215  10.405022   9.148872   8.928230   7.536281
    31  H   11.890135  10.767201   9.387633   8.939098   7.531909
    32  H   12.671887  11.658189  10.444840  10.102669   8.883835
    33  H   13.661093  12.598191  11.305065  10.927130   9.590447
    34  H   13.074065  11.983796  10.655372  10.112207   8.880010
    35  H    4.175324   3.173614   2.203558   2.867021   2.246941
    36  H    3.951489   3.245286   2.844531   3.825599   3.503756
    37  H    4.661271   3.723759   2.831117   3.210994   2.733728
    38  H    6.426441   5.375519   4.162974   4.286326   2.960759
    39  H    5.918270   5.040259   4.153755   4.743635   3.663563
    40  H    6.862032   6.047648   5.224568   5.595284   4.694794
    41  H    7.658422   6.839398   5.978261   6.423736   5.290368
    42  H    6.385280   5.752092   5.223159   5.963685   5.180718
                    6          7          8          9         10
     6  C    0.000000
     7  C    1.520761   0.000000
     8  C    2.488959   1.512444   0.000000
     9  C    3.831930   2.481474   1.518528   0.000000
    10  C    4.969947   3.820777   2.480990   1.517852   0.000000
    11  C    6.284134   4.976450   3.833125   2.495052   1.520099
    12  C    7.458501   6.273073   4.969569   3.834980   2.488627
    13  C    2.595254   3.222066   4.569814   5.537587   6.878791
    14  C    3.770199   3.959228   5.406737   6.066784   7.519642
    15  C    3.997004   3.585278   4.918169   5.214409   6.687322
    16  C    5.442233   4.925464   6.210629   6.270166   7.736456
    17  H    6.836661   7.930513   9.047570  10.203245  11.365545
    18  H    3.149922   4.550338   5.593450   6.943013   8.056918
    19  H    2.161795   2.654085   4.073150   5.009532   6.388712
    20  H    1.095832   2.151541   2.718170   4.122973   5.088010
    21  H    1.097596   2.157295   2.722265   4.128870   5.090934
    22  H    2.160209   1.095170   2.136015   2.696770   4.098010
    23  H    2.159645   1.097788   2.153400   2.710985   4.117757
    24  H    2.715907   2.146666   1.096066   2.157053   2.716231
    25  H    2.716728   2.144345   1.096671   2.155254   2.713915
    26  H    4.126087   2.713949   2.156200   1.097236   2.156001
    27  H    4.126127   2.715692   2.155210   1.097032   2.156448
    28  H    5.079905   4.106557   2.703543   2.150401   1.097084
    29  H    5.080591   4.105832   2.705195   2.150707   1.097147
    30  H    6.474409   5.102767   4.132222   2.728950   2.155663
    31  H    6.473598   5.103022   4.130907   2.728386   2.155554
    32  H    7.556311   6.471996   5.107743   4.144617   2.738646
    33  H    8.382784   7.118299   5.902471   4.640223   3.443099
    34  H    7.555506   6.472103   5.106574   4.144167   2.738480
    35  H    2.680939   3.117266   4.251798   5.172954   6.423258
    36  H    4.662697   4.916212   6.305070   6.948647   8.369469
    37  H    4.106645   4.369465   5.876318   6.546419   8.030606
    38  H    3.483012   2.824970   4.160578   4.392422   5.901030
    39  H    4.100034   3.594142   4.727141   4.959059   6.340499
    40  H    5.686237   5.257629   6.617410   6.722000   8.220312
    41  H    5.904002   5.120396   6.238765   6.032624   7.438574
    42  H    6.102089   5.727625   7.009340   7.126801   8.563899
                   11         12         13         14         15
    11  C    0.000000
    12  C    1.515062   0.000000
    13  C    7.968953   9.288370   0.000000
    14  C    8.401217   9.820741   1.522790   0.000000
    15  C    7.360014   8.823318   2.489980   1.525284   0.000000
    16  C    8.191482   9.685041   3.835084   2.496219   1.511954
    17  H   12.566423  13.749191   4.900559   5.327084   6.708777
    18  H    9.391453  10.534967   3.182332   4.244364   5.372057
    19  H    7.463717   8.806092   2.245952   2.680503   3.165815
    20  H    6.463235   7.535099   3.509593   4.660961   4.946959
    21  H    6.468114   7.538202   2.746949   4.125883   4.421180
    22  H    5.081901   6.442022   2.900870   3.434275   2.818295
    23  H    5.097474   6.460715   3.616583   4.043469   3.572007
    24  H    4.127336   5.089928   5.141491   6.060415   5.717760
    25  H    4.125599   5.088316   4.651009   5.652803   5.259603
    26  H    2.730708   4.133524   5.349192   5.727177   4.710072
    27  H    2.730418   4.133290   5.780694   6.129656   5.215948
    28  H    2.157479   2.722766   7.265140   7.997695   7.291610
    29  H    2.157451   2.723030   6.927172   7.693690   6.938648
    30  H    1.096215   2.149053   7.847010   8.167329   7.019297
    31  H    1.096206   2.149018   8.146738   8.454082   7.368162
    32  H    2.159071   1.094721   9.345510   9.973505   9.031498
    33  H    2.152965   1.092634  10.095928  10.514736   9.416294
    34  H    2.159056   1.094721   9.599517  10.210557   9.306294
    35  H    7.504618   8.771657   1.100030   2.165021   2.658435
    36  H    9.223405  10.628221   2.154347   1.095898   2.153600
    37  H    8.905059  10.346836   2.172090   1.097639   2.161822
    38  H    6.574386   8.056449   2.740909   2.165416   1.094582
    39  H    6.990939   8.404717   2.708985   2.163166   1.097180
    40  H    8.688815  10.200032   4.151790   2.744086   2.151181
    41  H    7.700433   9.187777   4.634467   3.450233   2.150480
    42  H    9.029750  10.499701   4.138616   2.740785   2.153585
                   16         17         18         19         20
    16  C    0.000000
    17  H    7.458174   0.000000
    18  H    6.564806   5.110809   0.000000
    19  H    4.296846   6.545258   2.851554   0.000000
    20  H    6.331294   7.403150   3.063680   2.544748   0.000000
    21  H    5.926478   6.489108   3.402199   3.079760   1.768161
    22  H    4.170185   7.653597   4.989994   2.974193   3.063145
    23  H    4.712212   8.426702   4.755301   2.401543   2.506189
    24  H    7.004507   9.477208   5.540473   4.287930   2.483455
    25  H    6.629922   8.783644   5.738273   4.621873   3.051960
    26  H    5.684452   9.980947   7.231313   5.176972   4.663099
    27  H    6.116383  10.596513   7.076693   4.882235   4.313754
    28  H    8.384302  11.703977   8.013182   6.522043   4.958701
    29  H    8.074270  11.150439   8.150747   6.745731   5.266209
    30  H    7.759617  12.394703   9.614004   7.584573   6.826667
    31  H    8.081443  12.894940   9.497317   7.385844   6.591979
    32  H    9.970525  13.594592  10.631700   9.089915   7.681096
    33  H   10.150753  14.619270  11.477734   9.605674   8.497341
    34  H   10.223980  14.053975  10.525739   8.923969   7.472287
    35  H    4.079783   5.133012   3.913349   3.062802   3.722135
    36  H    2.721310   4.742858   4.822765   3.712543   5.583808
    37  H    2.733326   5.573387   4.075692   2.455391   4.816162
    38  H    2.133049   7.392748   5.231244   2.653726   4.327697
    39  H    2.148655   6.776630   5.811037   3.832117   5.144638
    40  H    1.094255   7.664957   6.476337   4.168647   6.452036
    41  H    1.093077   8.456966   7.406706   4.949983   6.784688
    42  H    1.093679   7.066640   6.964725   5.015620   7.045830
                   21         22         23         24         25
    21  H    0.000000
    22  H    2.506417   0.000000
    23  H    3.068391   1.763204   0.000000
    24  H    3.049279   3.046929   2.504603   0.000000
    25  H    2.487792   2.475537   3.058640   1.769103   0.000000
    26  H    4.322867   2.465253   3.039265   3.066171   2.503497
    27  H    4.668723   3.037484   2.481599   2.504965   3.064354
    28  H    5.265075   4.632701   4.306325   2.475246   3.039257
    29  H    4.961985   4.279680   4.650157   3.042864   2.474216
    30  H    6.600104   4.969706   5.285719   4.671224   4.322115
    31  H    6.830805   5.276582   4.985341   4.322594   4.668664
    32  H    7.475997   6.578503   6.832182   5.295125   4.988254
    33  H    8.501536   7.211448   7.227930   6.070611   6.069206
    34  H    7.681175   6.814188   6.601464   4.988837   5.292493
    35  H    2.478178   2.576846   3.777469   4.971071   4.119264
    36  H    4.840244   4.287276   5.093807   7.011977   6.429534
    37  H    4.657187   4.051157   4.213481   6.391619   6.266666
    38  H    4.105819   2.224142   2.597543   4.891456   4.685697
    39  H    4.285767   2.612267   3.851357   5.657368   4.879091
    40  H    6.315637   4.686737   4.852010   7.288011   7.157161
    41  H    6.394894   4.313895   4.860674   7.080729   6.695685
    42  H    6.451782   4.900573   5.643392   7.845582   7.306460
                   26         27         28         29         30
    26  H    0.000000
    27  H    1.766241   0.000000
    28  H    3.062043   2.502265   0.000000
    29  H    2.501282   3.062524   1.765732   0.000000
    30  H    2.504621   3.064432   3.065317   2.505172   0.000000
    31  H    3.064712   2.503782   2.505320   3.065240   1.766790
    32  H    4.338566   4.685764   3.074318   2.514046   2.499845
    33  H    4.807585   4.807059   3.727278   3.727529   2.478922
    34  H    4.685626   4.338296   2.513605   3.074557   3.063327
    35  H    4.861595   5.601030   6.914289   6.330718   7.300980
    36  H    6.508010   7.083590   8.909371   8.459099   8.904193
    37  H    6.325867   6.449982   8.410341   8.315571   8.752251
    38  H    4.022756   4.260120   6.433397   6.278566   6.340731
    39  H    4.294104   5.159972   7.057309   6.451318   6.543352
    40  H    6.272309   6.420913   8.766457   8.657806   8.353175
    41  H    5.354761   5.827843   8.155626   7.824070   7.188428
    42  H    6.469327   7.071581   9.257866   8.806139   8.527787
                   31         32         33         34         35
    31  H    0.000000
    32  H    3.063310   0.000000
    33  H    2.478833   1.775387   0.000000
    34  H    2.499833   1.774248   1.775383   0.000000
    35  H    7.812383   8.724922   9.580450   9.158832   0.000000
    36  H    9.332866  10.717322  11.304169  11.077451   2.558797
    37  H    8.841974  10.588634  11.033033  10.663144   3.079049
    38  H    6.493717   8.353361   8.658263   8.470492   2.974689
    39  H    7.141468   8.504182   8.994095   8.974384   2.410576
    40  H    8.465317  10.569831  10.666063  10.658991   4.642282
    41  H    7.547679   9.513636   9.554707   9.789008   4.725062
    42  H    8.993318  10.711608  10.962009  11.087304   4.311582
                   36         37         38         39         40
    36  H    0.000000
    37  H    1.767190   0.000000
    38  H    3.065774   2.511734   0.000000
    39  H    2.508953   3.071608   1.762978   0.000000
    40  H    3.075587   2.523668   2.474954   3.059087   0.000000
    41  H    3.724678   3.738440   2.460761   2.473557   1.775630
    42  H    2.507861   3.078844   3.048724   2.502484   1.777013
                   41         42
    41  H    0.000000
    42  H    1.776920   0.000000
 Stoichiometry    C16H26
 Framework group  C1[X(C16H26)]
 Deg. of freedom   120
 Full point group                 C1      NOp   1
 Largest Abelian subgroup         C1      NOp   1
 Largest concise Abelian subgroup C1      NOp   1
                         Standard orientation:                         
 ---------------------------------------------------------------------
 Center     Atomic      Atomic             Coordinates (Angstroms)
 Number     Number       Type             X           Y           Z
 ---------------------------------------------------------------------
      1          6           0       -5.794461   -1.353845    1.383172
      2          6           0       -4.759551   -1.211284    0.787940
      3          6           0       -3.466233   -1.008697    0.058918
      4          6           0       -2.866691   -1.645183   -0.961944
      5          6           0       -1.650864   -0.744045   -0.944040
      6          6           0       -0.340723   -1.419539   -0.574298
      7          6           0        0.756518   -0.367827   -0.522532
      8          6           0        2.081517   -1.009125   -0.175261
      9          6           0        3.170811    0.047791   -0.127358
     10          6           0        4.495877   -0.602743    0.226028
     11          6           0        5.601536    0.439178    0.277215
     12          6           0        6.921036   -0.216703    0.629562
     13          6           0       -2.355624    0.009366    0.221785
     14          6           0       -2.730506    1.454218   -0.079469
     15          6           0       -1.504794    2.345828    0.091278
     16          6           0       -1.858927    3.791376   -0.175153
     17          1           0       -6.710526   -1.476106    1.908110
     18          1           0       -3.123205   -2.493930   -1.586963
     19          1           0       -1.525739   -0.147595   -1.859309
     20          1           0       -0.087276   -2.177409   -1.324128
     21          1           0       -0.416486   -1.928520    0.395194
     22          1           0        0.520074    0.390561    0.231351
     23          1           0        0.828202    0.149831   -1.487949
     24          1           0        2.329659   -1.773014   -0.921090
     25          1           0        2.002548   -1.509472    0.797418
     26          1           0        2.918002    0.813620    0.616630
     27          1           0        3.245985    0.551539   -1.098989
     28          1           0        4.738644   -1.371053   -0.518523
     29          1           0        4.411075   -1.107569    1.196436
     30          1           0        5.358271    1.205122    1.022761
     31          1           0        5.685674    0.941781   -0.693341
     32          1           0        6.858944   -0.707119    1.606318
     33          1           0        7.717006    0.530898    0.666613
     34          1           0        7.187622   -0.971643   -0.117038
     35          1           0       -1.831398   -0.054275    1.186774
     36          1           0       -3.517611    1.781627    0.609199
     37          1           0       -3.125870    1.552410   -1.098712
     38          1           0       -0.713265    2.043384   -0.601628
     39          1           0       -1.101886    2.241861    1.106492
     40          1           0       -2.226688    3.908317   -1.199101
     41          1           0       -0.978323    4.426244   -0.047495
     42          1           0       -2.636947    4.127921    0.515903
 ---------------------------------------------------------------------
 Rotational constants (GHZ):           0.8499842           0.1665033           0.1470969
 Standard basis: 6-31G(2df,p) (6D, 7F)
 There are   626 symmetry adapted cartesian basis functions of A   symmetry.
 There are   578 symmetry adapted basis functions of A   symmetry.
   578 basis functions,   886 primitive gaussians,   626 cartesian basis functions
    61 alpha electrons       61 beta electrons
       nuclear repulsion energy      1034.1380911852 Hartrees.
 NAtoms=   42 NActive=   42 NUniq=   42 SFac= 1.00D+00 NAtFMM=   60 NAOKFM=F Big=F
 Integral buffers will be    131072 words long.
 Raffenetti 2 integral format.
 Two-electron integral symmetry is turned on.
 One-electron integrals computed using PRISM.
 PrsmSu:  requested number of processors reduced to:  12 ShMem   1 Linda.
 NBasis=   578 RedAO= T EigKep=  1.04D-04  NBF=   578
 NBsUse=   578 1.00D-06 EigRej= -1.00D+00 NBFU=   578
 ExpMin= 1.61D-01 ExpMax= 3.05D+03 ExpMxC= 4.57D+02 IAcc=3 IRadAn=         5 AccDes= 0.00D+00
 Harris functional with IExCor=  402 and IRadAn=       5 diagonalized for initial guess.
 HarFok:  IExCor=  402 AccDes= 0.00D+00 IRadAn=         5 IDoV= 1 UseB2=F ITyADJ=14
 ICtDFT=  3500011 ScaDFX=  1.000000  1.000000  1.000000  1.000000
 FoFCou: FMM=F IPFlag=           0 FMFlag=      100000 FMFlg1=           0
         NFxFlg=           0 DoJE=T BraDBF=F KetDBF=T FulRan=T
         wScrn=  0.000000 ICntrl=       500 IOpCl=  0 I1Cent=   200000004 NGrid=           0
         NMat0=    1 NMatS0=      1 NMatT0=    0 NMatD0=    1 NMtDS0=    0 NMtDT0=    0
 Petite list used in FoFCou.
 Requested convergence on RMS density matrix=1.00D-08 within 128 cycles.
 Requested convergence on MAX density matrix=1.00D-06.
 Requested convergence on             energy=1.00D-06.
 No special actions if energy rises.
 Integral accuracy reduced to 1.0D-05 until final iterations.
 Initial convergence to 1.0D-05 achieved.  Increase integral accuracy.
 SCF Done:  E(RB3LYP) =  -625.301277318     A.U. after   14 cycles
            NFock= 14  Conv=0.24D-08     -V/T= 2.0085

 **********************************************************************

            Population analysis using the SCF density.

 **********************************************************************

 Orbital symmetries:
       Occupied  (A) (A) (A) (A) (A) (A) (A) (A) (A) (A) (A) (A)
                 (A) (A) (A) (A) (A) (A) (A) (A) (A) (A) (A) (A)
                 (A) (A) (A) (A) (A) (A) (A) (A) (A) (A) (A) (A)
                 (A) (A) (A) (A) (A) (A) (A) (A) (A) (A) (A) (A)
                 (A) (A) (A) (A) (A) (A) (A) (A) (A) (A) (A) (A)
                 (A)
       Virtual   (A) (A) (A) (A) (A) (A) (A) (A) (A) (A) (A) (A)
                 (A) (A) (A) (A) (A) (A) (A) (A) (A) (A) (A) (A)
                 (A) (A) (A) (A) (A) (A) (A) (A) (A) (A) (A) (A)
                 (A) (A) (A) (A) (A) (A) (A) (A) (A) (A) (A) (A)
                 (A) (A) (A) (A) (A) (A) (A) (A) (A) (A) (A) (A)
                 (A) (A) (A) (A) (A) (A) (A) (A) (A) (A) (A) (A)
                 (A) (A) (A) (A) (A) (A) (A) (A) (A) (A) (A) (A)
                 (A) (A) (A) (A) (A) (A) (A) (A) (A) (A) (A) (A)
                 (A) (A) (A) (A) (A) (A) (A) (A) (A) (A) (A) (A)
                 (A) (A) (A) (A) (A) (A) (A) (A) (A) (A) (A) (A)
                 (A) (A) (A) (A) (A) (A) (A) (A) (A) (A) (A) (A)
                 (A) (A) (A) (A) (A) (A) (A) (A) (A) (A) (A) (A)
                 (A) (A) (A) (A) (A) (A) (A) (A) (A) (A) (A) (A)
                 (A) (A) (A) (A) (A) (A) (A) (A) (A) (A) (A) (A)
                 (A) (A) (A) (A) (A) (A) (A) (A) (A) (A) (A) (A)
                 (A) (A) (A) (A) (A) (A) (A) (A) (A) (A) (A) (A)
                 (A) (A) (A) (A) (A) (A) (A) (A) (A) (A) (A) (A)
                 (A) (A) (A) (A) (A) (A) (A) (A) (A) (A) (A) (A)
                 (A) (A) (A) (A) (A) (A) (A) (A) (A) (A) (A) (A)
                 (A) (A) (A) (A) (A) (A) (A) (A) (A) (A) (A) (A)
                 (A) (A) (A) (A) (A) (A) (A) (A) (A) (A) (A) (A)
                 (A) (A) (A) (A) (A) (A) (A) (A) (A) (A) (A) (A)
                 (A) (A) (A) (A) (A) (A) (A) (A) (A) (A) (A) (A)
                 (A) (A) (A) (A) (A) (A) (A) (A) (A) (A) (A) (A)
                 (A) (A) (A) (A) (A) (A) (A) (A) (A) (A) (A) (A)
                 (A) (A) (A) (A) (A) (A) (A) (A) (A) (A) (A) (A)
                 (A) (A) (A) (A) (A) (A) (A) (A) (A) (A) (A) (A)
                 (A) (A) (A) (A) (A) (A) (A) (A) (A) (A) (A) (A)
                 (A) (A) (A) (A) (A) (A) (A) (A) (A) (A) (A) (A)
                 (A) (A) (A) (A) (A) (A) (A) (A) (A) (A) (A) (A)
                 (A) (A) (A) (A) (A) (A) (A) (A) (A) (A) (A) (A)
                 (A) (A) (A) (A) (A) (A) (A) (A) (A) (A) (A) (A)
                 (A) (A) (A) (A) (A) (A) (A) (A) (A) (A) (A) (A)
                 (A) (A) (A) (A) (A) (A) (A) (A) (A) (A) (A) (A)
                 (A) (A) (A) (A) (A) (A) (A) (A) (A) (A) (A) (A)
                 (A) (A) (A) (A) (A) (A) (A) (A) (A) (A) (A) (A)
                 (A) (A) (A) (A) (A) (A) (A) (A) (A) (A) (A) (A)
                 (A) (A) (A) (A) (A) (A) (A) (A) (A) (A) (A) (A)
                 (A) (A) (A) (A) (A) (A) (A) (A) (A) (A) (A) (A)
                 (A) (A) (A) (A) (A) (A) (A) (A) (A) (A) (A) (A)
                 (A) (A) (A) (A) (A) (A) (A) (A) (A) (A) (A) (A)
                 (A) (A) (A) (A) (A) (A) (A) (A) (A) (A) (A) (A)
                 (A) (A) (A) (A) (A) (A) (A) (A) (A) (A) (A) (A)
                 (A)
 The electronic state is 1-A.
 Alpha  occ. eigenvalues --  -10.20612 -10.18772 -10.18624 -10.18544 -10.18440
 Alpha  occ. eigenvalues --  -10.17489 -10.17400 -10.17390 -10.17369 -10.17082
 Alpha  occ. eigenvalues --  -10.17013 -10.16913 -10.16892 -10.16872 -10.16757
 Alpha  occ. eigenvalues --  -10.16573  -0.87489  -0.81316  -0.78808  -0.78389
 Alpha  occ. eigenvalues --   -0.74929  -0.73395  -0.70279  -0.68394  -0.63338
 Alpha  occ. eigenvalues --   -0.61730  -0.59665  -0.58184  -0.57480  -0.56967
 Alpha  occ. eigenvalues --   -0.54520  -0.50870  -0.49365  -0.48418  -0.46305
 Alpha  occ. eigenvalues --   -0.46042  -0.44271  -0.43146  -0.42185  -0.41700
 Alpha  occ. eigenvalues --   -0.40574  -0.39964  -0.38530  -0.38043  -0.37439
 Alpha  occ. eigenvalues --   -0.36722  -0.35309  -0.34556  -0.33692  -0.33625
 Alpha  occ. eigenvalues --   -0.33403  -0.32990  -0.32624  -0.32322  -0.32146
 Alpha  occ. eigenvalues --   -0.31065  -0.30307  -0.29767  -0.27992  -0.26598
 Alpha  occ. eigenvalues --   -0.22898
 Alpha virt. eigenvalues --   -0.01254   0.05004   0.08377   0.09053   0.09526
 Alpha virt. eigenvalues --    0.10184   0.11418   0.11847   0.12000   0.12541
 Alpha virt. eigenvalues --    0.12930   0.13221   0.14232   0.14979   0.15246
 Alpha virt. eigenvalues --    0.15475   0.16133   0.16922   0.17337   0.17992
 Alpha virt. eigenvalues --    0.18098   0.18556   0.19164   0.19675   0.19978
 Alpha virt. eigenvalues --    0.20456   0.20985   0.21240   0.21516   0.22221
 Alpha virt. eigenvalues --    0.22857   0.23058   0.23396   0.24403   0.25262
 Alpha virt. eigenvalues --    0.25679   0.26564   0.27787   0.27980   0.29829
 Alpha virt. eigenvalues --    0.32013   0.33547   0.33739   0.37924   0.41127
 Alpha virt. eigenvalues --    0.42005   0.45073   0.45923   0.47245   0.47314
 Alpha virt. eigenvalues --    0.48257   0.49029   0.50710   0.51285   0.51558
 Alpha virt. eigenvalues --    0.52017   0.52591   0.52839   0.53172   0.54061
 Alpha virt. eigenvalues --    0.54217   0.54945   0.55632   0.56156   0.57376
 Alpha virt. eigenvalues --    0.57603   0.58552   0.59703   0.59785   0.60302
 Alpha virt. eigenvalues --    0.61674   0.61943   0.62522   0.63408   0.64600
 Alpha virt. eigenvalues --    0.65525   0.66684   0.67171   0.67788   0.68719
 Alpha virt. eigenvalues --    0.69008   0.70376   0.71099   0.71707   0.72635
 Alpha virt. eigenvalues --    0.73130   0.73693   0.73873   0.73991   0.74247
 Alpha virt. eigenvalues --    0.74853   0.75005   0.75617   0.75835   0.76231
 Alpha virt. eigenvalues --    0.77207   0.77623   0.78158   0.78337   0.78527
 Alpha virt. eigenvalues --    0.79080   0.79494   0.80391   0.80691   0.80891
 Alpha virt. eigenvalues --    0.81336   0.82214   0.82423   0.83567   0.84360
 Alpha virt. eigenvalues --    0.84614   0.84827   0.85550   0.86738   0.87114
 Alpha virt. eigenvalues --    0.87869   0.87998   0.88903   0.89450   0.90495
 Alpha virt. eigenvalues --    0.91957   0.95607   0.96542   0.98661   1.01074
 Alpha virt. eigenvalues --    1.02813   1.04419   1.05109   1.07077   1.07464
 Alpha virt. eigenvalues --    1.08782   1.09250   1.10082   1.12630   1.14728
 Alpha virt. eigenvalues --    1.16681   1.16889   1.19076   1.19617   1.19901
 Alpha virt. eigenvalues --    1.20465   1.20920   1.22496   1.22681   1.23348
 Alpha virt. eigenvalues --    1.23985   1.25176   1.25560   1.26129   1.26706
 Alpha virt. eigenvalues --    1.28169   1.30802   1.33753   1.34866   1.35761
 Alpha virt. eigenvalues --    1.37404   1.37952   1.38747   1.39923   1.41127
 Alpha virt. eigenvalues --    1.41777   1.43133   1.44794   1.45395   1.46038
 Alpha virt. eigenvalues --    1.47855   1.49607   1.51921   1.53535   1.54040
 Alpha virt. eigenvalues --    1.54767   1.56136   1.56779   1.57210   1.59071
 Alpha virt. eigenvalues --    1.59799   1.60832   1.61140   1.61946   1.63936
 Alpha virt. eigenvalues --    1.65854   1.66489   1.67164   1.67915   1.69090
 Alpha virt. eigenvalues --    1.70258   1.71778   1.72379   1.73986   1.74610
 Alpha virt. eigenvalues --    1.77582   1.78369   1.80516   1.81226   1.83043
 Alpha virt. eigenvalues --    1.84188   1.85614   1.85645   1.85782   1.88705
 Alpha virt. eigenvalues --    1.89777   1.91007   1.91620   1.92511   1.93390
 Alpha virt. eigenvalues --    1.95123   1.95575   1.96211   1.97256   1.97597
 Alpha virt. eigenvalues --    2.00385   2.02245   2.08245   2.11348   2.13823
 Alpha virt. eigenvalues --    2.14320   2.15353   2.17011   2.18530   2.18782
 Alpha virt. eigenvalues --    2.19912   2.20467   2.21025   2.21545   2.24072
 Alpha virt. eigenvalues --    2.25632   2.27810   2.28924   2.30126   2.33689
 Alpha virt. eigenvalues --    2.35169   2.35711   2.35762   2.38620   2.39375
 Alpha virt. eigenvalues --    2.40467   2.40704   2.42093   2.44975   2.46493
 Alpha virt. eigenvalues --    2.47769   2.47921   2.51184   2.53320   2.54026
 Alpha virt. eigenvalues --    2.56453   2.59362   2.61233   2.61904   2.62968
 Alpha virt. eigenvalues --    2.65418   2.65856   2.67247   2.68147   2.69206
 Alpha virt. eigenvalues --    2.70907   2.71375   2.72641   2.73748   2.74471
 Alpha virt. eigenvalues --    2.74600   2.75298   2.75987   2.76355   2.77195
 Alpha virt. eigenvalues --    2.77381   2.78099   2.78797   2.79759   2.79981
 Alpha virt. eigenvalues --    2.81250   2.81593   2.82322   2.83476   2.83938
 Alpha virt. eigenvalues --    2.84131   2.85066   2.85257   2.86950   2.87540
 Alpha virt. eigenvalues --    2.87568   2.88651   2.89382   2.90539   2.90909
 Alpha virt. eigenvalues --    2.92009   2.93376   2.93979   2.94654   2.94697
 Alpha virt. eigenvalues --    2.95827   2.96306   2.97441   2.97828   2.98566
 Alpha virt. eigenvalues --    2.99182   2.99837   3.01786   3.03555   3.04646
 Alpha virt. eigenvalues --    3.05439   3.05961   3.07313   3.07964   3.08815
 Alpha virt. eigenvalues --    3.09444   3.10441   3.11845   3.13025   3.15247
 Alpha virt. eigenvalues --    3.17392   3.18595   3.19117   3.20204   3.22052
 Alpha virt. eigenvalues --    3.23568   3.24375   3.25713   3.27523   3.28125
 Alpha virt. eigenvalues --    3.29144   3.30305   3.32912   3.33749   3.34135
 Alpha virt. eigenvalues --    3.36647   3.37720   3.38565   3.39552   3.42560
 Alpha virt. eigenvalues --    3.42965   3.43148   3.44298   3.45443   3.47188
 Alpha virt. eigenvalues --    3.48000   3.48819   3.49818   3.52930   3.53702
 Alpha virt. eigenvalues --    3.55220   3.55668   3.56044   3.56855   3.57699
 Alpha virt. eigenvalues --    3.57978   3.58951   3.60199   3.60481   3.61651
 Alpha virt. eigenvalues --    3.62459   3.63392   3.63841   3.65201   3.65797
 Alpha virt. eigenvalues --    3.66132   3.69200   3.70697   3.72823   3.72888
 Alpha virt. eigenvalues --    3.74923   3.75723   3.75977   3.77691   3.79784
 Alpha virt. eigenvalues --    3.80555   3.81418   3.81785   3.81858   3.82331
 Alpha virt. eigenvalues --    3.83924   3.84822   3.87532   3.89851   3.91212
 Alpha virt. eigenvalues --    3.93465   3.95345   3.97892   3.98368   4.03925
 Alpha virt. eigenvalues --    4.05181   4.09855   4.10902   4.12492   4.16815
 Alpha virt. eigenvalues --    4.20512   4.20900   4.21208   4.23030   4.24299
 Alpha virt. eigenvalues --    4.25183   4.29233   4.31842   4.33220   4.35689
 Alpha virt. eigenvalues --    4.38064   4.38892   4.40845   4.42419   4.43070
 Alpha virt. eigenvalues --    4.44066   4.44855   4.46076   4.46968   4.48108
 Alpha virt. eigenvalues --    4.49557   4.49889   4.51211   4.52088   4.53033
 Alpha virt. eigenvalues --    4.54576   4.55399   4.55601   4.56839   4.57321
 Alpha virt. eigenvalues --    4.58385   4.58781   4.59225   4.59660   4.60679
 Alpha virt. eigenvalues --    4.61194   4.61888   4.62519   4.63386   4.64493
 Alpha virt. eigenvalues --    4.65292   4.65814   4.66767   4.67409   4.68135
 Alpha virt. eigenvalues --    4.68421   4.68876   4.69183   4.70151   4.71741
 Alpha virt. eigenvalues --    4.72693   4.73910   4.74972   4.75254   4.76457
 Alpha virt. eigenvalues --    4.76947   4.78198   4.78980   4.79822   4.80632
 Alpha virt. eigenvalues --    4.82077   4.82398   4.83856   4.84449   4.84807
 Alpha virt. eigenvalues --    4.85416   4.86477   4.87351   4.88171   4.88852
 Alpha virt. eigenvalues --    4.90769   4.91004   4.91767   4.92898   4.94946
 Alpha virt. eigenvalues --    4.95649   4.96604   4.96901   4.97617   4.98905
 Alpha virt. eigenvalues --    5.00429   5.01219   5.05578   5.08422   5.11690
 Alpha virt. eigenvalues --    5.13081   5.15739   5.20016   5.23513   5.24514
 Alpha virt. eigenvalues --    5.26900   5.28431   5.30349   5.31587   5.36199
 Alpha virt. eigenvalues --    5.39502   5.41583   5.42495   5.45770   5.46724
 Alpha virt. eigenvalues --    5.49172   5.51047   5.55401   5.56472   5.57268
 Alpha virt. eigenvalues --    5.59800   5.68142   5.68603   5.73907   5.85220
 Alpha virt. eigenvalues --    5.94203   6.19362   6.33576   6.42152   6.60712
 Alpha virt. eigenvalues --    7.33426   9.65087  10.41067  11.13324  11.20325
 Alpha virt. eigenvalues --   11.31637  11.46332  11.73265  11.89433  12.01214
 Alpha virt. eigenvalues --   12.11402  12.17736  12.28646  12.43955  12.53419
 Alpha virt. eigenvalues --   12.67441  13.13948
          Condensed to atoms (all electrons):
               1          2          3          4          5          6
     1  C    5.137359   0.932965  -0.011930  -0.006659   0.000369   0.000006
     2  C    0.932965   4.691332   0.360800  -0.054787   0.013980   0.000065
     3  C   -0.011930   0.360800   4.517096   0.650948  -0.020162  -0.007987
     4  C   -0.006659  -0.054787   0.650948   5.040205   0.338216  -0.020930
     5  C    0.000369   0.013980  -0.020162   0.338216   4.797905   0.398904
     6  C    0.000006   0.000065  -0.007987  -0.020930   0.398904   4.885844
     7  C   -0.000000   0.000003   0.000681   0.002236  -0.033028   0.415972
     8  C    0.000000  -0.000000  -0.000008  -0.000134   0.001949  -0.035503
     9  C   -0.000000   0.000000   0.000000   0.000001  -0.000141   0.002098
    10  C   -0.000000  -0.000000  -0.000000  -0.000000   0.000001  -0.000177
    11  C   -0.000000   0.000000   0.000000   0.000000  -0.000000   0.000001
    12  C    0.000000  -0.000000  -0.000000  -0.000000   0.000000  -0.000000
    13  C   -0.008863  -0.085694   0.375021  -0.023295   0.310314  -0.011427
    14  C    0.000671   0.003841  -0.014530  -0.014719  -0.003982   0.001500
    15  C   -0.000005  -0.000025   0.002550   0.000634  -0.004976   0.000637
    16  C    0.000000   0.000001  -0.000136  -0.000008   0.000131   0.000006
    17  H    0.390942  -0.018737  -0.001506  -0.000026   0.000001   0.000000
    18  H   -0.000448  -0.009326  -0.040393   0.359011  -0.049004   0.000124
    19  H   -0.000017  -0.001151  -0.010673  -0.019988   0.345278  -0.050864
    20  H    0.000000   0.000019   0.000494  -0.004367  -0.023604   0.352727
    21  H   -0.000013  -0.000371   0.000918   0.000863  -0.023526   0.353145
    22  H    0.000000   0.000002   0.000142  -0.000014  -0.003274  -0.031815
    23  H   -0.000000  -0.000000  -0.000070   0.000204  -0.002910  -0.034575
    24  H   -0.000000  -0.000000   0.000000   0.000004   0.000151  -0.003548
    25  H    0.000000   0.000000  -0.000003   0.000003   0.000299  -0.003233
    26  H    0.000000   0.000000  -0.000000   0.000000   0.000014   0.000157
    27  H    0.000000   0.000000   0.000000   0.000000   0.000009   0.000167
    28  H    0.000000   0.000000  -0.000000   0.000000   0.000000   0.000009
    29  H    0.000000   0.000000   0.000000   0.000000   0.000000   0.000009
    30  H    0.000000   0.000000  -0.000000   0.000000   0.000000   0.000000
    31  H    0.000000   0.000000   0.000000   0.000000   0.000000   0.000000
    32  H    0.000000   0.000000  -0.000000   0.000000   0.000000   0.000000
    33  H    0.000000   0.000000   0.000000   0.000000  -0.000000   0.000000
    34  H    0.000000   0.000000  -0.000000   0.000000   0.000000   0.000000
    35  H   -0.000131  -0.002247  -0.020053  -0.003857  -0.031994  -0.002278
    36  H    0.000574   0.002716  -0.005434   0.000664   0.003576  -0.000171
    37  H   -0.000126  -0.001057  -0.001101   0.003704  -0.011442   0.000499
    38  H    0.000000   0.000001  -0.000050   0.000051   0.002537  -0.001499
    39  H    0.000000   0.000002   0.000299  -0.000050  -0.000575   0.000135
    40  H    0.000000   0.000000   0.000005  -0.000003  -0.000007  -0.000000
    41  H   -0.000000  -0.000000   0.000001   0.000000   0.000002  -0.000000
    42  H   -0.000000  -0.000000   0.000001   0.000000  -0.000001  -0.000000
               7          8          9         10         11         12
     1  C   -0.000000   0.000000  -0.000000  -0.000000  -0.000000   0.000000
     2  C    0.000003  -0.000000   0.000000  -0.000000   0.000000  -0.000000
     3  C    0.000681  -0.000008   0.000000  -0.000000   0.000000  -0.000000
     4  C    0.002236  -0.000134   0.000001  -0.000000   0.000000  -0.000000
     5  C   -0.033028   0.001949  -0.000141   0.000001  -0.000000   0.000000
     6  C    0.415972  -0.035503   0.002098  -0.000177   0.000001  -0.000000
     7  C    4.792791   0.422875  -0.037724   0.002220  -0.000177   0.000001
     8  C    0.422875   4.821895   0.428507  -0.037417   0.002336  -0.000189
     9  C   -0.037724   0.428507   4.799002   0.427980  -0.034963   0.002453
    10  C    0.002220  -0.037417   0.427980   4.772107   0.431152  -0.037323
    11  C   -0.000177   0.002336  -0.034963   0.431152   4.776761   0.403708
    12  C    0.000001  -0.000189   0.002453  -0.037323   0.403708   4.955818
    13  C   -0.004702   0.000167   0.000002   0.000000   0.000000  -0.000000
    14  C    0.000836   0.000001   0.000000   0.000000  -0.000000   0.000000
    15  C   -0.003059   0.000121  -0.000008   0.000000  -0.000000  -0.000000
    16  C    0.000104  -0.000002  -0.000000  -0.000000   0.000000   0.000000
    17  H    0.000000  -0.000000   0.000000  -0.000000   0.000000   0.000000
    18  H   -0.000037   0.000002   0.000000   0.000000  -0.000000   0.000000
    19  H   -0.004346   0.000175   0.000009   0.000000   0.000000   0.000000
    20  H   -0.031292  -0.004109   0.000186   0.000010   0.000000   0.000000
    21  H   -0.028057  -0.003533   0.000171   0.000009   0.000000   0.000000
    22  H    0.365231  -0.030746  -0.002646   0.000196   0.000008   0.000000
    23  H    0.368754  -0.036513  -0.002766   0.000183   0.000007   0.000000
    24  H   -0.030513   0.361366  -0.031528  -0.003231   0.000142   0.000008
    25  H   -0.027856   0.359580  -0.031716  -0.003419   0.000132   0.000008
    26  H   -0.002913  -0.031843   0.363036  -0.031809  -0.003335   0.000119
    27  H   -0.002464  -0.032500   0.363288  -0.031954  -0.003394   0.000121
    28  H    0.000249  -0.002796  -0.032127   0.365576  -0.035885  -0.002835
    29  H    0.000262  -0.002837  -0.031968   0.365504  -0.035865  -0.002818
    30  H    0.000012   0.000200  -0.002470  -0.032810   0.370471  -0.035980
    31  H    0.000011   0.000200  -0.002485  -0.032881   0.370500  -0.035995
    32  H    0.000000   0.000006   0.000224  -0.004747  -0.029295   0.379125
    33  H   -0.000000   0.000001  -0.000193   0.003541  -0.022207   0.369746
    34  H    0.000000   0.000006   0.000223  -0.004750  -0.029321   0.379106
    35  H   -0.001556  -0.000067  -0.000003  -0.000000   0.000000  -0.000000
    36  H   -0.000023   0.000000   0.000000   0.000000  -0.000000   0.000000
    37  H   -0.000094   0.000000  -0.000000  -0.000000   0.000000  -0.000000
    38  H   -0.000336  -0.000034   0.000050   0.000000   0.000000   0.000000
    39  H   -0.000831   0.000017  -0.000004  -0.000000   0.000000  -0.000000
    40  H   -0.000006   0.000000  -0.000000  -0.000000   0.000000  -0.000000
    41  H    0.000002   0.000000   0.000000   0.000000  -0.000000   0.000000
    42  H   -0.000001   0.000000   0.000000   0.000000  -0.000000  -0.000000
              13         14         15         16         17         18
     1  C   -0.008863   0.000671  -0.000005   0.000000   0.390942  -0.000448
     2  C   -0.085694   0.003841  -0.000025   0.000001  -0.018737  -0.009326
     3  C    0.375021  -0.014530   0.002550  -0.000136  -0.001506  -0.040393
     4  C   -0.023295  -0.014719   0.000634  -0.000008  -0.000026   0.359011
     5  C    0.310314  -0.003982  -0.004976   0.000131   0.000001  -0.049004
     6  C   -0.011427   0.001500   0.000637   0.000006   0.000000   0.000124
     7  C   -0.004702   0.000836  -0.003059   0.000104   0.000000  -0.000037
     8  C    0.000167   0.000001   0.000121  -0.000002  -0.000000   0.000002
     9  C    0.000002   0.000000  -0.000008  -0.000000   0.000000   0.000000
    10  C    0.000000   0.000000   0.000000  -0.000000  -0.000000   0.000000
    11  C    0.000000  -0.000000  -0.000000   0.000000   0.000000  -0.000000
    12  C   -0.000000   0.000000  -0.000000   0.000000   0.000000   0.000000
    13  C    4.945399   0.386092  -0.030810   0.001905  -0.000022   0.015113
    14  C    0.386092   4.860951   0.419099  -0.037056   0.000001  -0.000255
    15  C   -0.030810   0.419099   4.771558   0.402664   0.000000   0.000007
    16  C    0.001905  -0.037056   0.402664   4.969604   0.000000  -0.000000
    17  H   -0.000022   0.000001   0.000000   0.000000   0.440822  -0.000002
    18  H    0.015113  -0.000255   0.000007  -0.000000  -0.000002   0.622822
    19  H   -0.028589  -0.002978  -0.000597  -0.000091  -0.000000   0.000600
    20  H    0.003511  -0.000162  -0.000026   0.000000   0.000000   0.001596
    21  H   -0.008918   0.000482  -0.000069   0.000000  -0.000000  -0.000172
    22  H    0.002833  -0.001571  -0.000335  -0.000124   0.000000   0.000000
    23  H   -0.000633   0.000124  -0.000835   0.000019  -0.000000   0.000000
    24  H   -0.000001  -0.000000  -0.000002   0.000000  -0.000000   0.000000
    25  H   -0.000009  -0.000001  -0.000005   0.000000   0.000000  -0.000000
    26  H   -0.000004   0.000001  -0.000014  -0.000000  -0.000000   0.000000
    27  H    0.000000  -0.000000  -0.000003   0.000000   0.000000  -0.000000
    28  H   -0.000000   0.000000  -0.000000  -0.000000   0.000000   0.000000
    29  H    0.000000  -0.000000   0.000000   0.000000   0.000000   0.000000
    30  H    0.000000   0.000000   0.000000  -0.000000   0.000000  -0.000000
    31  H   -0.000000   0.000000  -0.000000   0.000000   0.000000  -0.000000
    32  H   -0.000000   0.000000  -0.000000  -0.000000   0.000000   0.000000
    33  H   -0.000000   0.000000  -0.000000  -0.000000   0.000000  -0.000000
    34  H    0.000000  -0.000000   0.000000   0.000000   0.000000   0.000000
    35  H    0.344835  -0.052761  -0.005406   0.000091  -0.000001  -0.000696
    36  H   -0.022613   0.355523  -0.034659  -0.003900   0.000003   0.000023
    37  H   -0.021045   0.355160  -0.033178  -0.003014  -0.000001  -0.000115
    38  H   -0.002185  -0.032351   0.372322  -0.034387  -0.000000   0.000002
    39  H   -0.002644  -0.033539   0.373807  -0.038531  -0.000000  -0.000000
    40  H    0.000310  -0.004589  -0.026938   0.376818   0.000000   0.000000
    41  H   -0.000162   0.003683  -0.022161   0.370760  -0.000000   0.000000
    42  H    0.000176  -0.004771  -0.028158   0.377964   0.000000  -0.000000
              19         20         21         22         23         24
     1  C   -0.000017   0.000000  -0.000013   0.000000  -0.000000  -0.000000
     2  C   -0.001151   0.000019  -0.000371   0.000002  -0.000000  -0.000000
     3  C   -0.010673   0.000494   0.000918   0.000142  -0.000070   0.000000
     4  C   -0.019988  -0.004367   0.000863  -0.000014   0.000204   0.000004
     5  C    0.345278  -0.023604  -0.023526  -0.003274  -0.002910   0.000151
     6  C   -0.050864   0.352727   0.353145  -0.031815  -0.034575  -0.003548
     7  C   -0.004346  -0.031292  -0.028057   0.365231   0.368754  -0.030513
     8  C    0.000175  -0.004109  -0.003533  -0.030746  -0.036513   0.361366
     9  C    0.000009   0.000186   0.000171  -0.002646  -0.002766  -0.031528
    10  C    0.000000   0.000010   0.000009   0.000196   0.000183  -0.003231
    11  C    0.000000   0.000000   0.000000   0.000008   0.000007   0.000142
    12  C    0.000000   0.000000   0.000000   0.000000   0.000000   0.000008
    13  C   -0.028589   0.003511  -0.008918   0.002833  -0.000633  -0.000001
    14  C   -0.002978  -0.000162   0.000482  -0.001571   0.000124  -0.000000
    15  C   -0.000597  -0.000026  -0.000069  -0.000335  -0.000835  -0.000002
    16  C   -0.000091   0.000000   0.000000  -0.000124   0.000019   0.000000
    17  H   -0.000000   0.000000  -0.000000   0.000000  -0.000000  -0.000000
    18  H    0.000600   0.001596  -0.000172   0.000000   0.000000   0.000000
    19  H    0.684626  -0.002716   0.006700  -0.000628   0.005970   0.000003
    20  H   -0.002716   0.655620  -0.042025   0.006375  -0.005443   0.005349
    21  H    0.006700  -0.042025   0.641194  -0.006152   0.006112  -0.000480
    22  H   -0.000628   0.006375  -0.006152   0.635721  -0.046040   0.006251
    23  H    0.005970  -0.005443   0.006112  -0.046040   0.652097  -0.005796
    24  H    0.000003   0.005349  -0.000480   0.006251  -0.005796   0.650542
    25  H    0.000009  -0.000450   0.004892  -0.006285   0.006380  -0.042996
    26  H    0.000001   0.000007   0.000007   0.005370  -0.000482   0.006273
    27  H   -0.000004   0.000007   0.000007  -0.000572   0.005292  -0.005610
    28  H    0.000000  -0.000003   0.000001   0.000009   0.000006   0.005210
    29  H   -0.000000   0.000001  -0.000003   0.000004   0.000009  -0.000468
    30  H   -0.000000  -0.000000   0.000000  -0.000004   0.000001   0.000007
    31  H    0.000000   0.000000  -0.000000   0.000001  -0.000003   0.000006
    32  H    0.000000  -0.000000  -0.000000   0.000000  -0.000000   0.000001
    33  H   -0.000000   0.000000   0.000000   0.000000   0.000000   0.000000
    34  H   -0.000000  -0.000000  -0.000000  -0.000000   0.000000  -0.000003
    35  H    0.003598  -0.000043   0.003173   0.001908   0.000081  -0.000000
    36  H    0.000010   0.000003  -0.000004   0.000036   0.000000  -0.000000
    37  H    0.003678  -0.000005   0.000010   0.000075   0.000002  -0.000000
    38  H    0.001601   0.000034   0.000069   0.002699   0.003207   0.000002
    39  H    0.000077   0.000000   0.000002   0.003140  -0.000038   0.000000
    40  H    0.000026  -0.000000   0.000000   0.000015   0.000001  -0.000000
    41  H    0.000003   0.000000   0.000000   0.000011  -0.000000   0.000000
    42  H    0.000000  -0.000000  -0.000000   0.000001  -0.000000  -0.000000
              25         26         27         28         29         30
     1  C    0.000000   0.000000   0.000000   0.000000   0.000000   0.000000
     2  C    0.000000   0.000000   0.000000   0.000000   0.000000   0.000000
     3  C   -0.000003  -0.000000   0.000000  -0.000000   0.000000  -0.000000
     4  C    0.000003   0.000000   0.000000   0.000000   0.000000   0.000000
     5  C    0.000299   0.000014   0.000009   0.000000   0.000000   0.000000
     6  C   -0.003233   0.000157   0.000167   0.000009   0.000009   0.000000
     7  C   -0.027856  -0.002913  -0.002464   0.000249   0.000262   0.000012
     8  C    0.359580  -0.031843  -0.032500  -0.002796  -0.002837   0.000200
     9  C   -0.031716   0.363036   0.363288  -0.032127  -0.031968  -0.002470
    10  C   -0.003419  -0.031809  -0.031954   0.365576   0.365504  -0.032810
    11  C    0.000132  -0.003335  -0.003394  -0.035885  -0.035865   0.370471
    12  C    0.000008   0.000119   0.000121  -0.002835  -0.002818  -0.035980
    13  C   -0.000009  -0.000004   0.000000  -0.000000   0.000000   0.000000
    14  C   -0.000001   0.000001  -0.000000   0.000000  -0.000000   0.000000
    15  C   -0.000005  -0.000014  -0.000003  -0.000000   0.000000   0.000000
    16  C    0.000000  -0.000000   0.000000  -0.000000   0.000000  -0.000000
    17  H    0.000000  -0.000000   0.000000   0.000000   0.000000   0.000000
    18  H   -0.000000   0.000000  -0.000000   0.000000   0.000000  -0.000000
    19  H    0.000009   0.000001  -0.000004   0.000000  -0.000000  -0.000000
    20  H   -0.000450   0.000007   0.000007  -0.000003   0.000001  -0.000000
    21  H    0.004892   0.000007   0.000007   0.000001  -0.000003   0.000000
    22  H   -0.006285   0.005370  -0.000572   0.000009   0.000004  -0.000004
    23  H    0.006380  -0.000482   0.005292   0.000006   0.000009   0.000001
    24  H   -0.042996   0.006273  -0.005610   0.005210  -0.000468   0.000007
    25  H    0.649117  -0.005615   0.006283  -0.000476   0.005237   0.000006
    26  H   -0.005615   0.649998  -0.043485   0.006341  -0.005681   0.005138
    27  H    0.006283  -0.043485   0.650897  -0.005674   0.006343  -0.000482
    28  H   -0.000476   0.006341  -0.005674   0.651593  -0.043208   0.006310
    29  H    0.005237  -0.005681   0.006343  -0.043208   0.651342  -0.005741
    30  H    0.000006   0.005138  -0.000482   0.006310  -0.005741   0.647859
    31  H    0.000007  -0.000483   0.005147  -0.005735   0.006311  -0.042053
    32  H   -0.000003   0.000005   0.000010  -0.000427   0.005237  -0.004600
    33  H    0.000000   0.000004   0.000004  -0.000044  -0.000045  -0.002380
    34  H    0.000001   0.000010   0.000005   0.005244  -0.000428   0.005788
    35  H    0.000036  -0.000001   0.000000  -0.000000  -0.000000   0.000000
    36  H   -0.000000  -0.000000  -0.000000  -0.000000  -0.000000  -0.000000
    37  H    0.000000   0.000000   0.000000   0.000000  -0.000000   0.000000
    38  H    0.000016   0.000021   0.000018   0.000000   0.000000   0.000000
    39  H    0.000000   0.000014  -0.000000   0.000000  -0.000000   0.000000
    40  H    0.000000  -0.000000   0.000000  -0.000000  -0.000000   0.000000
    41  H    0.000000   0.000000   0.000000   0.000000   0.000000   0.000000
    42  H   -0.000000  -0.000000  -0.000000  -0.000000  -0.000000   0.000000
              31         32         33         34         35         36
     1  C    0.000000   0.000000   0.000000   0.000000  -0.000131   0.000574
     2  C    0.000000   0.000000   0.000000   0.000000  -0.002247   0.002716
     3  C    0.000000  -0.000000   0.000000  -0.000000  -0.020053  -0.005434
     4  C    0.000000   0.000000   0.000000   0.000000  -0.003857   0.000664
     5  C    0.000000   0.000000  -0.000000   0.000000  -0.031994   0.003576
     6  C    0.000000   0.000000   0.000000   0.000000  -0.002278  -0.000171
     7  C    0.000011   0.000000  -0.000000   0.000000  -0.001556  -0.000023
     8  C    0.000200   0.000006   0.000001   0.000006  -0.000067   0.000000
     9  C   -0.002485   0.000224  -0.000193   0.000223  -0.000003   0.000000
    10  C   -0.032881  -0.004747   0.003541  -0.004750  -0.000000   0.000000
    11  C    0.370500  -0.029295  -0.022207  -0.029321   0.000000  -0.000000
    12  C   -0.035995   0.379125   0.369746   0.379106  -0.000000   0.000000
    13  C   -0.000000  -0.000000  -0.000000   0.000000   0.344835  -0.022613
    14  C    0.000000   0.000000   0.000000  -0.000000  -0.052761   0.355523
    15  C   -0.000000  -0.000000  -0.000000   0.000000  -0.005406  -0.034659
    16  C    0.000000  -0.000000  -0.000000   0.000000   0.000091  -0.003900
    17  H    0.000000   0.000000   0.000000   0.000000  -0.000001   0.000003
    18  H   -0.000000   0.000000  -0.000000   0.000000  -0.000696   0.000023
    19  H    0.000000   0.000000  -0.000000  -0.000000   0.003598   0.000010
    20  H    0.000000  -0.000000   0.000000  -0.000000  -0.000043   0.000003
    21  H   -0.000000  -0.000000   0.000000  -0.000000   0.003173  -0.000004
    22  H    0.000001   0.000000   0.000000  -0.000000   0.001908   0.000036
[...]
 221,0.00000650,-0.00001813,0.00002272,-0.00000608,0.00001134,-0.000009
 22,-0.00055223,-0.00045167,0.00027418,-0.00056773,-0.00041809,-0.00049
 274,0.00743319,0.00175504,-0.04837405,0.02603455,0.01384643,-0.0026146
 6,0.00000121,-0.00000166,-0.00000026,0.00002330,-0.00000117,0.00000171
 ,-0.00005714,0.00001953,0.00001643,0.00004659,-0.00009839,0.00000749,0
 .00005485,-0.00002153,0.00000856,-0.00003823,-0.00016435,-0.00055435,0
 .00013452,0.00014109,0.00000680,-0.00006969,-0.00003297,0.00008724,-0.
 00001775,0.00000361,0.00006691,0.00000028,-0.00001416,-0.00001489,-0.0
 0000009,0.00000214,-0.00000480,-0.00000509,-0.00000273,0.00000728,-0.0
 0000115,0.00000042,0.00000551,-0.00000061,0.00000276,-0.00000119,-0.00
 000320,0.00000118,-0.00000287,0.00000129,-0.00000156,0.00000156,-0.000
 00949,0.00000474,0.00000638,0.00000051,-0.00000251,0.00000153,-0.00007
 005,-0.00005421,-0.00000366,0.00009967,0.00056574,0.00076560,0.0003502
 3,0.00049607,0.00014900,-0.00935261,-0.00698097,0.05227050,-0.00000029
 ,-0.00000992,-0.00001928,0.00000673,-0.00001361,-0.00000664,0.00000339
 ,-0.00009420,0.00003796,-0.00006912,-0.00011090,0.00000310,-0.00008829
 ,-0.00013155,-0.00031630,0.00012431,0.00006681,-0.00001561,-0.00026075
 ,-0.00038540,-0.00021694,0.00005649,0.00012684,0.00007050,-0.00003816,
 -0.00005728,-0.00001571,0.00000169,0.00001459,0.00001925,-0.00000896,-
 0.00000091,-0.00000823,0.00000177,-0.00000252,0.00000604,0.00074042,-0
 .00082396,0.00091525,0.00098755,0.01639694,0.01975470,-0.05126404,-0.0
 1485365,-0.01857807,-0.00006377,0.00130882,0.00208518,0.00000270,0.000
 00850,0.00000401,0.00000045,-0.00003196,0.00002081,-0.00000401,0.00003
 946,0.00011480,-0.00002837,0.00004543,-0.00000294,0.00000225,-0.000000
 19,0.00002003,0.00007968,0.00011418,0.00013912,0.00009088,0.00003820,0
 .00005969,0.00003349,0.00002001,-0.00005007,-0.00001238,-0.00000820,0.
 00001040,0.00000369,0.00003532,0.00001843,0.00000613,0.00000121,0.0000
 0255,0.00000891,0.00000622,-0.00001022,-0.00000059,-0.00000220,-0.0000
 0313,0.00000120,0.00000544,0.00000277,0.00000104,-0.00000079,0.0000010
 8,-0.00000094,0.00000036,-0.00000153,0.00000451,-0.00000310,-0.0000027
 7,0.00000154,0.00000311,-0.00000232,0.00015380,-0.00013695,-0.00055133
 ,0.00105546,-0.00081432,0.00033697,-0.00285507,0.00402247,-0.00001206,
 -0.00289992,-0.01733249,-0.02391674,0.05298262,-0.00000546,-0.00001393
 ,0.00003787,-0.00002216,0.00004475,-0.00004767,0.00000170,0.00016210,0
 .00045445,0.00006262,0.00010872,0.00021572,-0.00006847,-0.00013017,-0.
 00006856,0.00013190,-0.00002648,-0.00002154,-0.00021653,-0.00055385,-0
 .00010787,0.00003355,0.00016969,0.00006891,-0.00003897,-0.00003609,-0.
 00000953,-0.00000010,0.00000635,0.00001571,-0.00000786,0.00000436,-0.0
 0000918,0.00000184,-0.00000449,0.00000502,-0.00077135,0.00073358,-0.00
 196947,-0.00147572,-0.01661652,-0.01916732,-0.01437758,-0.13312098,-0.
 11847638,0.00196672,0.01097182,0.01742523,-0.00000861,-0.00000348,-0.0
 0000715,0.00002290,0.00001841,-0.00011170,0.00019255,0.00017002,0.0000
 7735,-0.00005110,0.00006494,0.00001774,-0.00001839,-0.00002012,0.00006
 339,-0.00005237,0.00018020,0.00013570,0.00011155,0.00009305,0.00004888
 ,0.00005448,0.00002380,-0.00005968,-0.00001042,-0.00001701,0.00001441,
 -0.00000312,0.00003181,0.00000802,0.00001130,0.00000396,0.00000545,0.0
 0000789,0.00000478,-0.00000709,-0.00000031,-0.00000226,0.00000126,0.00
 000008,0.00000266,0.00000050,0.00000323,-0.00000046,0.00000252,-0.0000
 0096,0.00000051,-0.00000019,0.00000550,-0.00000331,-0.00000326,0.00000
 101,0.00000276,-0.00000154,0.00010053,-0.00003720,0.00123897,-0.000036
 10,0.00116241,0.00047840,0.00409104,-0.00260165,0.00076162,-0.00147517
 ,-0.00871753,-0.01124049,0.01197054,0.14764245,0.00001700,0.00000875,0
 .00001959,-0.00002557,-0.00000622,-0.00001060,0.00009080,0.00001312,0.
 00031049,-0.00000478,0.00012057,-0.00003269,-0.00005199,0.00011212,-0.
 00000554,0.00006287,-0.00002215,-0.00000694,-0.00006989,-0.00018736,0.
 00000992,0.00001894,0.00005315,0.00002327,-0.00002752,-0.00004870,-0.0
 0000440,-0.00000279,0.00001109,0.00000824,-0.00000985,-0.00000675,-0.0
 0000447,-0.00000017,-0.00000023,0.00000351,0.00002334,0.00056662,0.000
 81106,0.00022574,0.00020336,-0.00015299,-0.01788467,-0.11803410,-0.207
 39429,-0.00297829,-0.01544902,-0.02429645,-0.00000330,-0.00000478,-0.0
 0000833,-0.00000972,-0.00000193,-0.00008709,0.00003998,-0.00000602,0.0
 0000206,-0.00002928,0.00002633,0.00000563,-0.00000765,-0.00000105,0.00
 001162,0.00002635,0.00008386,0.00000505,0.00004845,0.00005699,0.000007
 13,0.00002032,0.00001718,-0.00002359,-0.00000498,-0.00000942,0.0000062
 4,0.00000549,0.00002988,0.00000865,0.00000452,0.00000246,0.00000312,0.
 00000823,0.00000750,-0.00000724,-0.00000004,-0.00000277,0.00000075,0.0
 0000146,0.00000755,0.00000150,0.00000208,-0.00000016,0.00000231,-0.000
 00040,-0.00000041,0.00000025,0.00000266,-0.00000282,-0.00000175,0.0000
 0241,0.00000395,-0.00000230,-0.00001134,-0.00034823,0.00049751,0.00040
 242,-0.00006499,0.00015221,0.00008156,0.00063705,0.00084316,-0.0003335
 6,0.00050731,0.00062485,0.01968414,0.12781247,0.23031762,-0.00000208,-
 0.00000093,0.00001524,-0.00000042,0.00000063,-0.00000298,-0.00001844,0
 .00001496,-0.00000014,0.00000250,0.00000153,0.00000013,0.00003191,0.00
 001416,0.00004401,-0.00000567,-0.00001131,-0.00001314,0.00002953,0.000
 01279,0.00003175,-0.00001166,-0.00000034,-0.00000876,0.00000753,0.0000
 0633,0.00000965,-0.00000238,-0.00000053,-0.00000230,0.00000228,0.00000
 140,0.00000328,-0.00000036,-0.00000028,-0.00000040,-0.00004023,0.00014
 376,0.00003418,-0.00000731,-0.00064420,-0.00061215,-0.00041113,0.00170
 795,0.00264354,-0.05070684,-0.01588574,-0.02300687,-0.00000346,-0.0000
 0111,-0.00000645,-0.00000222,-0.00000118,-0.00000707,-0.00000793,-0.00
 001259,-0.00002140,-0.00000602,-0.00000388,0.00000559,-0.00000292,0.00
 000452,-0.00000760,0.00000134,-0.00000393,-0.00000477,-0.00001771,-0.0
 0000907,-0.00001059,-0.00000025,-0.00000162,0.00000277,0.00000109,0.00
 000075,-0.00000641,-0.00000120,-0.00000329,-0.00000182,-0.00000467,-0.
 00000056,-0.00000275,-0.00000047,-0.00000077,0.00000129,-0.00000004,0.
 00000015,-0.00000203,-0.00000021,-0.00000098,-0.00000047,-0.00000143,-
 0.00000006,-0.00000137,-0.00000034,-0.00000006,-0.00000093,-0.00000026
 ,0.00000039,0.00000042,-0.00000010,-0.00000021,0.00000051,-0.00002737,
 0.00000520,0.00005696,0.00001269,-0.00007097,-0.00008956,0.00018136,0.
 00023038,-0.00004027,0.00018904,0.00061734,0.00013596,0.00094248,-0.00
 030881,0.00064318,0.04972559,-0.00001553,0.00000687,0.00000267,0.00000
 852,0.00000482,0.00000380,0.00000614,-0.00000342,-0.00013123,-0.000015
 65,0.00000139,-0.00001479,0.00000795,-0.00001710,-0.00000385,-0.000010
 52,0.00000844,0.00000559,0.00001015,0.00003882,0.00000306,-0.00000180,
 -0.00001588,-0.00000339,-0.00000306,-0.00000612,-0.00000299,-0.0000005
 0,0.,0.00000125,-0.00000307,-0.00000363,-0.00000120,0.00000005,0.00000
 006,0.00000094,-0.00014871,0.00013494,0.00023957,-0.00034920,0.0016986
 5,0.00033881,0.00273242,0.01108167,0.01671460,-0.01593325,-0.13086109,
 -0.12085863,0.00000479,-0.00000385,-0.00000270,0.00000016,0.00000597,0
 .00002268,-0.00001908,-0.00001485,-0.00000500,0.00000807,-0.00000082,-
 0.00000638,0.00000160,0.00000028,-0.00000660,0.00001749,-0.00000560,-0
 .00001231,-0.00000961,-0.00000932,-0.00000290,-0.00000356,0.00000223,0
 .00000343,0.00000083,0.00000079,-0.00000059,0.00000338,0.00000307,0.00
 000164,-0.00000021,-0.00000090,0.00000056,0.00000135,0.00000251,-0.000
 00134,0.00000012,-0.00000047,0.00000005,0.00000117,0.00000284,0.000000
 62,0.00000033,-0.00000018,0.00000064,-0.00000015,-0.00000023,0.0000000
 7,0.00000025,-0.00000090,-0.00000033,0.00000087,0.00000177,-0.00000084
 ,0.00002741,-0.00014082,-0.00011851,0.00006625,-0.00008896,-0.00005959
 ,-0.00013823,-0.00007475,-0.00039280,0.00015742,0.00096295,-0.00092124
 ,0.00013146,-0.00147096,0.00405660,0.01776069,0.14043037,-0.00003028,0
 .00000307,0.00001673,0.00001810,0.00002366,-0.00001420,-0.00000731,0.0
 0006101,0.00004779,-0.00000023,0.00004014,0.00001691,-0.00006323,-0.00
 000990,-0.00006973,0.00005551,-0.00001217,0.00001613,-0.00006041,-0.00
 016240,-0.00004801,-0.00000076,0.00005423,0.00002419,-0.00002268,-0.00
 002134,-0.00001232,-0.00000042,0.00000067,0.00001116,-0.00000722,0.000
 00105,-0.00000847,0.00000154,-0.00000315,0.00000398,0.00011370,0.00028
 661,0.00020505,0.00061011,-0.00177939,0.00082289,-0.00319453,-0.015744
 20,-0.02424016,-0.02291623,-0.11996934,-0.21874778,0.00000544,-0.00000
 370,-0.00000711,-0.00000188,0.00002294,-0.00002248,0.00004065,0.000008
 92,0.00000585,-0.00000722,0.00003133,-0.00000576,-0.00000807,-0.000002
 67,0.00001581,0.00000349,0.00007038,0.00006627,0.00001370,0.00001108,0
 .00000614,0.00002312,0.00001474,-0.00002501,-0.00000005,-0.00000686,0.
 00000002,0.00000079,0.00001886,0.00000599,0.00000559,0.00000137,0.0000
 0452,0.00000572,0.00000486,-0.00000534,0.00000037,-0.00000158,0.000001
 11,0.00000058,0.00000333,0.00000063,0.00000290,-0.00000025,0.00000271,
 -0.00000061,0.00000023,0.00000031,0.00000411,-0.00000297,-0.00000266,0
 .00000114,0.00000293,-0.00000165,0.00002700,-0.00008561,0.00034787,-0.
 00006836,0.00010088,0.00000579,-0.00056374,0.00110414,0.00040680,0.000
 40028,-0.00013495,0.00118048,0.00061181,0.00417243,-0.00383051,0.02469
 571,0.13028490,0.24201422,-0.00001687,0.00001533,-0.00001525,-0.000008
 23,0.00001698,0.00000284,0.00002334,-0.00004374,0.00002025,0.00001716,
 0.00001295,-0.00001909,-0.00005133,0.00002036,-0.00009991,-0.00000145,
 0.00002481,0.00001690,-0.00000040,-0.00000582,-0.00001467,-0.00000819,
 0.00000419,0.00001529,0.00000253,0.00001931,-0.00000909,0.00000068,-0.
 00000869,0.00000733,0.00000115,0.00001105,-0.00000609,0.00000222,-0.00
 000454,0.00000232,0.00035363,-0.00004462,0.00040155,0.00059849,-0.0003
 2434,-0.00001540,0.00223934,-0.00370091,0.00016429,-0.18133071,0.13154
 373,-0.00078241,0.00001070,-0.00000594,0.00000590,-0.00001161,0.000021
 49,0.00001454,-0.00000154,-0.00001008,-0.00000455,0.00001892,0.0000083
 1,-0.00001583,-0.00000250,-0.00000201,-0.00000463,0.00000221,0.0000190
 5,0.00001728,-0.00000879,-0.00000960,-0.00000343,0.00000632,0.,-0.0000
 0606,0.00000184,0.00000011,-0.00000662,-0.00000233,-0.00000527,0.00000
 031,-0.00000074,-0.00000138,0.00000075,-0.00000032,-0.00000196,0.,0.00
 000097,0.00000066,-0.00000157,-0.00000136,-0.00000422,-0.00000063,0.00
 000072,-0.00000003,0.00000061,-0.00000075,0.00000111,-0.00000079,0.000
 00426,-0.00000168,-0.00000220,-0.00000136,-0.00000045,0.00000030,-0.00
 000417,0.00000465,-0.00003403,0.00053075,-0.00015801,0.00015507,-0.000
 08370,0.00003547,0.00009543,0.00067652,0.00014107,-0.00048773,0.000014
 73,0.00007575,-0.00048366,0.00280178,-0.00378218,0.00034946,0.19420533
 ,0.00010810,0.00000593,0.00000201,-0.00008120,-0.00007536,-0.00000058,
 -0.00010523,-0.00009971,0.00039860,0.00005105,-0.00010502,0.00002163,0
 .00006933,0.00007945,0.00002532,0.00003274,-0.00002915,-0.00005710,0.0
 0001899,-0.00002403,0.00005432,-0.00000502,0.00001573,-0.00002691,0.00
 000867,-0.00003196,0.00003563,-0.00001078,0.00001755,-0.00000785,0.000
 00176,-0.00001060,0.00001410,-0.00000458,0.00000497,-0.00000067,0.0012
 1239,-0.00027441,-0.00046949,-0.00176856,-0.00107909,0.00408991,0.0127
 6125,-0.01293565,-0.00125737,0.13090996,-0.17508064,0.00025334,-0.0000
 2301,0.00000265,-0.00000043,-0.00001475,-0.00005288,-0.00006765,-0.000
 00782,-0.00000040,-0.00001849,-0.00004087,-0.00000580,0.00002728,-0.00
 000925,0.00001576,-0.00000105,0.00003043,-0.00000264,0.00000219,-0.000
 01840,-0.00002104,-0.00001734,-0.00000305,0.00000626,0.00000228,-0.000
 00466,0.00000283,-0.00000881,0.00000806,0.00001538,0.00001028,-0.00001
 853,-0.00000821,-0.00001091,0.00000407,0.00000423,-0.00000281,-0.00000
 094,-0.00000041,-0.00000843,0.00000257,0.00000650,0.00000333,-0.000007
 23,-0.00000245,-0.00000486,0.00000010,-0.00000086,-0.00000354,-0.00000
 325,0.00000134,0.00000275,0.00000242,0.00000123,-0.00000100,0.00000637
 ,-0.00001451,0.00010596,0.00017856,0.00014033,0.00000344,-0.00030226,0
 .00043668,0.00000435,-0.00034487,0.00015621,-0.00058363,-0.00020058,0.
 00094141,0.00006801,0.01318465,-0.01290096,0.00042257,-0.14459819,0.18
 955142,-0.00011059,-0.00001292,0.00001191,0.00010490,0.00007255,-0.000
 00939,0.00008535,0.00017890,-0.00051992,-0.00005808,0.00012764,-0.0000
 3167,-0.00009082,-0.00004906,-0.00009065,-0.00002243,0.00001961,0.0000
 5080,0.00001165,0.00006209,-0.00002047,0.00000250,-0.00002560,0.000013
 00,0.00000933,0.00003753,-0.00001566,0.00000611,-0.00001485,0.00000175
 ,0.00000462,0.00001061,-0.00000476,0.00000179,-0.00000318,-0.00000095,
 -0.00128486,0.00117590,0.00068319,0.00188483,0.00220868,-0.00511044,-0
 .02157031,0.02000237,0.00002235,0.00005830,-0.00057013,-0.04635464,0.0
 0001766,-0.00000093,-0.00000407,0.00002376,0.00005828,0.00009350,0.000
 03250,0.00000330,0.00001525,0.00003300,-0.00000318,-0.00002310,0.00000
 287,-0.00000749,0.00000217,-0.00002926,-0.00001482,-0.00001140,0.00000
 785,0.00000610,0.00000603,-0.00000291,-0.00000946,0.00000453,0.0000022
 3,0.00000119,0.00000293,-0.00000630,-0.00001823,-0.00000891,0.00000639
 ,0.00000209,0.00000314,-0.00000503,-0.00000508,0.00000442,0.00000010,0
 .00000155,0.00000281,-0.00000189,-0.00000702,-0.00000214,0.00000195,0.
 00000057,0.00000087,0.00000015,0.00000077,0.00000102,0.00000126,0.0000
 0033,-0.00000074,-0.00000213,-0.00000232,0.00000150,-0.00001586,-0.000
 10078,0.00002806,0.00015673,-0.00027475,-0.00007966,0.00007852,0.00033
 341,0.00021456,0.00034618,-0.00066184,0.00111017,-0.00031731,-0.000863
 90,0.00099968,0.02000758,-0.01790033,0.00038813,0.00028121,-0.00287817
 ,0.04967486,0.00005793,0.00000986,-0.00000242,-0.00003164,-0.00001893,
 -0.00000436,-0.00001387,-0.00002221,0.00006227,0.00001462,0.00001231,0
 .00000545,-0.00007392,0.00007447,-0.00010204,-0.00001836,0.00002196,0.
 00000511,-0.00000774,0.00003414,-0.00000773,0.00001345,-0.00002061,-0.
 00001249,-0.00000284,-0.00000045,-0.00000474,0.00000422,0.00000223,-0.
 00001073,0.00000008,-0.00000766,0.00000232,-0.00000029,0.00000390,-0.0
 0000464,0.00033520,0.00006914,0.00002242,0.00090560,0.00055250,-0.0002
 2579,-0.00208353,-0.00068689,0.00059593,-0.25253903,-0.10467429,0.0097
 1476,-0.00001144,-0.00000635,0.00000339,-0.00000551,-0.00001167,-0.000
 00543,0.00000734,0.00000916,0.00001806,0.00000268,-0.00001395,-0.00000
 181,0.00000984,-0.00000514,0.00001096,-0.00001407,-0.00003374,-0.00003
 957,0.00002850,0.00002123,0.00001659,-0.00001175,-0.00000650,0.0000121
 2,0.00000009,-0.00000039,0.00001749,-0.00000328,-0.00000729,-0.0000082
 8,0.00001165,0.00000616,0.00000571,-0.00000363,-0.00000208,0.00000316,
 0.00000001,-0.00000007,0.00000845,-0.00000078,-0.00000003,-0.00000217,
 0.00000324,0.00000199,0.00000212,0.00000111,-0.00000097,0.00000392,-0.
 00000529,0.00000270,0.00000209,-0.00000047,-0.00000152,0.00000102,-0.0
 0001562,-0.00001089,0.00000350,0.00048318,-0.00053243,0.00006251,-0.00
 000317,-0.00000642,0.00001355,0.00144823,0.00034990,0.00055517,0.00028
 673,0.00010289,0.00052752,-0.00264601,-0.00051455,-0.00003762,-0.01997
 726,-0.01101849,0.00034847,0.27385582,0.00005908,0.00002795,-0.0000226
 6,-0.00003590,-0.00001379,0.00000239,0.00003420,-0.00006375,0.00001681
 ,0.00002256,0.00000321,0.00001938,-0.00000417,0.00006180,-0.00021667,-
 0.00000610,0.00006360,0.00001464,-0.00002866,0.00009307,0.00001705,0.0
 0003190,-0.00005111,-0.00001013,0.00000619,-0.00000435,0.00000075,0.00
 000091,0.00000395,-0.00000829,0.00000193,-0.00000557,0.00000496,-0.000
 00151,0.00000359,-0.00000306,0.00027386,0.00015251,0.00011133,-0.00159
 109,0.00070446,-0.00087360,-0.01671184,-0.00958735,0.00088478,-0.10416
 725,-0.10063465,0.00440974,-0.00000071,-0.00000987,0.00000994,0.000007
 86,0.00000191,0.00002092,0.00004745,0.00004977,0.00004959,0.00002123,-
 0.00001907,-0.00001217,0.00000620,-0.00000875,0.00001841,-0.00003250,-
 0.00007317,-0.00005798,0.00004855,0.00002898,0.00001967,-0.00001897,-0
 .00000780,0.00001892,-0.00000538,0.00000239,0.00001969,0.00000119,-0.0
 0000385,-0.00000255,0.00000352,-0.00000012,0.00000034,-0.00000196,-0.0
 0000096,0.00000163,-0.00000045,0.00000046,0.00000283,0.,0.00000077,0.0
 0000002,-0.00000051,0.00000007,-0.00000033,0.00000072,-0.00000040,0.00
 000107,-0.00000345,0.00000182,0.00000202,-0.00000003,-0.00000112,0.000
 00034,-0.00002585,-0.00000136,-0.00004829,0.00088907,-0.00011490,0.000
 23790,0.00000993,-0.00007199,0.00001932,0.00019011,-0.00128315,0.00359
 255,0.00065879,0.00083197,-0.00020883,-0.01674517,-0.00876762,0.001194
 17,0.02073729,0.01134994,-0.00087946,0.11632898,0.10734245,-0.00003378
 ,-0.00001527,-0.00000140,0.00001203,0.00001508,-0.00000535,-0.00006666
 ,0.00002534,0.00001956,-0.00001378,-0.00000925,-0.00002736,-0.00003448
 ,-0.00006167,0.00011401,0.00002715,-0.00005208,0.00000992,0.00002928,-
 0.00010392,-0.00006315,-0.00003464,0.00006489,0.00001996,-0.00000806,0
 .00001057,-0.00000851,0.00000055,-0.00000669,0.00001236,-0.00000150,0.
 00000928,-0.00000878,0.00000192,-0.00000480,0.00000376,0.00005087,-0.0
 0021454,-0.00003937,0.00103532,-0.00112567,0.00099255,0.02628560,0.014
 01723,-0.00205442,0.00901873,0.00407425,-0.04723058,0.00000392,0.00000
 538,0.00000219,-0.00001399,-0.00000056,-0.00001488,-0.00004215,-0.0000
 6207,-0.00005758,-0.00001337,0.00002588,0.00000090,-0.00001011,0.00001
 194,-0.00001584,0.00005463,0.00010035,0.00009095,-0.00005912,-0.000048
 01,-0.00002254,0.00002347,0.00000950,-0.00002707,0.00000663,-0.0000009
 2,-0.00002415,0.,0.00000339,0.00000609,-0.00000421,-0.00000252,0.00000
 041,0.00000155,0.00000027,-0.00000249,0.00000084,0.00000033,-0.0000035
 2,-0.00000014,-0.00000220,0.00000073,0.00000065,-0.00000063,0.00000091
 ,-0.00000027,0.00000093,-0.00000096,0.00000467,-0.00000215,-0.00000282
 ,-0.00000046,0.00000051,-0.00000056,0.00003381,0.00000688,-0.00001208,
 -0.00078380,0.00005698,0.00016719,-0.00019279,0.00003407,0.00001464,0.
 00016677,0.00383060,-0.00446300,0.00012862,-0.00088949,0.00119377,-0.0
 2448153,-0.01123392,0.00142373,0.00046202,-0.00012016,-0.00104805,-0.0
 1155420,-0.00834714,0.05106084\\0.00001753,0.00000182,-0.00000191,-0.0
 0000334,-0.00000676,0.00000408,-0.00001721,0.00001848,-0.00000824,0.00
 000516,-0.00000632,0.00000054,-0.00001512,-0.00000440,0.00000206,0.000
 00305,0.00000711,-0.00001345,-0.00000215,-0.00000265,0.00000701,-0.000
 00087,0.00000739,-0.00000737,0.00000008,-0.00000514,0.00000799,0.00000
 053,0.00000528,-0.00000758,0.00000174,-0.00000590,0.00000657,-0.000000
 03,0.00000103,-0.00000053,0.00000808,-0.00001147,0.00000539,-0.0000089
 4,0.00000854,0.00000507,0.00000380,-0.00000035,-0.00000544,-0.00000186
 ,0.00000028,0.00000263,0.00000215,-0.00000210,-0.00000189,-0.00000252,
 0.00000102,0.00000125,0.00000060,0.00000078,-0.00000129,0.00000032,-0.
 00000368,0.00000339,-0.00000015,-0.00000218,0.00000127,0.00000018,0.00
 000011,-0.00000115,0.00000064,0.00000080,-0.00000040,-0.00000001,-0.00
 000161,0.00000033,-0.00000040,-0.00000208,0.00000118,-0.00000006,0.000
 00066,-0.00000055,0.00000038,0.00000130,-0.00000112,-0.00000006,-0.000
 00097,0.00000156,0.00000006,-0.00000165,0.00000164,0.00000024,0.000001
 48,-0.00000084,0.00000009,0.00000179,-0.00000123,0.00000036,-0.0000006
 4,0.00000047,0.00000056,0.00000004,0.00000060,0.00000045,0.,0.00000049
 ,-0.00000053,0.00000327,-0.00000076,0.00000375,-0.00000304,-0.00000168
 ,0.00000211,-0.00000062,-0.00000317,-0.00000049,-0.00000054,0.00000224
 ,-0.00000043,0.00000015,0.00000096,0.00000073,0.00000102,0.,0.00000086
 ,-0.00000062,0.00000085,0.00000074,0.00000037,0.00000104\\\@


 THERE ARE TWO THINGS THAT EVERYBODY THINKS THEY CAN DO BETTER THAN
 ANYONE ELSE - PUNCH THE FIRE, AND EDIT A DAILY PAPER.
 -- UNCLE ESEK, "CENTURY MAGAZINE", 1885
 Job cpu time:       0 days 13 hours 35 minutes 33.4 seconds.
 Elapsed time:       0 days  3 hours 23 minutes 54.3 seconds.
 File lengths (MBytes):  RWF=    959 Int=      0 D2E=      0 Chk=     28 Scr=      1
 Normal termination of Gaussian 16 at Mon May 22 06:10:07 2023.
### All Done ###
