### Starting Gaussian ###
 Entering Gaussian System, Link 0=g16
 Initial command:
 /cluster/software/gaussian/gaussian-16-A.03/avx2/g16/l1.exe "/local/scratch/yxie/Gau-4952.inp" -scrdir="/local/scratch/yxie/"
 Entering Link 1 = /cluster/software/gaussian/gaussian-16-A.03/avx2/g16/l1.exe PID=      4954.
  
 Copyright (c) 1988,1990,1992,1993,1995,1998,2003,2009,2016,
            Gaussian, Inc.  All Rights Reserved.
  
 This is part of the Gaussian(R) 16 program.  It is based on
 the Gaussian(R) 09 system (copyright 2009, Gaussian, Inc.),
 the Gaussian(R) 03 system (copyright 2003, Gaussian, Inc.),
 the Gaussian(R) 98 system (copyright 1998, Gaussian, Inc.),
 the Gaussian(R) 94 system (copyright 1995, Gaussian, Inc.),
 the Gaussian 92(TM) system (copyright 1992, Gaussian, Inc.),
 the Gaussian 90(TM) system (copyright 1990, Gaussian, Inc.),
 the Gaussian 88(TM) system (copyright 1988, Gaussian, Inc.),
 the Gaussian 86(TM) system (copyright 1986, Carnegie Mellon
 University), and the Gaussian 82(TM) system (copyright 1983,
 Carnegie Mellon University). Gaussian is a federally registered
 trademark of Gaussian, Inc.
  
 This software contains proprietary and confidential information,
 including trade secrets, belonging to Gaussian, Inc.
  
 This software is provided under written license and may be
 used, copied, transmitted, or stored only in accord with that
 written license.
  
 The following legend is applicable only to US Government
 contracts under FAR:
  
                    RESTRICTED RIGHTS LEGEND
  
 Use, reproduction and disclosure by the US Government is
 subject to restrictions as set forth in subparagraphs (a)
 and (c) of the Commercial Computer Software - Restricted
 Rights clause in FAR 52.227-19.
  
 Gaussian, Inc.
 340 Quinnipiac St., Bldg. 40, Wallingford CT 06492
  
  
 ---------------------------------------------------------------
 Warning -- This program may not be used in any manner that
 competes with the business of Gaussian, Inc. or will provide
 assistance to any competitor of Gaussian, Inc.  The licensee
 of this program is prohibited from giving any competitor of
 Gaussian, Inc. access to this program.  By using this program,
 the user acknowledges that Gaussian, Inc. is engaged in the
 business of creating and licensing software in the field of
 computational chemistry and represents and warrants to the
 licensee that it is not a competitor of Gaussian, Inc. and that
 it will not use this program in any manner prohibited above.
 ---------------------------------------------------------------
  

 Cite this work as:
 Gaussian 16, Revision A.03,
 M. J. Frisch, G. W. Trucks, H. B. Schlegel, G. E. Scuseria, 
 M. A. Robb, J. R. Cheeseman, G. Scalmani, V. Barone, 
 G. A. Petersson, H. Nakatsuji, X. Li, M. Caricato, A. V. Marenich, 
 J. Bloino, B. G. Janesko, R. Gomperts, B. Mennucci, H. P. Hratchian, 
 J. V. Ortiz, A. F. Izmaylov, J. L. Sonnenberg, D. Williams-Young, 
 F. Ding, F. Lipparini, F. Egidi, J. Goings, B. Peng, A. Petrone, 
 T. Henderson, D. Ranasinghe, V. G. Zakrzewski, J. Gao, N. Rega, 
 G. Zheng, W. Liang, M. Hada, M. Ehara, K. Toyota, R. Fukuda, 
 J. Hasegawa, M. Ishida, T. Nakajima, Y. Honda, O. Kitao, H. Nakai, 
 T. Vreven, K. Throssell, J. A. Montgomery, Jr., J. E. Peralta, 
 F. Ogliaro, M. J. Bearpark, J. J. Heyd, E. N. Brothers, K. N. Kudin, 
 V. N. Staroverov, T. A. Keith, R. Kobayashi, J. Normand, 
 K. Raghavachari, A. P. Rendell, J. C. Burant, S. S. Iyengar, 
 J. Tomasi, M. Cossi, J. M. Millam, M. Klene, C. Adamo, R. Cammi, 
 J. W. Ochterski, R. L. Martin, K. Morokuma, O. Farkas, 
 J. B. Foresman, and D. J. Fox, Gaussian, Inc., Wallingford CT, 2016.
 
 ******************************************
 Gaussian 16:  ES64L-G16RevA.03 25-Dec-2016
                26-May-2023 
 ******************************************
 %chk=CtCCCNC1CCCqCCCrN1CC.chk
 %NProcShared=20
 Will use up to   20 processors via shared memory.
 ----------------------------------------------------------------
 # opt freq b3lyp/6-31+g(2df,p) Geom=AllCheckpoint TD(NStates=10)
 ----------------------------------------------------------------
 1/18=20,19=15,26=3,29=7,38=1/1,3;
 2/9=110,12=2,40=1/2;
 3/5=1,6=6,7=114,11=9,14=-4,25=1,30=1,71=1,74=-5/1,2,3,8;
 4//1;
 5/5=2,38=5/2;
 8/6=1,10=2,108=10/1;
 9/15=2,41=10,42=1,70=2/14;
 10/5=4/2;
 6/7=2,8=2,9=2,10=2/1;
 7/12=6,13=5/1,2,3,16;
 1/18=20,19=15,26=3/3(2);
 2/9=110/2;
 99//99;
 2/9=110/2;
 3/5=1,6=6,7=114,11=9,14=-2,25=1,30=1,71=1,74=-5/1,2,3,8;
 4/5=5,16=3,69=1/1;
 5/5=2,38=5/2;
 8/6=1,10=2,108=10/1;
 9/15=2,41=10,42=1,49=4,70=2/14;
 10/5=4/2;
 7/12=6,13=5/1,2,3,16;
 1/18=20,19=15,26=3/3(-8);
 2/9=110/2;
 6/7=2,8=2,9=2,10=2/1;
 99//99;
 Structure from the checkpoint file:  "CtCCCNC1CCCqCCCrN1CC.chk"
 -------------------
 Title Card Required
 -------------------
 Charge =  0 Multiplicity = 1
 Redundant internal coordinates found in file.  (old form).
 C,0,1.0628375654,0.1270218457,0.0169291837
 C,0,2.252055541,-0.0416064924,-0.0263127216
 C,0,3.6934697632,-0.2357929051,-0.1114910174
 C,0,4.2458542032,0.0314955489,-1.5220282459
 N,0,5.6873560508,-0.1921908397,-1.5529371477
 C,0,6.3211406329,0.1490839265,-2.8092633
 C,0,7.567863854,-0.6893376871,-3.1352258524
 C,0,8.2112787196,0.1250967122,-4.2693908917
 C,0,7.6801508853,1.587592057,-4.0570883251
 C,0,6.9520477708,2.149460358,-5.2892659288
 C,0,7.8647575014,2.3803197593,-6.499021827
 C,0,7.1217147514,2.9648356586,-7.7038743802
 N,0,6.7889833246,1.5534518368,-2.875182317
 C,0,7.3764041753,2.0746318883,-1.6291076373
 C,0,6.410288165,2.9709987885,-0.8522015774
 H,0,0.012782404,0.2748368847,0.0675663513
 H,0,3.9413492742,-1.2645671693,0.1855777854
 H,0,4.2088243734,0.4188418742,0.6013655614
 H,0,4.0571834855,1.0741552152,-1.7941857067
 H,0,3.6974484284,-0.5904820724,-2.2503708386
 H,0,5.8932437018,-1.1573623013,-1.3218830773
 H,0,5.6093270153,0.0232385651,-3.646200365
 H,0,7.3270708203,-1.7169894105,-3.4259020974
 H,0,8.2160836271,-0.7323014691,-2.2518402906
 H,0,7.8916520336,-0.2605644505,-5.2432402514
 H,0,9.3027298032,0.0773033479,-4.2511135856
 H,0,8.5158779595,2.2601923201,-3.8379709663
 H,0,6.4815265026,3.0961919748,-4.9989385345
 H,0,6.1323189725,1.4737070846,-5.5703578186
 H,0,8.345104434,1.438054742,-6.7923116625
 H,0,8.6808579974,3.0567186755,-6.2096194155
 H,0,6.3231227744,2.2937885175,-8.0395447618
 H,0,7.796325477,3.1285954116,-8.5502342846
 H,0,6.659350899,3.9263649205,-7.4546883895
 H,0,8.2593517555,2.6665725028,-1.8935774135
 H,0,7.7219781173,1.2654083481,-0.9711393736
 H,0,6.0462732309,3.7841043972,-1.4876841659
 H,0,6.908669786,3.4078798946,0.0209664449
 H,0,5.5464742233,2.404791741,-0.4961611582
 Recover connectivity data from disk.

 GradGradGradGradGradGradGradGradGradGradGradGradGradGradGradGradGradGrad
 Berny optimization.
 Initialization pass.
                           ----------------------------
                           !    Initial Parameters    !
                           ! (Angstroms and Degrees)  !
 --------------------------                            --------------------------
 ! Name  Definition              Value          Derivative Info.                !
 --------------------------------------------------------------------------------
 ! R1    R(1,2)                  1.2019         estimate D2E/DX2                !
 ! R2    R(1,16)                 1.0616         estimate D2E/DX2                !
 ! R3    R(2,3)                  1.4569         estimate D2E/DX2                !
 ! R4    R(3,4)                  1.5382         estimate D2E/DX2                !
 ! R5    R(3,17)                 1.0991         estimate D2E/DX2                !
 ! R6    R(3,18)                 1.0965         estimate D2E/DX2                !
 ! R7    R(4,5)                  1.4591         estimate D2E/DX2                !
 ! R8    R(4,19)                 1.094          estimate D2E/DX2                !
 ! R9    R(4,20)                 1.1037         estimate D2E/DX2                !
 ! R10   R(5,6)                  1.4479         estimate D2E/DX2                !
 ! R11   R(5,21)                 1.0136         estimate D2E/DX2                !
 ! R12   R(6,7)                  1.5374         estimate D2E/DX2                !
 ! R13   R(6,13)                 1.4817         estimate D2E/DX2                !
 ! R14   R(6,22)                 1.1059         estimate D2E/DX2                !
 ! R15   R(7,8)                  1.5374         estimate D2E/DX2                !
 ! R16   R(7,23)                 1.0948         estimate D2E/DX2                !
 ! R17   R(7,24)                 1.0965         estimate D2E/DX2                !
 ! R18   R(8,9)                  1.5704         estimate D2E/DX2                !
 ! R19   R(8,25)                 1.0951         estimate D2E/DX2                !
 ! R20   R(8,26)                 1.0926         estimate D2E/DX2                !
 ! R21   R(9,10)                 1.5376         estimate D2E/DX2                !
 ! R22   R(9,13)                 1.4806         estimate D2E/DX2                !
 ! R23   R(9,27)                 1.0949         estimate D2E/DX2                !
 ! R24   R(10,11)                1.5329         estimate D2E/DX2                !
 ! R25   R(10,28)                1.0963         estimate D2E/DX2                !
 ! R26   R(10,29)                1.0989         estimate D2E/DX2                !
 ! R27   R(11,12)                1.5315         estimate D2E/DX2                !
 ! R28   R(11,30)                1.0975         estimate D2E/DX2                !
 ! R29   R(11,31)                1.0988         estimate D2E/DX2                !
 ! R30   R(12,32)                1.0958         estimate D2E/DX2                !
 ! R31   R(12,33)                1.0946         estimate D2E/DX2                !
 ! R32   R(12,34)                1.0956         estimate D2E/DX2                !
 ! R33   R(13,14)                1.4729         estimate D2E/DX2                !
 ! R34   R(14,15)                1.5298         estimate D2E/DX2                !
 ! R35   R(14,35)                1.0954         estimate D2E/DX2                !
 ! R36   R(14,36)                1.0987         estimate D2E/DX2                !
 ! R37   R(15,37)                1.0943         estimate D2E/DX2                !
 ! R38   R(15,38)                1.0962         estimate D2E/DX2                !
 ! R39   R(15,39)                1.0925         estimate D2E/DX2                !
 ! A1    A(2,3,4)              112.689          estimate D2E/DX2                !
 ! A2    A(2,3,17)             109.3948         estimate D2E/DX2                !
 ! A3    A(2,3,18)             110.3292         estimate D2E/DX2                !
 ! A4    A(4,3,17)             109.2381         estimate D2E/DX2                !
 ! A5    A(4,3,18)             108.8827         estimate D2E/DX2                !
 ! A6    A(17,3,18)            106.0873         estimate D2E/DX2                !
 ! A7    A(3,4,5)              110.3382         estimate D2E/DX2                !
 ! A8    A(3,4,19)             109.3782         estimate D2E/DX2                !
 ! A9    A(3,4,20)             109.1948         estimate D2E/DX2                !
 ! A10   A(5,4,19)             108.1332         estimate D2E/DX2                !
 ! A11   A(5,4,20)             112.9875         estimate D2E/DX2                !
 ! A12   A(19,4,20)            106.6931         estimate D2E/DX2                !
 ! A13   A(4,5,6)              114.4998         estimate D2E/DX2                !
 ! A14   A(4,5,21)             109.989          estimate D2E/DX2                !
 ! A15   A(6,5,21)             109.4706         estimate D2E/DX2                !
 ! A16   A(5,6,7)              114.2294         estimate D2E/DX2                !
 ! A17   A(5,6,13)             113.5909         estimate D2E/DX2                !
 ! A18   A(5,6,22)             110.3707         estimate D2E/DX2                !
 ! A19   A(7,6,13)             104.5609         estimate D2E/DX2                !
 ! A20   A(7,6,22)             107.4246         estimate D2E/DX2                !
 ! A21   A(13,6,22)            106.1062         estimate D2E/DX2                !
 ! A22   A(6,7,8)              101.9406         estimate D2E/DX2                !
 ! A23   A(6,7,23)             112.9452         estimate D2E/DX2                !
 ! A24   A(6,7,24)             109.2655         estimate D2E/DX2                !
 ! A25   A(8,7,23)             113.1688         estimate D2E/DX2                !
 ! A26   A(8,7,24)             111.5717         estimate D2E/DX2                !
 ! A27   A(23,7,24)            107.887          estimate D2E/DX2                !
 ! A28   A(7,8,9)              104.6004         estimate D2E/DX2                !
 ! A29   A(7,8,25)             110.3234         estimate D2E/DX2                !
 ! A30   A(7,8,26)             112.4909         estimate D2E/DX2                !
 ! A31   A(9,8,25)             110.4556         estimate D2E/DX2                !
 ! A32   A(9,8,26)             112.106          estimate D2E/DX2                !
 ! A33   A(25,8,26)            106.9188         estimate D2E/DX2                !
 ! A34   A(8,9,10)             113.0881         estimate D2E/DX2                !
 ! A35   A(8,9,13)             106.8587         estimate D2E/DX2                !
 ! A36   A(8,9,27)             109.9375         estimate D2E/DX2                !
 ! A37   A(10,9,13)            111.2913         estimate D2E/DX2                !
 ! A38   A(10,9,27)            107.298          estimate D2E/DX2                !
 ! A39   A(13,9,27)            108.2899         estimate D2E/DX2                !
 ! A40   A(9,10,11)            113.9239         estimate D2E/DX2                !
 ! A41   A(9,10,28)            107.8528         estimate D2E/DX2                !
 ! A42   A(9,10,29)            109.4821         estimate D2E/DX2                !
 ! A43   A(11,10,28)           109.5402         estimate D2E/DX2                !
 ! A44   A(11,10,29)           109.5654         estimate D2E/DX2                !
 ! A45   A(28,10,29)           106.1772         estimate D2E/DX2                !
 ! A46   A(10,11,12)           112.9215         estimate D2E/DX2                !
 ! A47   A(10,11,30)           110.0095         estimate D2E/DX2                !
 ! A48   A(10,11,31)           109.0917         estimate D2E/DX2                !
 ! A49   A(12,11,30)           109.2553         estimate D2E/DX2                !
 ! A50   A(12,11,31)           109.428          estimate D2E/DX2                !
 ! A51   A(30,11,31)           105.8917         estimate D2E/DX2                !
 ! A52   A(11,12,32)           111.1531         estimate D2E/DX2                !
 ! A53   A(11,12,33)           111.492          estimate D2E/DX2                !
 ! A54   A(11,12,34)           111.1475         estimate D2E/DX2                !
 ! A55   A(32,12,33)           107.6924         estimate D2E/DX2                !
 ! A56   A(32,12,34)           107.4308         estimate D2E/DX2                !
 ! A57   A(33,12,34)           107.7362         estimate D2E/DX2                !
 ! A58   A(6,13,9)             104.3243         estimate D2E/DX2                !
 ! A59   A(6,13,14)            115.0663         estimate D2E/DX2                !
 ! A60   A(9,13,14)            115.2849         estimate D2E/DX2                !
 ! A61   A(13,14,15)           112.6497         estimate D2E/DX2                !
 ! A62   A(13,14,35)           107.9644         estimate D2E/DX2                !
 ! A63   A(13,14,36)           111.8054         estimate D2E/DX2                !
 ! A64   A(15,14,35)           108.3615         estimate D2E/DX2                !
 ! A65   A(15,14,36)           109.0291         estimate D2E/DX2                !
 ! A66   A(35,14,36)           106.8018         estimate D2E/DX2                !
 ! A67   A(14,15,37)           110.5192         estimate D2E/DX2                !
 ! A68   A(14,15,38)           110.5427         estimate D2E/DX2                !
 ! A69   A(14,15,39)           111.1716         estimate D2E/DX2                !
 ! A70   A(37,15,38)           108.5221         estimate D2E/DX2                !
 ! A71   A(37,15,39)           108.1397         estimate D2E/DX2                !
 ! A72   A(38,15,39)           107.8448         estimate D2E/DX2                !
 ! A73   L(2,1,16,32,-1)       180.6508         estimate D2E/DX2                !
 ! A74   L(1,2,3,32,-1)        178.6522         estimate D2E/DX2                !
 ! A75   L(2,1,16,32,-2)       180.2095         estimate D2E/DX2                !
 ! A76   L(1,2,3,32,-2)        180.079          estimate D2E/DX2                !
 ! D1    D(2,3,4,5)           -179.3552         estimate D2E/DX2                !
 ! D2    D(2,3,4,19)            61.8138         estimate D2E/DX2                !
 ! D3    D(2,3,4,20)           -54.6011         estimate D2E/DX2                !
 ! D4    D(17,3,4,5)           -57.544          estimate D2E/DX2                !
 ! D5    D(17,3,4,19)         -176.375          estimate D2E/DX2                !
 ! D6    D(17,3,4,20)           67.2101         estimate D2E/DX2                !
 ! D7    D(18,3,4,5)            57.8949         estimate D2E/DX2                !
 ! D8    D(18,3,4,19)          -60.936          estimate D2E/DX2                !
 ! D9    D(18,3,4,20)         -177.3509         estimate D2E/DX2                !
 ! D10   D(3,4,5,6)           -174.7441         estimate D2E/DX2                !
 ! D11   D(3,4,5,21)            61.5069         estimate D2E/DX2                !
 ! D12   D(19,4,5,6)           -55.157          estimate D2E/DX2                !
 ! D13   D(19,4,5,21)         -178.9059         estimate D2E/DX2                !
 ! D14   D(20,4,5,6)            62.6993         estimate D2E/DX2                !
 ! D15   D(20,4,5,21)          -61.0496         estimate D2E/DX2                !
 ! D16   D(4,5,6,7)           -150.0628         estimate D2E/DX2                !
 ! D17   D(4,5,6,13)            90.1112         estimate D2E/DX2                !
 ! D18   D(4,5,6,22)           -28.9056         estimate D2E/DX2                !
 ! D19   D(21,5,6,7)           -26.0371         estimate D2E/DX2                !
 ! D20   D(21,5,6,13)         -145.863          estimate D2E/DX2                !
 ! D21   D(21,5,6,22)           95.1201         estimate D2E/DX2                !
 ! D22   D(5,6,7,8)           -165.3647         estimate D2E/DX2                !
 ! D23   D(5,6,7,23)            72.8848         estimate D2E/DX2                !
 ! D24   D(5,6,7,24)           -47.2002         estimate D2E/DX2                !
 ! D25   D(13,6,7,8)           -40.5919         estimate D2E/DX2                !
 ! D26   D(13,6,7,23)         -162.3425         estimate D2E/DX2                !
 ! D27   D(13,6,7,24)           77.5725         estimate D2E/DX2                !
 ! D28   D(22,6,7,8)            71.8616         estimate D2E/DX2                !
 ! D29   D(22,6,7,23)          -49.8889         estimate D2E/DX2                !
 ! D30   D(22,6,7,24)         -169.9739         estimate D2E/DX2                !
 ! D31   D(5,6,13,9)           166.2509         estimate D2E/DX2                !
 ! D32   D(5,6,13,14)           38.9435         estimate D2E/DX2                !
 ! D33   D(7,6,13,9)            41.0734         estimate D2E/DX2                !
 ! D34   D(7,6,13,14)          -86.2339         estimate D2E/DX2                !
 ! D35   D(22,6,13,9)          -72.3193         estimate D2E/DX2                !
 ! D36   D(22,6,13,14)         160.3733         estimate D2E/DX2                !
 ! D37   D(6,7,8,9)             24.285          estimate D2E/DX2                !
 ! D38   D(6,7,8,25)           -94.5047         estimate D2E/DX2                !
 ! D39   D(6,7,8,26)           146.2054         estimate D2E/DX2                !
 ! D40   D(23,7,8,9)           145.8813         estimate D2E/DX2                !
 ! D41   D(23,7,8,25)           27.0916         estimate D2E/DX2                !
 ! D42   D(23,7,8,26)          -92.1983         estimate D2E/DX2                !
 ! D43   D(24,7,8,9)           -92.2184         estimate D2E/DX2                !
 ! D44   D(24,7,8,25)          148.9919         estimate D2E/DX2                !
 ! D45   D(24,7,8,26)           29.7021         estimate D2E/DX2                !
 ! D46   D(7,8,9,10)          -123.2235         estimate D2E/DX2                !
 ! D47   D(7,8,9,13)            -0.4285         estimate D2E/DX2                !
 ! D48   D(7,8,9,27)           116.8777         estimate D2E/DX2                !
 ! D49   D(25,8,9,10)           -4.5234         estimate D2E/DX2                !
 ! D50   D(25,8,9,13)          118.2715         estimate D2E/DX2                !
 ! D51   D(25,8,9,27)         -124.4222         estimate D2E/DX2                !
 ! D52   D(26,8,9,10)          114.6039         estimate D2E/DX2                !
 ! D53   D(26,8,9,13)         -122.6011         estimate D2E/DX2                !
 ! D54   D(26,8,9,27)           -5.2949         estimate D2E/DX2                !
 ! D55   D(8,9,10,11)          -67.127          estimate D2E/DX2                !
 ! D56   D(8,9,10,28)          171.0495         estimate D2E/DX2                !
 ! D57   D(8,9,10,29)           55.9354         estimate D2E/DX2                !
 ! D58   D(13,9,10,11)         172.5756         estimate D2E/DX2                !
 ! D59   D(13,9,10,28)          50.7522         estimate D2E/DX2                !
 ! D60   D(13,9,10,29)         -64.3619         estimate D2E/DX2                !
 ! D61   D(27,9,10,11)          54.2726         estimate D2E/DX2                !
 ! D62   D(27,9,10,28)         -67.5508         estimate D2E/DX2                !
 ! D63   D(27,9,10,29)         177.3351         estimate D2E/DX2                !
 ! D64   D(8,9,13,6)           -24.817          estimate D2E/DX2                !
 ! D65   D(8,9,13,14)          102.3552         estimate D2E/DX2                !
 ! D66   D(10,9,13,6)           99.0915         estimate D2E/DX2                !
 ! D67   D(10,9,13,14)        -133.7363         estimate D2E/DX2                !
 ! D68   D(27,9,13,6)         -143.2041         estimate D2E/DX2                !
 ! D69   D(27,9,13,14)         -16.0319         estimate D2E/DX2                !
 ! D70   D(9,10,11,12)        -178.9042         estimate D2E/DX2                !
 ! D71   D(9,10,11,30)          58.7493         estimate D2E/DX2                !
 ! D72   D(9,10,11,31)         -56.9988         estimate D2E/DX2                !
 ! D73   D(28,10,11,12)        -58.0179         estimate D2E/DX2                !
 ! D74   D(28,10,11,30)        179.6356         estimate D2E/DX2                !
 ! D75   D(28,10,11,31)         63.8875         estimate D2E/DX2                !
 ! D76   D(29,10,11,12)         58.0788         estimate D2E/DX2                !
 ! D77   D(29,10,11,30)        -64.2677         estimate D2E/DX2                !
 ! D78   D(29,10,11,31)        179.9842         estimate D2E/DX2                !
 ! D79   D(10,11,12,32)        -60.3493         estimate D2E/DX2                !
 ! D80   D(10,11,12,33)        179.4806         estimate D2E/DX2                !
 ! D81   D(10,11,12,34)         59.2587         estimate D2E/DX2                !
 ! D82   D(30,11,12,32)         62.4186         estimate D2E/DX2                !
 ! D83   D(30,11,12,33)        -57.7515         estimate D2E/DX2                !
 ! D84   D(30,11,12,34)       -177.9734         estimate D2E/DX2                !
 ! D85   D(31,11,12,32)        177.9348         estimate D2E/DX2                !
 ! D86   D(31,11,12,33)         57.7647         estimate D2E/DX2                !
 ! D87   D(31,11,12,34)        -62.4573         estimate D2E/DX2                !
 ! D88   D(6,13,14,15)        -101.747          estimate D2E/DX2                !
 ! D89   D(6,13,14,35)         138.641          estimate D2E/DX2                !
 ! D90   D(6,13,14,36)          21.4464         estimate D2E/DX2                !
 ! D91   D(9,13,14,15)         136.7184         estimate D2E/DX2                !
 ! D92   D(9,13,14,35)          17.1064         estimate D2E/DX2                !
 ! D93   D(9,13,14,36)        -100.0881         estimate D2E/DX2                !
 ! D94   D(13,14,15,37)        -54.9783         estimate D2E/DX2                !
 ! D95   D(13,14,15,38)       -175.1423         estimate D2E/DX2                !
 ! D96   D(13,14,15,39)         65.1172         estimate D2E/DX2                !
 ! D97   D(35,14,15,37)         64.4035         estimate D2E/DX2                !
 ! D98   D(35,14,15,38)        -55.7605         estimate D2E/DX2                !
 ! D99   D(35,14,15,39)       -175.5011         estimate D2E/DX2                !
 ! D100  D(36,14,15,37)       -179.7064         estimate D2E/DX2                !
 ! D101  D(36,14,15,38)         60.1297         estimate D2E/DX2                !
 ! D102  D(36,14,15,39)        -59.6109         estimate D2E/DX2                !
 --------------------------------------------------------------------------------
 Trust Radius=3.00D-01 FncErr=1.00D-07 GrdErr=1.00D-06 EigMax=2.50D+02 EigMin=1.00D-04
 Number of steps in this run=    227 maximum allowed number of steps=    234.
 GradGradGradGradGradGradGradGradGradGradGradGradGradGradGradGradGradGrad

                          Input orientation:                          
 ---------------------------------------------------------------------
 Center     Atomic      Atomic             Coordinates (Angstroms)
 Number     Number       Type             X           Y           Z
 ---------------------------------------------------------------------
      1          6           0        1.062838    0.127022    0.016929
      2          6           0        2.252056   -0.041606   -0.026313
      3          6           0        3.693470   -0.235793   -0.111491
      4          6           0        4.245854    0.031496   -1.522028
      5          7           0        5.687356   -0.192191   -1.552937
      6          6           0        6.321141    0.149084   -2.809263
      7          6           0        7.567864   -0.689338   -3.135226
      8          6           0        8.211279    0.125097   -4.269391
      9          6           0        7.680151    1.587592   -4.057088
     10          6           0        6.952048    2.149460   -5.289266
     11          6           0        7.864758    2.380320   -6.499022
     12          6           0        7.121715    2.964836   -7.703874
     13          7           0        6.788983    1.553452   -2.875182
     14          6           0        7.376404    2.074632   -1.629108
     15          6           0        6.410288    2.970999   -0.852202
     16          1           0        0.012782    0.274837    0.067566
     17          1           0        3.941349   -1.264567    0.185578
     18          1           0        4.208824    0.418842    0.601366
     19          1           0        4.057183    1.074155   -1.794186
     20          1           0        3.697448   -0.590482   -2.250371
     21          1           0        5.893244   -1.157362   -1.321883
     22          1           0        5.609327    0.023239   -3.646200
     23          1           0        7.327071   -1.716989   -3.425902
     24          1           0        8.216084   -0.732301   -2.251840
     25          1           0        7.891652   -0.260564   -5.243240
     26          1           0        9.302730    0.077303   -4.251114
     27          1           0        8.515878    2.260192   -3.837971
     28          1           0        6.481527    3.096192   -4.998939
     29          1           0        6.132319    1.473707   -5.570358
     30          1           0        8.345104    1.438055   -6.792312
     31          1           0        8.680858    3.056719   -6.209619
     32          1           0        6.323123    2.293789   -8.039545
     33          1           0        7.796325    3.128595   -8.550234
     34          1           0        6.659351    3.926365   -7.454688
     35          1           0        8.259352    2.666573   -1.893577
     36          1           0        7.721978    1.265408   -0.971139
     37          1           0        6.046273    3.784104   -1.487684
     38          1           0        6.908670    3.407880    0.020966
     39          1           0        5.546474    2.404792   -0.496161
 ---------------------------------------------------------------------
                    Distance matrix (angstroms):
                    1          2          3          4          5
     1  C    0.000000
     2  C    1.201892   0.000000
     3  C    2.658637   1.456928   0.000000
     4  C    3.536822   2.493540   1.538242   0.000000
     5  N    4.894134   3.762253   2.460742   1.459081   0.000000
     6  C    5.969724   4.933420   3.785599   2.444916   1.447932
     7  C    7.274468   6.192149   4.935545   3.762679   2.507409
     8  C    8.335032   7.317366   6.150526   4.825076   3.721556
     9  C    7.906941   6.954542   5.897974   4.543386   3.661916
    10  C    8.181000   7.388462   6.566363   5.099151   4.587257
    11  C    9.685096   8.903040   8.065001   6.586646   5.985202
    12  C   10.216359   9.575867   8.924190   7.422283   7.061036
    13  N    6.571739   5.589632   4.519025   3.258049   2.451364
    14  C    6.809093   5.771167   4.604914   3.739815   2.827927
    15  C    6.118727   5.200844   4.267700   3.711350   3.319553
    16  H    1.061616   2.263469   3.720250   4.528236   5.919876
    17  H    3.201686   2.096245   1.099123   2.165276   2.687185
    18  H    3.213092   2.105929   1.096495   2.158752   2.683363
    19  H    3.625370   2.762026   2.163264   1.093986   2.078292
    20  H    3.549174   2.708664   2.168093   1.103670   2.145876
    21  H    5.174445   4.022644   2.674574   2.041405   1.013574
    22  H    5.839508   4.937516   4.028868   2.524130   2.105766
    23  H    7.382011   6.334027   5.136372   4.021919   2.919190
    24  H    7.553455   6.403098   5.028086   4.108374   2.678553
    25  H    8.628575   7.685657   6.630249   5.217716   4.299062
    26  H    9.279789   8.220407   6.978417   5.746477   4.519260
    27  H    8.657857   7.685212   6.585759   5.344510   4.385898
    28  H    7.958460   7.243011   6.539306   5.145824   4.828985
    29  H    7.663614   6.934627   6.218489   4.693367   4.371828
    30  H   10.055644   9.224608   8.311007   6.823353   6.096915
    31  H   10.265830   9.442584   8.538258   7.127043   6.418813
    32  H    9.862670   9.286525   8.727422   7.204931   6.975699
    33  H   11.302460  10.651120   9.968196   8.461297   8.027300
    34  H   10.078742   9.505252   8.946651   7.496094   7.262089
    35  H    7.866967   6.848979   5.696212   4.815583   3.860534
    36  H    6.827617   5.702722   4.384231   3.729538   2.569586
    37  H    6.361819   5.582809   4.856868   4.162302   3.992994
    38  H    6.703566   5.795278   4.861215   4.568522   4.114522
    39  H    5.055145   4.130232   3.248736   2.894227   2.807301
                    6          7          8          9         10
     6  C    0.000000
     7  C    1.537375   0.000000
     8  C    2.388550   1.537406   0.000000
     9  C    2.339505   2.459034   1.570370   0.000000
    10  C    3.248071   3.616337   2.593040   1.537560   0.000000
    11  C    4.579900   4.563558   3.190198   2.574012   1.532920
    12  C    5.703209   5.867246   4.587695   3.937982   2.554204
    13  N    1.481712   2.388385   2.450906   1.480624   2.491910
    14  C    2.492806   3.153502   3.386561   2.494907   3.685436
    15  C    3.435293   4.466570   4.797907   3.714521   4.544884
    16  H    6.934504   8.262370   9.276150   8.804808   8.964556
    17  H    4.078099   4.950781   6.325362   6.333535   7.119958
    18  H    4.020826   5.145223   6.311117   5.925983   6.724571
    19  H    2.647950   4.151286   4.927866   4.302353   4.663915
    20  H    2.782639   3.971506   4.996315   4.885709   5.228249
    21  H    2.025388   2.512292   3.963053   4.267219   5.272217
    22  H    1.105884   2.145863   2.677479   2.627612   3.003895
    23  H    2.207797   1.094779   2.210561   3.382798   4.308387
    24  H    2.162954   1.096542   2.192183   2.987984   4.373590
    25  H    2.925502   2.175410   1.095116   2.206212   2.587121
    26  H    3.312697   2.200614   1.092650   2.225170   3.301106
    27  H    3.214326   3.176839   2.199440   1.094917   2.136372
    28  H    3.675030   4.357039   3.514497   2.144681   1.096349
    29  H    3.068212   3.559413   2.798810   2.167657   1.098913
    30  H    4.650005   4.301648   2.847261   2.818860   2.169297
    31  H    5.058164   4.972282   3.546745   2.791619   2.158461
    32  H    5.652929   5.873735   4.741563   4.266169   2.824962
    33  H    6.634185   6.629564   5.245837   4.751479   3.507909
    34  H    5.996850   6.386538   5.196560   4.249185   2.816401
    35  H    3.306492   3.644445   3.479353   2.486051   3.675207
    36  H    2.566559   2.920283   3.523945   3.103004   4.474434
    37  H    3.877563   5.004130   5.080697   3.754472   4.236096
    38  H    4.356047   5.213759   5.557034   4.532015   5.457478
    39  H    3.322464   4.541400   5.151258   4.230909   5.001468
                   11         12         13         14         15
    11  C    0.000000
    12  C    1.531483   0.000000
    13  N    3.869524   5.041724   0.000000
    14  C    4.903876   6.144926   1.472886   0.000000
    15  C    5.860969   6.888511   2.499060   1.529849   0.000000
    16  H   10.450199  10.870525   7.497435   7.767940   7.003095
    17  H    8.565174   9.499791   5.041677   5.122786   5.011254
    18  H    8.223670   9.162097   4.475594   4.213100   3.670532
    19  H    6.191863   6.920292   2.976745   3.470653   3.165826
    20  H    6.651553   7.355718   3.813716   4.585141   4.690258
    21  H    6.573038   7.696198   3.250169   3.569305   4.187040
    22  H    4.333750   5.234981   2.080291   3.376306   4.139717
    23  H    5.149865   6.345290   3.359854   4.196105   5.426017
    24  H    5.277347   6.677660   2.765834   2.995285   4.351358
    25  H    2.924377   4.129253   3.180288   4.333656   5.649660
    26  H    3.524875   5.001622   3.223526   3.817718   5.319050
    27  H    2.742185   4.169583   2.099669   2.492370   3.722039
    28  H    2.162418   2.782764   2.642899   3.633201   4.149238
    29  H    2.164649   2.784647   2.775165   4.176399   4.957837
    30  H    1.097550   2.158400   4.216483   5.291719   6.432600
    31  H    1.098767   2.161520   4.117945   4.862837   5.819344
    32  H    2.181132   1.095777   5.237916   6.500087   7.219703
    33  H    2.184507   1.094642   5.975118   7.013499   7.823404
    34  H    2.180954   1.095633   5.159399   6.154711   6.675896
    35  H    4.631173   5.928130   2.089155   1.095415   2.143869
    36  H    5.641001   6.969798   2.139820   1.098720   2.154928
    37  H    5.512803   6.361509   2.729941   2.170609   1.094297
    38  H    6.669350   7.740468   3.441062   2.172342   1.096208
    39  H    6.435011   7.399065   2.815733   2.177434   1.092488
                   16         17         18         19         20
    16  H    0.000000
    17  H    4.221058   0.000000
    18  H    4.232310   1.754505   0.000000
    19  H    4.523518   3.066350   2.488191   0.000000
    20  H    4.438285   2.539237   3.068003   1.763103   0.000000
    21  H    6.209798   2.468567   3.003427   2.928115   2.450502
    22  H    6.721360   4.372999   4.489958   2.635059   2.445460
    23  H    8.346886   4.970974   5.523054   4.598386   3.978071
    24  H    8.584179   4.949512   5.052132   4.557322   4.520860
    25  H    9.516717   6.788592   6.941486   5.327345   5.163086
    26  H   10.246616   7.087260   7.043513   5.877582   5.988997
    27  H    9.565432   7.038408   6.453603   5.046157   5.819285
    28  H    8.687587   7.235187   6.610354   4.498501   5.375619
    29  H    8.406676   6.740125   6.550018   4.327275   4.605625
    30  H   10.855349   8.682636   8.533116   6.595449   6.807708
    31  H   11.057914   9.057318   8.564286   6.693652   7.335673
    32  H   10.470044   9.272938   9.091260   6.754739   6.980524
    33  H   11.958009  10.510715  10.196309   7.990375   8.385738
    34  H   10.681519   9.628446   9.121831   6.851837   7.500646
    35  H    8.807519   6.198539   5.261540   4.494874   5.616642
    36  H    7.841673   4.693818   3.941027   3.760944   4.612765
    37  H    7.150998   5.720104   4.366387   3.375536   5.023512
    38  H    7.574391   5.537495   4.069444   4.107557   5.608727
    39  H    5.956194   4.062682   2.633983   2.381900   3.932914
                   21         22         23         24         25
    21  H    0.000000
    22  H    2.622380   0.000000
    23  H    2.606902   2.455111   0.000000
    24  H    2.537929   3.051272   1.771546   0.000000
    25  H    4.491651   2.800016   2.396381   3.045696   0.000000
    26  H    4.661479   3.743002   2.793508   2.415234   1.757729
    27  H    4.988846   3.672707   4.171455   3.400104   2.952737
    28  H    5.653277   3.468959   5.133820   5.021215   3.649103
    29  H    5.002921   2.465717   4.025750   4.496789   2.491978
    30  H    6.532488   4.402749   4.724766   5.034180   2.343192
    31  H    7.029882   5.020699   5.689474   5.498791   3.544165
    32  H    7.564537   4.996637   6.195155   6.799856   4.099308
    33  H    8.616276   6.202883   7.068145   7.399492   4.736212
    34  H    8.002656   5.553515   6.965947   7.155153   4.892795
    35  H    4.532966   4.132981   4.736326   3.417977   4.463583
    36  H    3.055668   3.627979   3.882848   2.423877   4.539629
    37  H    4.946615   4.358237   5.971529   5.068524   5.819705
    38  H    4.865776   5.156763   6.190335   4.900621   6.491195
    39  H    3.673011   3.949493   5.361249   4.477787   5.927794
                   26         27         28         29         30
    26  H    0.000000
    27  H    2.356868   0.000000
    28  H    4.199062   2.487032   0.000000
    29  H    3.707001   3.049767   1.755256   0.000000
    30  H    3.037495   3.071352   3.072219   2.528015   0.000000
    31  H    3.619307   2.507267   2.510850   3.067512   1.752807
    32  H    5.305005   4.739465   3.148687   2.608797   2.525130
    33  H    5.482889   4.845339   3.787010   3.793051   2.499876
    34  H    5.662651   4.393571   2.598368   3.137514   3.077693
    35  H    3.653892   2.002902   3.603957   4.412019   5.051159
    36  H    3.829961   3.136654   4.594960   4.870648   5.856974
    37  H    5.655212   3.734314   3.604383   4.691861   6.239202
    38  H    5.922409   4.334940   5.047677   5.967131   7.236319
    39  H    5.798821   4.472802   4.650523   5.192071   6.957616
                   31         32         33         34         35
    31  H    0.000000
    32  H    3.080520   0.000000
    33  H    2.503206   1.768624   0.000000
    34  H    2.528433   1.766469   1.769002   0.000000
    35  H    4.354090   6.454523   6.688717   5.922249   0.000000
    36  H    5.618711   7.278511   7.805106   7.088461   1.761512
    37  H    5.455896   6.724921   7.305614   6.000103   2.512239
    38  H    6.487231   8.158180   8.621567   7.497760   2.457510
    39  H    6.549273   7.584072   8.393677   7.209354   3.062843
                   36         37         38         39
    36  H    0.000000
    37  H    3.068980   0.000000
    38  H    2.497184   1.778004   0.000000
    39  H    2.501323   1.770712   1.768950   0.000000
 Stoichiometry    C13H24N2
 Framework group  C1[X(C13H24N2)]
 Deg. of freedom   111
 Full point group                 C1      NOp   1
 Largest Abelian subgroup         C1      NOp   1
 Largest concise Abelian subgroup C1      NOp   1
                         Standard orientation:                         
 ---------------------------------------------------------------------
 Center     Atomic      Atomic             Coordinates (Angstroms)
 Number     Number       Type             X           Y           Z
 ---------------------------------------------------------------------
      1          6           0        5.462434    2.106096   -0.036800
      2          6           0        4.753433    1.146606    0.108946
      3          6           0        3.866794    0.004383    0.287373
      4          6           0        2.402701    0.419176    0.512238
      5          7           0        1.564498   -0.760337    0.699545
      6          6           0        0.147465   -0.480189    0.799763
      7          6           0       -0.633020   -1.478500    1.670246
      8          6           0       -2.088253   -1.167264    1.284182
      9          6           0       -1.990501   -0.532264   -0.148746
     10          6           0       -2.621848    0.867197   -0.232427
     11          6           0       -4.144001    0.874313   -0.051193
     12          6           0       -4.751714    2.275428   -0.165230
     13          7           0       -0.553912   -0.496173   -0.505336
     14          6           0       -0.110921   -1.545652   -1.439011
     15          6           0        0.822921   -1.010896   -2.526398
     16          1           0        6.098104    2.946055   -0.168789
     17          1           0        4.209456   -0.593390    1.143714
     18          1           0        3.918056   -0.657611   -0.585230
     19          1           0        2.039218    0.959017   -0.367112
     20          1           0        2.351276    1.123574    1.360334
     21          1           0        1.866357   -1.273154    1.520052
     22          1           0       -0.016590    0.527868    1.223893
     23          1           0       -0.435830   -1.356942    2.740238
     24          1           0       -0.351269   -2.500452    1.389827
     25          1           0       -2.524671   -0.453026    1.990356
     26          1           0       -2.723496   -2.056180    1.297553
     27          1           0       -2.508881   -1.167221   -0.874662
     28          1           0       -2.366966    1.293006   -1.210027
     29          1           0       -2.158876    1.523572    0.517532
     30          1           0       -4.408234    0.443372    0.923017
     31          1           0       -4.598703    0.216295   -0.804551
     32          1           0       -4.343770    2.946761    0.598721
     33          1           0       -5.839080    2.252240   -0.041375
     34          1           0       -4.536551    2.721249   -1.142656
     35          1           0       -0.999902   -1.964501   -1.922967
     36          1           0        0.385956   -2.374211   -0.915763
     37          1           0        0.353087   -0.179438   -3.060647
     38          1           0        1.061962   -1.799003   -3.249875
     39          1           0        1.762318   -0.652914   -2.098716
 ---------------------------------------------------------------------
 Rotational constants (GHZ):           0.9110154           0.2453177           0.2358192
 Standard basis: 6-31+G(2df,p) (6D, 7F)
 There are   645 symmetry adapted cartesian basis functions of A   symmetry.
 There are   600 symmetry adapted basis functions of A   symmetry.
   600 basis functions,   888 primitive gaussians,   645 cartesian basis functions
    58 alpha electrons       58 beta electrons
       nuclear repulsion energy      1021.9663194462 Hartrees.
 NAtoms=   39 NActive=   39 NUniq=   39 SFac= 1.00D+00 NAtFMM=   60 NAOKFM=F Big=F
 Integral buffers will be    131072 words long.
 Regular integral format.
 Two-electron integral symmetry is turned on.
 One-electron integrals computed using PRISM.
 PrsmSu:  requested number of processors reduced to:  12 ShMem   1 Linda.
 NBasis=   600 RedAO= T EigKep=  1.44D-06  NBF=   600
 NBsUse=   600 1.00D-06 EigRej= -1.00D+00 NBFU=   600
 ExpMin= 4.38D-02 ExpMax= 4.17D+03 ExpMxC= 6.27D+02 IAcc=3 IRadAn=         5 AccDes= 0.00D+00
 Harris functional with IExCor=  402 and IRadAn=       5 diagonalized for initial guess.
 HarFok:  IExCor=  402 AccDes= 0.00D+00 IRadAn=         5 IDoV= 1 UseB2=F ITyADJ=14
 ICtDFT=  3500011 ScaDFX=  1.000000  1.000000  1.000000  1.000000
 FoFCou: FMM=F IPFlag=           0 FMFlag=      100000 FMFlg1=           0
         NFxFlg=           0 DoJE=T BraDBF=F KetDBF=T FulRan=T
         wScrn=  0.000000 ICntrl=       500 IOpCl=  0 I1Cent=   200000004 NGrid=           0
         NMat0=    1 NMatS0=      1 NMatT0=    0 NMatD0=    1 NMtDS0=    0 NMtDT0=    0
 Petite list used in FoFCou.
 Requested convergence on RMS density matrix=1.00D-08 within 128 cycles.
 Requested convergence on MAX density matrix=1.00D-06.
 Requested convergence on             energy=1.00D-06.
 No special actions if energy rises.
 SCF Done:  E(RB3LYP) =  -619.322746550     A.U. after   14 cycles
            NFock= 14  Conv=0.32D-08     -V/T= 2.0086
 DoSCS=F DFT=T ScalE2(SS,OS)=  1.000000  1.000000
 ExpMin= 4.38D-02 ExpMax= 4.17D+03 ExpMxC= 6.27D+02 IAcc=3 IRadAn=         5 AccDes= 0.00D+00
 HarFok:  IExCor=  205 AccDes= 0.00D+00 IRadAn=         5 IDoV=-2 UseB2=F ITyADJ=14
 ICtDFT= 12500011 ScaDFX=  1.000000  1.000000  1.000000  1.000000
 Range of M.O.s used for correlation:    16   600
 NBasis=   600 NAE=    58 NBE=    58 NFC=    15 NFV=     0
 NROrb=    585 NOA=    43 NOB=    43 NVA=   542 NVB=   542

 **** Warning!!: The largest alpha MO coefficient is  0.15950816D+03

 Orbital symmetries:
       Occupied  (A) (A) (A) (A) (A) (A) (A) (A) (A) (A) (A) (A)
                 (A) (A) (A) (A) (A) (A) (A) (A) (A) (A) (A) (A)
                 (A) (A) (A) (A) (A) (A) (A) (A) (A) (A) (A) (A)
                 (A) (A) (A) (A) (A) (A) (A) (A) (A) (A) (A) (A)
                 (A) (A) (A) (A) (A) (A) (A) (A) (A) (A)
       Virtual   (A) (A) (A) (A) (A) (A) (A) (A) (A) (A) (A) (A)
                 (A) (A) (A) (A) (A) (A) (A) (A) (A) (A) (A) (A)
                 (A) (A) (A) (A) (A) (A) (A) (A) (A) (A) (A) (A)
                 (A) (A) (A) (A) (A) (A) (A) (A) (A) (A) (A) (A)
                 (A) (A) (A) (A) (A) (A) (A) (A) (A) (A) (A) (A)
                 (A) (A) (A) (A) (A) (A) (A) (A) (A) (A) (A) (A)
                 (A) (A) (A) (A) (A) (A) (A) (A) (A) (A) (A) (A)
                 (A) (A) (A) (A) (A) (A) (A) (A) (A) (A) (A) (A)
                 (A) (A) (A) (A) (A) (A) (A) (A) (A) (A) (A) (A)
                 (A) (A) (A) (A) (A) (A) (A) (A) (A) (A) (A) (A)
                 (A) (A) (A) (A) (A) (A) (A) (A) (A) (A) (A) (A)
                 (A) (A) (A) (A) (A) (A) (A) (A) (A) (A) (A) (A)
                 (A) (A) (A) (A) (A) (A) (A) (A) (A) (A) (A) (A)
                 (A) (A) (A) (A) (A) (A) (A) (A) (A) (A) (A) (A)
                 (A) (A) (A) (A) (A) (A) (A) (A) (A) (A) (A) (A)
                 (A) (A) (A) (A) (A) (A) (A) (A) (A) (A) (A) (A)
                 (A) (A) (A) (A) (A) (A) (A) (A) (A) (A) (A) (A)
                 (A) (A) (A) (A) (A) (A) (A) (A) (A) (A) (A) (A)
                 (A) (A) (A) (A) (A) (A) (A) (A) (A) (A) (A) (A)
                 (A) (A) (A) (A) (A) (A) (A) (A) (A) (A) (A) (A)
                 (A) (A) (A) (A) (A) (A) (A) (A) (A) (A) (A) (A)
                 (A) (A) (A) (A) (A) (A) (A) (A) (A) (A) (A) (A)
                 (A) (A) (A) (A) (A) (A) (A) (A) (A) (A) (A) (A)
                 (A) (A) (A) (A) (A) (A) (A) (A) (A) (A) (A) (A)
                 (A) (A) (A) (A) (A) (A) (A) (A) (A) (A) (A) (A)
                 (A) (A) (A) (A) (A) (A) (A) (A) (A) (A) (A) (A)
                 (A) (A) (A) (A) (A) (A) (A) (A) (A) (A) (A) (A)
                 (A) (A) (A) (A) (A) (A) (A) (A) (A) (A) (A) (A)
                 (A) (A) (A) (A) (A) (A) (A) (A) (A) (A) (A) (A)
                 (A) (A) (A) (A) (A) (A) (A) (A) (A) (A) (A) (A)
                 (A) (A) (A) (A) (A) (A) (A) (A) (A) (A) (A) (A)
                 (A) (A) (A) (A) (A) (A) (A) (A) (A) (A) (A) (A)
                 (A) (A) (A) (A) (A) (A) (A) (A) (A) (A) (A) (A)
                 (A) (A) (A) (A) (A) (A) (A) (A) (A) (A) (A) (A)
                 (A) (A) (A) (A) (A) (A) (A) (A) (A) (A) (A) (A)
                 (A) (A) (A) (A) (A) (A) (A) (A) (A) (A) (A) (A)
                 (A) (A) (A) (A) (A) (A) (A) (A) (A) (A) (A) (A)
                 (A) (A) (A) (A) (A) (A) (A) (A) (A) (A) (A) (A)
                 (A) (A) (A) (A) (A) (A) (A) (A) (A) (A) (A) (A)
                 (A) (A) (A) (A) (A) (A) (A) (A) (A) (A) (A) (A)
                 (A) (A) (A) (A) (A) (A) (A) (A) (A) (A) (A) (A)
                 (A) (A) (A) (A) (A) (A) (A) (A) (A) (A) (A) (A)
                 (A) (A) (A) (A) (A) (A) (A) (A) (A) (A) (A) (A)
                 (A) (A) (A) (A) (A) (A) (A) (A) (A) (A) (A) (A)
                 (A) (A) (A) (A) (A) (A) (A) (A) (A) (A) (A) (A)
                 (A) (A)
    40 initial guesses have been made.
 Convergence on wavefunction:    0.000001000000000
 Iteration     1 Dimension    40 NMult     0 NNew     40
 CISAX will form     3 AO SS matrices at one time.
 New state      5 was old state      8
 New state      6 was old state      5
 New state      7 was old state      6
 New state      8 was old state      7
 New state     10 was old state     11
 Iteration     2 Dimension    60 NMult    40 NNew     20
 Iteration     3 Dimension    80 NMult    60 NNew     20
 Iteration     4 Dimension   100 NMult    80 NNew     20
 Iteration     5 Dimension   120 NMult   100 NNew     20
 Iteration     6 Dimension   140 NMult   120 NNew     20
 Iteration     7 Dimension   160 NMult   140 NNew     20
 Iteration     8 Dimension   180 NMult   160 NNew     20
 Iteration     9 Dimension   200 NMult   180 NNew     20
 Iteration    10 Dimension   216 NMult   200 NNew     16
 Iteration    11 Dimension   228 NMult   216 NNew     12
 Iteration    12 Dimension   230 NMult   228 NNew      2
 Iteration    13 Dimension   232 NMult   230 NNew      2
 Iteration    14 Dimension   234 NMult   232 NNew      2
 ***********************************************************************
 Excited states from <AA,BB:AA,BB> singles matrix:
 ***********************************************************************
 
 Ground to excited state transition densities written to RWF  633
 Ground to excited state transition electric dipole moments (Au):
       state          X           Y           Z        Dip. S.      Osc.
         1         0.0481     -0.1110     -0.4182      0.1895      0.0229
         2        -0.0906     -0.0735     -0.0846      0.0208      0.0026
         3         0.0013     -0.1255      0.2010      0.0562      0.0072
         4         0.0149     -0.0241     -0.1555      0.0250      0.0034
         5         0.0096     -0.0189     -0.0954      0.0095      0.0013
         6        -0.0023      0.1883      0.0968      0.0448      0.0063
         7         0.3828     -0.0228     -0.2225      0.1966      0.0279
         8        -0.2187     -0.0088      0.1350      0.0661      0.0095
         9        -0.0041      0.1582      0.0472      0.0273      0.0040
        10         0.1695     -0.3956     -0.1723      0.2150      0.0321
 Ground to excited state transition velocity dipole moments (Au):
       state          X           Y           Z        Dip. S.      Osc.
         1        -0.0093      0.0178      0.0789      0.0066      0.0243
         2         0.0175      0.0126      0.0171      0.0008      0.0027
         3        -0.0001      0.0257     -0.0397      0.0022      0.0077
         4        -0.0023      0.0053      0.0321      0.0011      0.0035
         5        -0.0035      0.0039      0.0225      0.0005      0.0017
         6        -0.0013     -0.0392     -0.0213      0.0020      0.0064
         7        -0.0811      0.0059      0.0466      0.0088      0.0275
         8         0.0469      0.0016     -0.0308      0.0032      0.0097
         9         0.0011     -0.0336     -0.0098      0.0012      0.0037
        10        -0.0381      0.0876      0.0406      0.0108      0.0321
 Ground to excited state transition magnetic dipole moments (Au):
       state          X           Y           Z
         1         0.1416      0.1445     -0.0659
         2         0.3610     -0.1184      0.0372
         3         0.5052      0.1033     -0.1105
         4        -0.1783      0.1215     -0.0843
         5        -0.4051     -0.2017     -0.0318
         6         0.0016      0.0092     -0.0420
         7        -0.0098      0.1604     -0.0553
         8        -0.0891     -0.1468      0.0499
         9         0.2191     -0.0153      0.1500
        10        -0.0272     -0.3366      0.3619
 Ground to excited state transition velocity quadrupole moments (Au):
       state          XX          YY          ZZ          XY          XZ          YZ
         1         0.0331     -0.1410      0.1560      0.0095     -0.1304     -0.2710
         2        -0.0708     -0.0857     -0.0528     -0.0122     -0.2524     -0.2428
         3         0.0932     -0.0594     -0.1080     -0.0590      0.1240     -0.1749
         4         0.0558     -0.1252     -0.5803      0.0308      0.1209      0.0306
         5         0.1321     -0.1890      0.0553      0.0978      0.0839     -0.2006
         6        -0.1416      0.1634      0.1470      0.1984     -0.0063      0.0248
         7         0.2507      0.0327      0.1413      0.0556     -0.0163     -0.2201
         8        -0.0363      0.2284      0.0132     -0.2225     -0.0580      0.1903
         9        -0.1448     -0.0262      0.1847      0.1540     -0.0274     -0.0353
        10        -0.2203     -0.0892      0.1694      0.2430      0.1408      0.1999
 <0|del|b> * <b|rxdel|0> + <0|del|b> * <b|delr+rdel|0>
 Rotatory Strengths (R) in cgs (10**-40 erg-esu-cm/Gauss)
       state          XX          YY          ZZ    R(velocity)    E-M Angle
         1         0.8675     -9.2395     -6.9772     -5.1164      103.15
         2         3.9467      5.4316     10.9959      6.7914       58.66
         3        11.3208      3.7051     10.5958      8.5405       73.67
         4        -2.9943     -5.8646      3.0843     -1.9249      102.64
         5         0.6463     -1.3759      0.4406     -0.0963       90.00
         6        -6.6509      8.5958     -0.1427      0.6008       73.88
         7         1.7464     22.3691    -26.8934     -0.9260       93.01
         8         8.4901     -5.9798    -22.0035     -6.4977      126.33
         9        -5.4464      0.3909      2.7529     -0.7675       94.42
        10       -27.2828     -2.7737    -13.4168    -14.4911      105.55
 1/2[<0|r|b>*<b|rxdel|0> + (<0|rxdel|b>*<b|r|0>)*]
 Rotatory Strengths (R) in cgs (10**-40 erg-esu-cm/Gauss)
       state          XX          YY          ZZ     R(length)
         1        -4.8173     11.3430    -19.4845     -4.3196
         2        23.1260     -6.1515      2.2238      6.3994
         3        -0.4763      9.1617     15.7092      8.1315
         4         1.8816      2.0691     -9.2703     -1.7732
         5         2.7460     -2.6953     -2.1439     -0.6977
         6         0.0026     -1.2238      2.8769      0.5519
         7         2.6563      2.5852     -8.7028     -1.1538
         8       -13.7877     -0.9183     -4.7623     -6.4894
         9         0.6325      1.7111     -5.0065     -0.8876
        10         3.2586    -94.1679     44.0975    -15.6039
  1/2[<0|del|b>*<b|r|0> + (<0|r|b>*<b|del|0>)*] (Au)
       state          X           Y           Z        Dip. S.   Osc.(frdel)
         1        -0.0004     -0.0020     -0.0330      0.0354      0.0236
         2        -0.0016     -0.0009     -0.0014      0.0040      0.0026
         3        -0.0000     -0.0032     -0.0080      0.0112      0.0075
         4        -0.0000     -0.0001     -0.0050      0.0052      0.0034
         5        -0.0000     -0.0001     -0.0021      0.0022      0.0015
         6         0.0000     -0.0074     -0.0021      0.0095      0.0063
         7        -0.0310     -0.0001     -0.0104      0.0415      0.0277
         8        -0.0103     -0.0000     -0.0042      0.0144      0.0096
         9        -0.0000     -0.0053     -0.0005      0.0058      0.0039
        10        -0.0065     -0.0347     -0.0070      0.0481      0.0321

 Excitation energies and oscillator strengths:
 
 Excited State   1:      Singlet-A      4.9407 eV  250.95 nm  f=0.0229  <S**2>=0.000
      58 -> 59         0.68685
      58 -> 60         0.13620
 This state for optimization and/or second-order correction.
 Total Energy, E(TD-HF/TD-DFT) =  -619.141180501    
 Copying the excited state density for this state as the 1-particle RhoCI density.
 
 Excited State   2:      Singlet-A      5.1670 eV  239.95 nm  f=0.0026  <S**2>=0.000
      58 -> 59        -0.12511
      58 -> 60         0.61570
      58 -> 61         0.30449
 
 Excited State   3:      Singlet-A      5.2690 eV  235.31 nm  f=0.0072  <S**2>=0.000
      58 -> 60        -0.28475
      58 -> 61         0.62094
      58 -> 63         0.10009
 
 Excited State   4:      Singlet-A      5.5115 eV  224.96 nm  f=0.0034  <S**2>=0.000
      58 -> 62         0.66996
      58 -> 63        -0.10955
      58 -> 64        -0.10991
 
 Excited State   5:      Singlet-A      5.5974 eV  221.50 nm  f=0.0013  <S**2>=0.000
      57 -> 59         0.66231
      57 -> 60        -0.21151
 
 Excited State   6:      Singlet-A      5.7026 eV  217.42 nm  f=0.0063  <S**2>=0.000
      58 -> 62         0.14478
      58 -> 63         0.62059
      58 -> 64         0.21919
      58 -> 65        -0.13040
 
 Excited State   7:      Singlet-A      5.7962 eV  213.91 nm  f=0.0279  <S**2>=0.000
      58 -> 63        -0.26077
      58 -> 64         0.51079
      58 -> 65        -0.36147
      58 -> 68        -0.12929
 
 Excited State   8:      Singlet-A      5.8752 eV  211.03 nm  f=0.0095  <S**2>=0.000
      58 -> 64         0.36599
      58 -> 65         0.45622
      58 -> 66        -0.31830
      58 -> 68         0.17726
 
 Excited State   9:      Singlet-A      6.0039 eV  206.51 nm  f=0.0040  <S**2>=0.000
      58 -> 64         0.11049
      58 -> 65         0.32072
      58 -> 66         0.53400
      58 -> 68        -0.17242
      58 -> 69         0.15551
      58 -> 70        -0.16896
 
 Excited State  10:      Singlet-A      6.0949 eV  203.42 nm  f=0.0321  <S**2>=0.000
      57 -> 60        -0.19072
      57 -> 61         0.60684
      57 -> 63         0.16791
      58 -> 67         0.13429
 SavETr:  write IOETrn=   770 NScale= 10 NData=  16 NLR=1 NState=   10 LETran=     190.
          IDoAtm=111111111111111111111111111111111111111
          Differentiating once with respect to electric field.
                with respect to dipole field.
          Differentiating once with respect to nuclear coordinates.
          There are     1 degrees of freedom in the 1st order CPHF.  IDoFFX=0 NUNeed=     1.
 LinEq1:  Iter=  0 NonCon=     1 RMS=9.39D-03 Max=3.59D-01 NDo=     1
 AX will form     1 AO Fock derivatives at one time.
 LinEq1:  Iter=  1 NonCon=     1 RMS=2.44D-03 Max=4.10D-02 NDo=     1
 LinEq1:  Iter=  2 NonCon=     1 RMS=1.09D-03 Max=3.42D-02 NDo=     1
 LinEq1:  Iter=  3 NonCon=     1 RMS=6.11D-04 Max=2.71D-02 NDo=     1
 LinEq1:  Iter=  4 NonCon=     1 RMS=5.52D-04 Max=2.41D-02 NDo=     1
 LinEq1:  Iter=  5 NonCon=     1 RMS=2.87D-04 Max=8.14D-03 NDo=     1
 LinEq1:  Iter=  6 NonCon=     1 RMS=1.08D-04 Max=2.25D-03 NDo=     1
 LinEq1:  Iter=  7 NonCon=     1 RMS=4.64D-05 Max=6.52D-04 NDo=     1
 LinEq1:  Iter=  8 NonCon=     1 RMS=2.15D-05 Max=5.32D-04 NDo=     1
 LinEq1:  Iter=  9 NonCon=     1 RMS=7.59D-06 Max=1.46D-04 NDo=     1
 LinEq1:  Iter= 10 NonCon=     1 RMS=4.16D-06 Max=9.46D-05 NDo=     1
 LinEq1:  Iter= 11 NonCon=     1 RMS=1.56D-06 Max=4.07D-05 NDo=     1
 LinEq1:  Iter= 12 NonCon=     1 RMS=9.78D-07 Max=2.90D-05 NDo=     1
 LinEq1:  Iter= 13 NonCon=     1 RMS=4.32D-07 Max=1.35D-05 NDo=     1
 LinEq1:  Iter= 14 NonCon=     1 RMS=1.97D-07 Max=5.28D-06 NDo=     1
 LinEq1:  Iter= 15 NonCon=     1 RMS=8.40D-08 Max=1.63D-06 NDo=     1
 LinEq1:  Iter= 16 NonCon=     1 RMS=4.14D-08 Max=9.87D-07 NDo=     1
 LinEq1:  Iter= 17 NonCon=     1 RMS=1.69D-08 Max=3.82D-07 NDo=     1
 LinEq1:  Iter= 18 NonCon=     1 RMS=5.80D-09 Max=1.21D-07 NDo=     1
 LinEq1:  Iter= 19 NonCon=     1 RMS=2.67D-09 Max=5.28D-08 NDo=     1
 LinEq1:  Iter= 20 NonCon=     1 RMS=1.03D-09 Max=3.16D-08 NDo=     1
 LinEq1:  Iter= 21 NonCon=     1 RMS=3.62D-10 Max=1.24D-08 NDo=     1
 LinEq1:  Iter= 22 NonCon=     1 RMS=1.34D-10 Max=4.38D-09 NDo=     1
 LinEq1:  Iter= 23 NonCon=     1 RMS=5.56D-11 Max=1.37D-09 NDo=     1
 LinEq1:  Iter= 24 NonCon=     0 RMS=2.48D-11 Max=6.28D-10 NDo=     1
 Linear equations converged to 1.000D-10 1.000D-09 after    24 iterations.
 End of Minotr F.D. properties file   721 does not exist.
 End of Minotr F.D. properties file   722 does not exist.
 End of Minotr F.D. properties file   788 does not exist.

 **********************************************************************

            Population analysis using the SCF density.

 **********************************************************************

 Orbital symmetries:
       Occupied  (A) (A) (A) (A) (A) (A) (A) (A) (A) (A) (A) (A)
                 (A) (A) (A) (A) (A) (A) (A) (A) (A) (A) (A) (A)
                 (A) (A) (A) (A) (A) (A) (A) (A) (A) (A) (A) (A)
                 (A) (A) (A) (A) (A) (A) (A) (A) (A) (A) (A) (A)
                 (A) (A) (A) (A) (A) (A) (A) (A) (A) (A)
       Virtual   (A) (A) (A) (A) (A) (A) (A) (A) (A) (A) (A) (A)
                 (A) (A) (A) (A) (A) (A) (A) (A) (A) (A) (A) (A)
                 (A) (A) (A) (A) (A) (A) (A) (A) (A) (A) (A) (A)
                 (A) (A) (A) (A) (A) (A) (A) (A) (A) (A) (A) (A)
                 (A) (A) (A) (A) (A) (A) (A) (A) (A) (A) (A) (A)
                 (A) (A) (A) (A) (A) (A) (A) (A) (A) (A) (A) (A)
                 (A) (A) (A) (A) (A) (A) (A) (A) (A) (A) (A) (A)
                 (A) (A) (A) (A) (A) (A) (A) (A) (A) (A) (A) (A)
                 (A) (A) (A) (A) (A) (A) (A) (A) (A) (A) (A) (A)
                 (A) (A) (A) (A) (A) (A) (A) (A) (A) (A) (A) (A)
                 (A) (A) (A) (A) (A) (A) (A) (A) (A) (A) (A) (A)
                 (A) (A) (A) (A) (A) (A) (A) (A) (A) (A) (A) (A)
                 (A) (A) (A) (A) (A) (A) (A) (A) (A) (A) (A) (A)
                 (A) (A) (A) (A) (A) (A) (A) (A) (A) (A) (A) (A)
                 (A) (A) (A) (A) (A) (A) (A) (A) (A) (A) (A) (A)
                 (A) (A) (A) (A) (A) (A) (A) (A) (A) (A) (A) (A)
                 (A) (A) (A) (A) (A) (A) (A) (A) (A) (A) (A) (A)
                 (A) (A) (A) (A) (A) (A) (A) (A) (A) (A) (A) (A)
                 (A) (A) (A) (A) (A) (A) (A) (A) (A) (A) (A) (A)
                 (A) (A) (A) (A) (A) (A) (A) (A) (A) (A) (A) (A)
                 (A) (A) (A) (A) (A) (A) (A) (A) (A) (A) (A) (A)
                 (A) (A) (A) (A) (A) (A) (A) (A) (A) (A) (A) (A)
                 (A) (A) (A) (A) (A) (A) (A) (A) (A) (A) (A) (A)
                 (A) (A) (A) (A) (A) (A) (A) (A) (A) (A) (A) (A)
                 (A) (A) (A) (A) (A) (A) (A) (A) (A) (A) (A) (A)
                 (A) (A) (A) (A) (A) (A) (A) (A) (A) (A) (A) (A)
                 (A) (A) (A) (A) (A) (A) (A) (A) (A) (A) (A) (A)
                 (A) (A) (A) (A) (A) (A) (A) (A) (A) (A) (A) (A)
                 (A) (A) (A) (A) (A) (A) (A) (A) (A) (A) (A) (A)
                 (A) (A) (A) (A) (A) (A) (A) (A) (A) (A) (A) (A)
                 (A) (A) (A) (A) (A) (A) (A) (A) (A) (A) (A) (A)
                 (A) (A) (A) (A) (A) (A) (A) (A) (A) (A) (A) (A)
                 (A) (A) (A) (A) (A) (A) (A) (A) (A) (A) (A) (A)
                 (A) (A) (A) (A) (A) (A) (A) (A) (A) (A) (A) (A)
                 (A) (A) (A) (A) (A) (A) (A) (A) (A) (A) (A) (A)
                 (A) (A) (A) (A) (A) (A) (A) (A) (A) (A) (A) (A)
                 (A) (A) (A) (A) (A) (A) (A) (A) (A) (A) (A) (A)
                 (A) (A) (A) (A) (A) (A) (A) (A) (A) (A) (A) (A)
                 (A) (A) (A) (A) (A) (A) (A) (A) (A) (A) (A) (A)
                 (A) (A) (A) (A) (A) (A) (A) (A) (A) (A) (A) (A)
                 (A) (A) (A) (A) (A) (A) (A) (A) (A) (A) (A) (A)
                 (A) (A) (A) (A) (A) (A) (A) (A) (A) (A) (A) (A)
                 (A) (A) (A) (A) (A) (A) (A) (A) (A) (A) (A) (A)
                 (A) (A) (A) (A) (A) (A) (A) (A) (A) (A) (A) (A)
                 (A) (A) (A) (A) (A) (A) (A) (A) (A) (A) (A) (A)
                 (A) (A)
 The electronic state is 1-A.
 Alpha  occ. eigenvalues --  -14.32914 -14.31276 -10.23628 -10.21798 -10.21448
 Alpha  occ. eigenvalues --  -10.20853 -10.19846 -10.19211 -10.18565 -10.18352
 Alpha  occ. eigenvalues --  -10.18158 -10.18063 -10.17509 -10.17443 -10.16422
 Alpha  occ. eigenvalues --   -0.94751  -0.89472  -0.80037  -0.79580  -0.77646
 Alpha  occ. eigenvalues --   -0.73427  -0.72521  -0.70958  -0.66328  -0.63116
 Alpha  occ. eigenvalues --   -0.62041  -0.59701  -0.57211  -0.55244  -0.53171
 Alpha  occ. eigenvalues --   -0.51034  -0.49085  -0.48722  -0.46691  -0.45699
 Alpha  occ. eigenvalues --   -0.45043  -0.44427  -0.42463  -0.41823  -0.40965
 Alpha  occ. eigenvalues --   -0.40698  -0.39859  -0.38664  -0.38198  -0.36914
 Alpha  occ. eigenvalues --   -0.36505  -0.35880  -0.34920  -0.33985  -0.33857
 Alpha  occ. eigenvalues --   -0.33307  -0.32799  -0.31462  -0.31175  -0.27417
 Alpha  occ. eigenvalues --   -0.27325  -0.24200  -0.20999
 Alpha virt. eigenvalues --   -0.00282   0.00554   0.01013   0.01495   0.02143
 Alpha virt. eigenvalues --    0.02377   0.02621   0.02995   0.03490   0.03605
 Alpha virt. eigenvalues --    0.04104   0.04210   0.04700   0.05235   0.06171
 Alpha virt. eigenvalues --    0.06407   0.06821   0.07324   0.07401   0.07796
 Alpha virt. eigenvalues --    0.08117   0.08689   0.09028   0.09523   0.10072
 Alpha virt. eigenvalues --    0.10192   0.10773   0.11054   0.11288   0.11457
 Alpha virt. eigenvalues --    0.12040   0.12976   0.13467   0.13663   0.13887
 Alpha virt. eigenvalues --    0.14452   0.15094   0.15168   0.16053   0.16618
 Alpha virt. eigenvalues --    0.16875   0.17012   0.17873   0.18010   0.18311
 Alpha virt. eigenvalues --    0.18524   0.18799   0.19354   0.19532   0.19772
 Alpha virt. eigenvalues --    0.20383   0.20691   0.20781   0.21073   0.21297
 Alpha virt. eigenvalues --    0.21591   0.22359   0.22864   0.23353   0.23494
 Alpha virt. eigenvalues --    0.23654   0.23948   0.24510   0.25135   0.25701
 Alpha virt. eigenvalues --    0.26785   0.26938   0.27293   0.27468   0.27653
 Alpha virt. eigenvalues --    0.28236   0.28581   0.29040   0.29738   0.29929
 Alpha virt. eigenvalues --    0.30879   0.31224   0.31700   0.31871   0.32328
 Alpha virt. eigenvalues --    0.32636   0.33639   0.34412   0.35209   0.35576
 Alpha virt. eigenvalues --    0.36167   0.37362   0.37595   0.38270   0.39211
 Alpha virt. eigenvalues --    0.40106   0.40493   0.41003   0.41353   0.41988
 Alpha virt. eigenvalues --    0.42952   0.43788   0.44323   0.46101   0.48718
 Alpha virt. eigenvalues --    0.54692   0.55828   0.56848   0.57799   0.58299
 Alpha virt. eigenvalues --    0.59810   0.60564   0.61633   0.62322   0.62881
 Alpha virt. eigenvalues --    0.63816   0.64095   0.64317   0.64519   0.65434
 Alpha virt. eigenvalues --    0.65638   0.66262   0.67220   0.67506   0.67690
 Alpha virt. eigenvalues --    0.68742   0.69595   0.70503   0.70704   0.71838
 Alpha virt. eigenvalues --    0.72010   0.73159   0.73763   0.74002   0.75490
 Alpha virt. eigenvalues --    0.75747   0.76149   0.76938   0.77235   0.77918
 Alpha virt. eigenvalues --    0.78985   0.79816   0.79935   0.80521   0.80782
 Alpha virt. eigenvalues --    0.82533   0.82678   0.83690   0.84133   0.84639
 Alpha virt. eigenvalues --    0.85036   0.85408   0.85758   0.86294   0.86390
 Alpha virt. eigenvalues --    0.87305   0.87633   0.88104   0.89662   0.90402
 Alpha virt. eigenvalues --    0.92271   0.92336   0.94545   0.94901   0.95459
 Alpha virt. eigenvalues --    0.96770   0.97705   0.98499   0.99388   1.01385
 Alpha virt. eigenvalues --    1.01604   1.02469   1.03667   1.04444   1.05925
 Alpha virt. eigenvalues --    1.06267   1.06547   1.07086   1.08007   1.08293
 Alpha virt. eigenvalues --    1.09308   1.09911   1.11723   1.12933   1.13777
 Alpha virt. eigenvalues --    1.16120   1.16758   1.18324   1.19578   1.19927
 Alpha virt. eigenvalues --    1.20193   1.22108   1.22595   1.23508   1.24281
 Alpha virt. eigenvalues --    1.24403   1.24600   1.25664   1.27351   1.29169
 Alpha virt. eigenvalues --    1.30357   1.31429   1.33501   1.35745   1.37585
 Alpha virt. eigenvalues --    1.38005   1.38960   1.40338   1.41437   1.43980
 Alpha virt. eigenvalues --    1.44995   1.45781   1.47624   1.48124   1.50134
 Alpha virt. eigenvalues --    1.53182   1.53954   1.54709   1.56992   1.58124
 Alpha virt. eigenvalues --    1.59524   1.60840   1.60997   1.62476   1.62839
 Alpha virt. eigenvalues --    1.63984   1.64177   1.65575   1.67233   1.67759
 Alpha virt. eigenvalues --    1.68815   1.69615   1.71298   1.73718   1.75357
 Alpha virt. eigenvalues --    1.76852   1.77790   1.79200   1.80473   1.81677
 Alpha virt. eigenvalues --    1.81981   1.83836   1.84694   1.86205   1.86554
 Alpha virt. eigenvalues --    1.87892   1.88129   1.90057   1.91025   1.91978
 Alpha virt. eigenvalues --    1.94222   1.95544   1.95787   1.96784   1.97713
 Alpha virt. eigenvalues --    2.00555   2.01658   2.02382   2.03967   2.05824
 Alpha virt. eigenvalues --    2.07567   2.10144   2.13291   2.15319   2.17139
 Alpha virt. eigenvalues --    2.18237   2.18823   2.19364   2.21938   2.22635
 Alpha virt. eigenvalues --    2.25535   2.26887   2.28399   2.29621   2.33152
 Alpha virt. eigenvalues --    2.34747   2.36303   2.36939   2.38705   2.39599
 Alpha virt. eigenvalues --    2.39862   2.41045   2.41993   2.43232   2.45256
 Alpha virt. eigenvalues --    2.46461   2.48182   2.49486   2.50241   2.51961
 Alpha virt. eigenvalues --    2.54065   2.55353   2.56418   2.57578   2.60164
 Alpha virt. eigenvalues --    2.61689   2.64015   2.64899   2.66266   2.67378
 Alpha virt. eigenvalues --    2.67839   2.70568   2.71366   2.72605   2.74268
 Alpha virt. eigenvalues --    2.75588   2.77976   2.78743   2.79802   2.80907
 Alpha virt. eigenvalues --    2.81179   2.82108   2.83270   2.84696   2.85429
 Alpha virt. eigenvalues --    2.86065   2.87446   2.88588   2.89425   2.89867
 Alpha virt. eigenvalues --    2.91252   2.92938   2.94190   2.94860   2.95258
 Alpha virt. eigenvalues --    2.96782   2.97316   2.97586   2.98375   2.99396
 Alpha virt. eigenvalues --    3.00505   3.00952   3.02340   3.02498   3.03516
 Alpha virt. eigenvalues --    3.03919   3.04929   3.06118   3.06445   3.06728
 Alpha virt. eigenvalues --    3.08269   3.09144   3.09838   3.11005   3.13431
 Alpha virt. eigenvalues --    3.15101   3.16998   3.17232   3.19548   3.19899
 Alpha virt. eigenvalues --    3.21311   3.24025   3.25159   3.25884   3.26462
 Alpha virt. eigenvalues --    3.27441   3.27862   3.30962   3.33246   3.34470
 Alpha virt. eigenvalues --    3.35567   3.36792   3.37648   3.38362   3.40206
 Alpha virt. eigenvalues --    3.40581   3.43043   3.44616   3.46174   3.47127
 Alpha virt. eigenvalues --    3.48162   3.49080   3.49767   3.50600   3.51578
 Alpha virt. eigenvalues --    3.54156   3.54612   3.56822   3.57423   3.58145
 Alpha virt. eigenvalues --    3.58854   3.59647   3.61102   3.61796   3.63129
 Alpha virt. eigenvalues --    3.64003   3.65034   3.65257   3.68074   3.70132
 Alpha virt. eigenvalues --    3.71702   3.72538   3.74502   3.75742   3.76944
 Alpha virt. eigenvalues --    3.78073   3.78688   3.79466   3.80252   3.81182
 Alpha virt. eigenvalues --    3.82602   3.83690   3.86557   3.87531   3.92013
 Alpha virt. eigenvalues --    3.92614   3.94257   3.95505   3.96330   3.97272
 Alpha virt. eigenvalues --    3.99924   4.03641   4.04398   4.05243   4.07418
 Alpha virt. eigenvalues --    4.07661   4.10575   4.13124   4.17054   4.20001
 Alpha virt. eigenvalues --    4.21411   4.23520   4.25648   4.26982   4.28925
 Alpha virt. eigenvalues --    4.30587   4.33877   4.34701   4.37781   4.38908
 Alpha virt. eigenvalues --    4.39459   4.41119   4.42408   4.43401   4.43768
 Alpha virt. eigenvalues --    4.45196   4.46315   4.47743   4.49630   4.50784
 Alpha virt. eigenvalues --    4.51685   4.52496   4.53820   4.54694   4.55828
 Alpha virt. eigenvalues --    4.56516   4.58254   4.58394   4.58967   4.60044
 Alpha virt. eigenvalues --    4.60823   4.62610   4.63566   4.65144   4.65288
 Alpha virt. eigenvalues --    4.67671   4.67687   4.68197   4.68568   4.69098
 Alpha virt. eigenvalues --    4.69995   4.71787   4.73093   4.73208   4.73919
 Alpha virt. eigenvalues --    4.75091   4.75573   4.76287   4.77161   4.78707
 Alpha virt. eigenvalues --    4.79341   4.80285   4.80725   4.81879   4.83282
 Alpha virt. eigenvalues --    4.83790   4.84697   4.86171   4.87648   4.88151
 Alpha virt. eigenvalues --    4.88885   4.89428   4.89911   4.91093   4.92144
 Alpha virt. eigenvalues --    4.92745   4.92985   4.94658   4.96102   4.98743
 Alpha virt. eigenvalues --    4.98989   5.02356   5.02894   5.04931   5.07253
 Alpha virt. eigenvalues --    5.07992   5.10564   5.12055   5.14445   5.15763
 Alpha virt. eigenvalues --    5.16633   5.19509   5.20980   5.29078   5.30874
 Alpha virt. eigenvalues --    5.31703   5.32327   5.33203   5.34897   5.36208
 Alpha virt. eigenvalues --    5.37258   5.38921   5.40884   5.42250   5.46518
 Alpha virt. eigenvalues --    5.48757   5.51008   5.54253   5.56855   5.59867
 Alpha virt. eigenvalues --    5.64843   5.70874   5.74221   5.76471   5.97908
 Alpha virt. eigenvalues --    6.23411   6.31333   6.42442   6.89781   7.39787
 Alpha virt. eigenvalues --   10.54086  11.34217  11.37356  11.46404  11.60616
 Alpha virt. eigenvalues --   11.88401  11.94064  12.04911  12.15559  12.32143
 Alpha virt. eigenvalues --   12.47863  12.59791  12.62879  12.82929  13.31259
 Alpha virt. eigenvalues --   27.27934  31.97195
          Condensed to atoms (all electrons):
               1          2          3          4          5          6
     1  C   15.506390  -3.162503  -6.139181  -0.444449   0.069960  -0.152677
     2  C   -3.162503   9.361507  -0.636095   0.085217   0.070835  -0.352916
     3  C   -6.139181  -0.636095  12.918105   0.160515  -0.203612   0.471816
     4  C   -0.444449   0.085217   0.160515   6.471249   0.224104  -0.378804
     5  N    0.069960   0.070835  -0.203612   0.224104   6.867184  -0.225704
     6  C   -0.152677  -0.352916   0.471816  -0.378804  -0.225704  10.118498
     7  C    0.012158   0.027711  -0.164074  -0.392818   0.241758  -2.288806
     8  C    0.000560   0.012942  -0.032564   0.190509  -0.095123   0.852129
     9  C   -0.000549  -0.025543   0.087099  -0.248749   0.206548  -1.118548
    10  C    0.002348   0.005561  -0.019133  -0.062980  -0.035168  -0.373723
    11  C    0.000023   0.000142   0.001009   0.023106   0.001460   0.152224
    12  C    0.000040  -0.000014  -0.000206  -0.005893  -0.001272  -0.041007
    13  N    0.001450  -0.006283   0.041404  -0.063669  -0.126125   0.157300
    14  C    0.011962   0.033788  -0.063123   0.022965   0.065900  -0.869081
    15  C    0.000293  -0.010829   0.014307   0.015142  -0.031354   0.350158
    16  H    0.785996  -0.304670  -0.108127  -0.000237  -0.000065   0.000069
    17  H   -0.145196  -0.082850   0.548932   0.004710  -0.016524  -0.009055
    18  H   -0.148058  -0.093879   0.586179  -0.023919  -0.004583  -0.003277
    19  H   -0.010638   0.025934  -0.028092   0.430870  -0.056908  -0.043657
    20  H   -0.034377  -0.000746   0.002237   0.451291  -0.058258  -0.055332
    21  H    0.003524   0.023201  -0.027724  -0.037535   0.328329  -0.093160
    22  H    0.003318   0.014281  -0.031029   0.096007  -0.065783   0.304972
    23  H    0.000122   0.000789   0.000025  -0.030577   0.019075  -0.198439
    24  H    0.000067   0.000416  -0.001970  -0.003305   0.012753  -0.233760
    25  H   -0.000013  -0.000089  -0.000246   0.002603   0.002407   0.009279
    26  H   -0.000004  -0.000083   0.000143  -0.004958   0.000661  -0.034661
    27  H   -0.000006  -0.000005  -0.000337   0.004879  -0.004163   0.091803
    28  H   -0.000019  -0.000170  -0.000143  -0.006549   0.000034  -0.007515
    29  H   -0.000026   0.000069  -0.000143   0.014521  -0.000482   0.053791
    30  H   -0.000000  -0.000005   0.000003  -0.000668  -0.000005  -0.011591
    31  H   -0.000000  -0.000000  -0.000002   0.000149   0.000028   0.001629
    32  H   -0.000000  -0.000002   0.000004  -0.000044  -0.000002  -0.000757
    33  H    0.000000  -0.000000   0.000000  -0.000014  -0.000000  -0.000645
    34  H   -0.000000  -0.000001   0.000001  -0.000099  -0.000003  -0.000982
    35  H   -0.000040  -0.000361   0.000167  -0.005499  -0.007496   0.063546
    36  H   -0.000207  -0.002363   0.011746  -0.004831  -0.013449   0.065550
    37  H    0.000683   0.001312  -0.000246   0.002877  -0.002584   0.006655
    38  H   -0.000730  -0.003327   0.006102  -0.000537  -0.000299   0.001384
    39  H   -0.001440  -0.005996  -0.000166  -0.014394  -0.007558   0.056981
               7          8          9         10         11         12
     1  C    0.012158   0.000560  -0.000549   0.002348   0.000023   0.000040
     2  C    0.027711   0.012942  -0.025543   0.005561   0.000142  -0.000014
     3  C   -0.164074  -0.032564   0.087099  -0.019133   0.001009  -0.000206
     4  C   -0.392818   0.190509  -0.248749  -0.062980   0.023106  -0.005893
     5  N    0.241758  -0.095123   0.206548  -0.035168   0.001460  -0.001272
     6  C   -2.288806   0.852129  -1.118548  -0.373723   0.152224  -0.041007
     7  C    7.741220  -0.740612   0.663754   0.311921  -0.144492  -0.000019
     8  C   -0.740612   6.544873  -1.289944   0.011809   0.063770   0.025827
     9  C    0.663754  -1.289944  10.344118  -2.054442   0.537957  -0.298124
    10  C    0.311921   0.011809  -2.054442   8.035848  -0.884096   0.438995
    11  C   -0.144492   0.063770   0.537957  -0.884096   6.555123  -0.563265
    12  C   -0.000019   0.025827  -0.298124   0.438995  -0.563265   5.853479
    13  N    0.036856   0.114105  -0.267350   0.054076   0.004488  -0.005309
    14  C    0.278704  -0.105136   0.062198   0.084937  -0.027065  -0.007404
    15  C   -0.152012   0.064822  -0.194890  -0.048469   0.000363  -0.001245
    16  H   -0.000000   0.000000   0.000004  -0.000001   0.000000   0.000000
    17  H    0.000271   0.000299  -0.000352   0.000011  -0.000003   0.000000
    18  H    0.000912   0.000192   0.000006  -0.000248  -0.000003  -0.000000
    19  H   -0.005271   0.003597   0.001111   0.001883  -0.000073   0.000079
    20  H   -0.001817  -0.004398   0.012038  -0.008565   0.000039  -0.000049
    21  H    0.029049   0.010142  -0.002863   0.002204  -0.000121   0.000021
    22  H   -0.048492  -0.019350   0.036898   0.002227  -0.002892   0.001480
    23  H    0.591621  -0.152228   0.125111  -0.010564  -0.001365  -0.000153
    24  H    0.588124  -0.102607  -0.005508   0.017267  -0.004307   0.000057
    25  H   -0.025758   0.459494  -0.195852   0.080512  -0.045721  -0.001445
    26  H   -0.006422   0.429231  -0.076223   0.020110  -0.001686   0.000206
    27  H   -0.052346   0.080754   0.168419  -0.016083   0.003543   0.003563
    28  H    0.011708  -0.001563  -0.010010   0.385951  -0.026483  -0.014791
    29  H   -0.068722   0.056815  -0.117810   0.337824   0.014788   0.005604
    30  H   -0.002028   0.018619  -0.056115  -0.015134   0.340567   0.038829
    31  H   -0.006368   0.019817  -0.030678  -0.076933   0.368511   0.033810
    32  H   -0.000640   0.001777  -0.011774   0.028445  -0.148262   0.487672
    33  H    0.000307  -0.001019  -0.001518   0.008967  -0.078679   0.436255
    34  H    0.000087   0.000428  -0.012220   0.037058  -0.147765   0.480721
    35  H   -0.011354   0.015994   0.001131  -0.036181  -0.000901  -0.000463
    36  H   -0.069343   0.011344   0.013005  -0.016716   0.001813  -0.000067
    37  H   -0.003417   0.000660   0.017010  -0.010079   0.000508   0.000012
    38  H   -0.002674   0.000403  -0.001570  -0.000519   0.000226  -0.000005
    39  H   -0.007937   0.002310   0.005443  -0.002688   0.000005   0.000002
[...]
    18  H    3.217268   2.102720   1.096789   2.163455   2.682199
    19  H    3.659682   2.749902   2.163490   1.095602   2.097245
    20  H    3.585791   2.718153   2.166783   1.102393   2.143438
    21  H    5.184608   4.026614   2.670833   2.057491   1.021694
    22  H    5.915818   4.972166   4.050746   2.552914   2.111044
    23  H    7.403108   6.335228   5.123178   4.023220   2.901214
    24  H    7.586999   6.418571   5.037726   4.132313   2.693023
    25  H    8.690209   7.708673   6.643651   5.238511   4.309474
    26  H    9.346492   8.254750   7.008306   5.784374   4.551303
    27  H    8.737508   7.721971   6.629141   5.384896   4.433133
    28  H    7.983403   7.209692   6.514531   5.113738   4.812742
    29  H    7.700230   6.914509   6.193387   4.666203   4.344994
    30  H   10.107398   9.229614   8.318128   6.830282   6.111406
    31  H   10.301206   9.428462   8.534763   7.119788   6.428040
    32  H    9.864949   9.232587   8.678669   7.154705   6.941457
    33  H   11.306504  10.601799   9.929637   8.420371   8.006501
    34  H   10.064747   9.433011   8.888683   7.434202   7.225025
    35  H    7.856930   6.809928   5.684639   4.805331   3.890517
    36  H    6.748785   5.606025   4.311406   3.660894   2.548078
    37  H    6.341939   5.535556   4.867262   4.114303   4.016912
    38  H    6.560416   5.645581   4.784689   4.459442   4.103343
    39  H    4.963306   4.022627   3.211971   2.781776   2.801561
                    6          7          8          9         10
     6  C    0.000000
     7  C    1.531379   0.000000
     8  C    2.414790   1.548327   0.000000
     9  C    2.400699   2.465324   1.551393   0.000000
    10  C    3.266388   3.617674   2.604418   1.544518   0.000000
    11  C    4.603260   4.578427   3.208643   2.555028   1.530653
    12  C    5.705968   5.870615   4.602030   3.919866   2.539911
    13  N    1.486235   2.313157   2.387373   1.484892   2.496973
    14  C    2.538995   3.213206   3.443348   2.542873   3.666012
    15  C    3.432233   4.496940   4.816989   3.728223   4.443311
    16  H    6.996530   8.328898   9.370102   8.936920   9.048427
    17  H    4.052052   4.953743   6.338446   6.370255   7.095543
    18  H    4.021531   5.151185   6.333853   5.983426   6.728258
    19  H    2.684260   4.189892   4.973933   4.369861   4.663191
    20  H    2.780125   4.001083   5.028909   4.927524   5.204101
    21  H    2.011172   2.535736   3.997772   4.317656   5.276028
    22  H    1.103656   2.140929   2.677726   2.645335   2.977176
    23  H    2.165853   1.093036   2.227934   3.382750   4.301061
    24  H    2.158060   1.096454   2.209980   3.006210   4.387986
    25  H    2.934802   2.181992   1.093285   2.175257   2.584493
    26  H    3.340725   2.217349   1.095128   2.198026   3.320768
    27  H    3.272801   3.197237   2.203382   1.091671   2.147600
    28  H    3.691114   4.354916   3.525937   2.166834   1.098538
    29  H    3.064777   3.544975   2.800701   2.174530   1.097851
    30  H    4.678153   4.326949   2.870016   2.791795   2.166044
    31  H    5.088175   4.991681   3.565770   2.768781   2.158549
    32  H    5.647360   5.872063   4.753795   4.252658   2.811339
    33  H    6.639303   6.636997   5.259041   4.723974   3.490925
    34  H    5.995191   6.383370   5.208709   4.238617   2.805465
    35  H    3.361744   3.712653   3.555704   2.544862   3.686789
    36  H    2.566900   2.982860   3.594172   3.143978   4.458239
    37  H    3.885301   5.019042   5.076054   3.755958   4.109082
    38  H    4.347026   5.254649   5.591394   4.546497   5.363960
    39  H    3.293257   4.553254   5.149958   4.233359   4.880690
                   11         12         13         14         15
    11  C    0.000000
    12  C    1.531096   0.000000
    13  N    3.859382   5.033338   0.000000
    14  C    4.896925   6.105672   1.465234   0.000000
    15  C    5.773934   6.742257   2.511707   1.537115   0.000000
    16  H   10.532206  10.923624   7.631460   7.783751   6.946454
    17  H    8.546964   9.445798   5.052881   5.140163   5.019956
    18  H    8.229159   9.138310   4.519194   4.211679   3.687839
    19  H    6.190159   6.882807   3.054193   3.434045   3.025293
    20  H    6.632612   7.299617   3.842200   4.569866   4.584860
    21  H    6.588817   7.684670   3.244535   3.631694   4.231940
    22  H    4.310735   5.192274   2.076829   3.377234   4.066896
    23  H    5.165900   6.347249   3.281211   4.243047   5.431143
    24  H    5.308293   6.696460   2.692201   3.086018   4.442072
    25  H    2.934795   4.138704   3.121107   4.368551   5.626324
    26  H    3.557007   5.034313   3.154130   3.890234   5.373905
    27  H    2.733831   4.159604   2.094618   2.546740   3.764203
    28  H    2.157175   2.759810   2.675311   3.581954   4.005789
    29  H    2.168815   2.778476   2.776975   4.146199   4.829094
    30  H    1.096766   2.161549   4.193604   5.310989   6.376976
    31  H    1.098570   2.164086   4.105436   4.861014   5.756864
    32  H    2.182884   1.096092   5.231653   6.458765   7.058702
    33  H    2.175209   1.093995   5.959218   6.981967   7.690155
    34  H    2.183680   1.096303   5.161585   6.092129   6.499634
    35  H    4.656537   5.924897   2.081763   1.093309   2.163525
    36  H    5.654272   6.948577   2.067055   1.093505   2.169122
    37  H    5.386237   6.170211   2.780443   2.184417   1.094079
    38  H    6.595616   7.603834   3.429882   2.152062   1.092493
    39  H    6.326870   7.226464   2.825518   2.187858   1.091361
                   16         17         18         19         20
    16  H    0.000000
    17  H    4.191167   0.000000
    18  H    4.240449   1.757202   0.000000
    19  H    4.587447   3.063719   2.501076   0.000000
    20  H    4.488452   2.521533   3.070522   1.765744   0.000000
    21  H    6.220646   2.449027   2.992264   2.953208   2.458269
    22  H    6.825715   4.371231   4.514665   2.686332   2.471079
    23  H    8.378815   4.941893   5.499719   4.611626   3.982959
    24  H    8.628414   4.952521   5.049552   4.590072   4.544930
    25  H    9.606780   6.785728   6.953266   5.361615   5.183909
    26  H   10.337153   7.109259   7.067392   5.923985   6.027041
    27  H    9.680142   7.077389   6.505190   5.094713   5.851272
    28  H    8.763014   7.200765   6.605951   4.477224   5.333609
    29  H    8.489362   6.694406   6.540103   4.322258   4.569503
    30  H   10.946213   8.678551   8.549466   6.611069   6.807595
    31  H   11.136875   9.049196   8.574230   6.690844   7.320097
    32  H   10.522862   9.207515   9.061894   6.716653   6.918649
    33  H   12.011007  10.462188  10.175551   7.955374   8.334398
    34  H   10.722136   9.561257   9.086061   6.795819   7.427695
    35  H    8.822913   6.210511   5.249586   4.464843   5.608555
    36  H    7.777203   4.658544   3.855720   3.666541   4.555998
    37  H    7.160288   5.755256   4.444406   3.285363   4.935280
    38  H    7.444784   5.523483   4.029159   3.934033   5.485726
    39  H    5.882871   4.075760   2.681452   2.188881   3.792710
                   21         22         23         24         25
    21  H    0.000000
    22  H    2.631118   0.000000
    23  H    2.595367   2.424787   0.000000
    24  H    2.560207   3.047968   1.770356   0.000000
    25  H    4.511801   2.785965   2.413961   3.058804   0.000000
    26  H    4.705228   3.746322   2.828672   2.442517   1.767777
    27  H    5.046261   3.684725   4.190576   3.438677   2.943795
    28  H    5.648475   3.441897   5.119652   5.031500   3.647573
    29  H    4.982825   2.425553   3.997555   4.490755   2.483250
    30  H    6.561478   4.387103   4.757236   5.075598   2.360738
    31  H    7.055783   5.001114   5.713261   5.538239   3.554604
    32  H    7.541745   4.950867   6.188563   6.810328   4.107651
    33  H    8.611525   6.161394   7.079005   7.424595   4.745582
    34  H    7.980227   5.507208   6.957970   7.166494   4.899718
    35  H    4.592583   4.145868   4.800131   3.512873   4.522858
    36  H    3.083889   3.602958   3.936537   2.531823   4.590529
    37  H    4.996460   4.284979   5.957417   5.141809   5.766491
    38  H    4.903610   5.084395   6.212611   5.005390   6.486656
    39  H    3.707857   3.852602   5.340710   4.551994   5.879901
                   26         27         28         29         30
    26  H    0.000000
    27  H    2.353462   0.000000
    28  H    4.217899   2.504817   0.000000
    29  H    3.717165   3.057776   1.759245   0.000000
    30  H    3.076200   3.060255   3.067848   2.528062   0.000000
    31  H    3.653250   2.493465   2.506183   3.071162   1.754331
    32  H    5.334455   4.733147   3.129002   2.601911   2.528073
    33  H    5.516173   4.826998   3.762375   3.784158   2.495169
    34  H    5.691661   4.386459   2.574610   3.135798   3.082018
    35  H    3.748827   2.079497   3.581145   4.413980   5.102784
    36  H    3.932014   3.197614   4.543140   4.833949   5.903132
    37  H    5.680570   3.761341   3.435464   4.542145   6.140247
    38  H    6.000263   4.380726   4.904764   5.846118   7.200608
    39  H    5.833515   4.502785   4.495662   5.035266   6.877604
                   31         32         33         34         35
    31  H    0.000000
    32  H    3.083819   0.000000
    33  H    2.497694   1.769186   0.000000
    34  H    2.531568   1.769564   1.769787   0.000000
    35  H    4.382765   6.450529   6.692963   5.893897   0.000000
    36  H    5.643899   7.248917   7.799125   7.039092   1.778234
    37  H    5.354621   6.520909   7.123229   5.780702   2.532483
    38  H    6.438367   8.006194   8.501026   7.323032   2.454637
    39  H    6.469856   7.390872   8.233676   7.010195   3.079585
                   36         37         38         39
    36  H    0.000000
    37  H    3.082973   0.000000
    38  H    2.504264   1.772995   0.000000
    39  H    2.503493   1.776725   1.769696   0.000000
 Stoichiometry    C13H24N2
 Framework group  C1[X(C13H24N2)]
 Deg. of freedom   111
 Full point group                 C1      NOp   1
 Largest Abelian subgroup         C1      NOp   1
 Largest concise Abelian subgroup C1      NOp   1
                         Standard orientation:                         
 ---------------------------------------------------------------------
 Center     Atomic      Atomic             Coordinates (Angstroms)
 Number     Number       Type             X           Y           Z
 ---------------------------------------------------------------------
      1          6           0        5.519426    2.023686    0.276668
      2          6           0        4.749983    1.095936    0.253124
      3          6           0        3.862670   -0.060282    0.287214
      4          6           0        2.399026    0.326182    0.558138
      5          7           0        1.562191   -0.876956    0.583022
      6          6           0        0.154270   -0.641342    0.742005
      7          6           0       -0.649117   -1.758802    1.413549
      8          6           0       -2.115963   -1.391201    1.081061
      9          6           0       -2.043946   -0.546674   -0.218327
     10          6           0       -2.613194    0.883063   -0.086622
     11          6           0       -4.135053    0.891457    0.076999
     12          6           0       -4.695463    2.312421    0.182150
     13          7           0       -0.593784   -0.515110   -0.536031
     14          6           0       -0.106370   -1.242179   -1.711066
     15          6           0        0.804331   -0.400699   -2.619503
     16          1           0        6.215358    2.826337    0.306288
     17          1           0        4.191345   -0.763836    1.067803
     18          1           0        3.922728   -0.607078   -0.661656
     19          1           0        2.046288    0.991274   -0.237834
     20          1           0        2.343070    0.896000    1.500181
     21          1           0        1.872755   -1.510282    1.322147
     22          1           0       -0.044344    0.291630    1.297137
     23          1           0       -0.431326   -1.786947    2.484297
     24          1           0       -0.355908   -2.724187    0.984280
     25          1           0       -2.544984   -0.786834    1.884773
     26          1           0       -2.755495   -2.269869    0.945983
     27          1           0       -2.556754   -1.036303   -1.048409
     28          1           0       -2.343738    1.458574   -0.982706
     29          1           0       -2.139347    1.391321    0.763331
     30          1           0       -4.418970    0.317676    0.967540
     31          1           0       -4.594273    0.375171   -0.777064
     32          1           0       -4.281277    2.840694    1.048634
     33          1           0       -5.783836    2.293988    0.291372
     34          1           0       -4.458141    2.902212   -0.710994
     35          1           0       -0.974219   -1.585119   -2.280762
     36          1           0        0.439415   -2.114378   -1.340741
     37          1           0        0.289224    0.498720   -2.969816
     38          1           0        1.080256   -1.000324   -3.490054
     39          1           0        1.719729   -0.103365   -2.105004
 ---------------------------------------------------------------------
 Rotational constants (GHZ):           0.9140694           0.2449520           0.2357385
 Standard basis: 6-31+G(2df,p) (6D, 7F)
 There are   645 symmetry adapted cartesian basis functions of A   symmetry.
 There are   600 symmetry adapted basis functions of A   symmetry.
   600 basis functions,   888 primitive gaussians,   645 cartesian basis functions
    58 alpha electrons       58 beta electrons
       nuclear repulsion energy      1021.4681277865 Hartrees.
 NAtoms=   39 NActive=   39 NUniq=   39 SFac= 1.00D+00 NAtFMM=   60 NAOKFM=F Big=F
 Integral buffers will be    131072 words long.
 Regular integral format.
 Two-electron integral symmetry is turned on.
 One-electron integrals computed using PRISM.
 PrsmSu:  requested number of processors reduced to:  12 ShMem   1 Linda.
 NBasis=   600 RedAO= T EigKep=  1.53D-06  NBF=   600
 NBsUse=   600 1.00D-06 EigRej= -1.00D+00 NBFU=   600
 Initial guess from the checkpoint file:  "CtCCCNC1CCCqCCCrN1CC.chk"
 B after Tr=     0.000000    0.000000   -0.000000
         Rot=    0.996134   -0.087805   -0.000106    0.002565 Ang= -10.08 deg.
 ExpMin= 4.38D-02 ExpMax= 4.17D+03 ExpMxC= 6.27D+02 IAcc=2 IRadAn=         4 AccDes= 0.00D+00
 Harris functional with IExCor=  402 and IRadAn=       4 diagonalized for initial guess.
 HarFok:  IExCor=  402 AccDes= 0.00D+00 IRadAn=         4 IDoV= 1 UseB2=F ITyADJ=14
 ICtDFT=  3500011 ScaDFX=  1.000000  1.000000  1.000000  1.000000
 FoFCou: FMM=F IPFlag=           0 FMFlag=      100000 FMFlg1=           0
         NFxFlg=           0 DoJE=T BraDBF=F KetDBF=T FulRan=T
         wScrn=  0.000000 ICntrl=       500 IOpCl=  0 I1Cent=   200000004 NGrid=           0
         NMat0=    1 NMatS0=      1 NMatT0=    0 NMatD0=    1 NMtDS0=    0 NMtDT0=    0
 Petite list used in FoFCou.
 Requested convergence on RMS density matrix=1.00D-08 within 128 cycles.
 Requested convergence on MAX density matrix=1.00D-06.
 Requested convergence on             energy=1.00D-06.
 No special actions if energy rises.
 SCF Done:  E(RB3LYP) =  -619.316533404     A.U. after   12 cycles
            NFock= 12  Conv=0.61D-08     -V/T= 2.0087
 DoSCS=F DFT=T ScalE2(SS,OS)=  1.000000  1.000000
 ExpMin= 4.38D-02 ExpMax= 4.17D+03 ExpMxC= 6.27D+02 IAcc=3 IRadAn=         5 AccDes= 0.00D+00
 HarFok:  IExCor=  205 AccDes= 0.00D+00 IRadAn=         5 IDoV=-2 UseB2=F ITyADJ=14
 ICtDFT= 12500011 ScaDFX=  1.000000  1.000000  1.000000  1.000000
 Range of M.O.s used for correlation:    16   600
 NBasis=   600 NAE=    58 NBE=    58 NFC=    15 NFV=     0
 NROrb=    585 NOA=    43 NOB=    43 NVA=   542 NVB=   542

 **** Warning!!: The largest alpha MO coefficient is  0.15939159D+03

 Orbital symmetries:
       Occupied  (A) (A) (A) (A) (A) (A) (A) (A) (A) (A) (A) (A)
                 (A) (A) (A) (A) (A) (A) (A) (A) (A) (A) (A) (A)
                 (A) (A) (A) (A) (A) (A) (A) (A) (A) (A) (A) (A)
                 (A) (A) (A) (A) (A) (A) (A) (A) (A) (A) (A) (A)
                 (A) (A) (A) (A) (A) (A) (A) (A) (A) (A)
       Virtual   (A) (A) (A) (A) (A) (A) (A) (A) (A) (A) (A) (A)
                 (A) (A) (A) (A) (A) (A) (A) (A) (A) (A) (A) (A)
                 (A) (A) (A) (A) (A) (A) (A) (A) (A) (A) (A) (A)
                 (A) (A) (A) (A) (A) (A) (A) (A) (A) (A) (A) (A)
                 (A) (A) (A) (A) (A) (A) (A) (A) (A) (A) (A) (A)
                 (A) (A) (A) (A) (A) (A) (A) (A) (A) (A) (A) (A)
                 (A) (A) (A) (A) (A) (A) (A) (A) (A) (A) (A) (A)
                 (A) (A) (A) (A) (A) (A) (A) (A) (A) (A) (A) (A)
                 (A) (A) (A) (A) (A) (A) (A) (A) (A) (A) (A) (A)
                 (A) (A) (A) (A) (A) (A) (A) (A) (A) (A) (A) (A)
                 (A) (A) (A) (A) (A) (A) (A) (A) (A) (A) (A) (A)
                 (A) (A) (A) (A) (A) (A) (A) (A) (A) (A) (A) (A)
                 (A) (A) (A) (A) (A) (A) (A) (A) (A) (A) (A) (A)
                 (A) (A) (A) (A) (A) (A) (A) (A) (A) (A) (A) (A)
                 (A) (A) (A) (A) (A) (A) (A) (A) (A) (A) (A) (A)
                 (A) (A) (A) (A) (A) (A) (A) (A) (A) (A) (A) (A)
                 (A) (A) (A) (A) (A) (A) (A) (A) (A) (A) (A) (A)
                 (A) (A) (A) (A) (A) (A) (A) (A) (A) (A) (A) (A)
                 (A) (A) (A) (A) (A) (A) (A) (A) (A) (A) (A) (A)
                 (A) (A) (A) (A) (A) (A) (A) (A) (A) (A) (A) (A)
                 (A) (A) (A) (A) (A) (A) (A) (A) (A) (A) (A) (A)
                 (A) (A) (A) (A) (A) (A) (A) (A) (A) (A) (A) (A)
                 (A) (A) (A) (A) (A) (A) (A) (A) (A) (A) (A) (A)
                 (A) (A) (A) (A) (A) (A) (A) (A) (A) (A) (A) (A)
                 (A) (A) (A) (A) (A) (A) (A) (A) (A) (A) (A) (A)
                 (A) (A) (A) (A) (A) (A) (A) (A) (A) (A) (A) (A)
                 (A) (A) (A) (A) (A) (A) (A) (A) (A) (A) (A) (A)
                 (A) (A) (A) (A) (A) (A) (A) (A) (A) (A) (A) (A)
                 (A) (A) (A) (A) (A) (A) (A) (A) (A) (A) (A) (A)
                 (A) (A) (A) (A) (A) (A) (A) (A) (A) (A) (A) (A)
                 (A) (A) (A) (A) (A) (A) (A) (A) (A) (A) (A) (A)
                 (A) (A) (A) (A) (A) (A) (A) (A) (A) (A) (A) (A)
                 (A) (A) (A) (A) (A) (A) (A) (A) (A) (A) (A) (A)
                 (A) (A) (A) (A) (A) (A) (A) (A) (A) (A) (A) (A)
                 (A) (A) (A) (A) (A) (A) (A) (A) (A) (A) (A) (A)
                 (A) (A) (A) (A) (A) (A) (A) (A) (A) (A) (A) (A)
                 (A) (A) (A) (A) (A) (A) (A) (A) (A) (A) (A) (A)
                 (A) (A) (A) (A) (A) (A) (A) (A) (A) (A) (A) (A)
                 (A) (A) (A) (A) (A) (A) (A) (A) (A) (A) (A) (A)
                 (A) (A) (A) (A) (A) (A) (A) (A) (A) (A) (A) (A)
                 (A) (A) (A) (A) (A) (A) (A) (A) (A) (A) (A) (A)
                 (A) (A) (A) (A) (A) (A) (A) (A) (A) (A) (A) (A)
                 (A) (A) (A) (A) (A) (A) (A) (A) (A) (A) (A) (A)
                 (A) (A) (A) (A) (A) (A) (A) (A) (A) (A) (A) (A)
                 (A) (A) (A) (A) (A) (A) (A) (A) (A) (A) (A) (A)
                 (A) (A)
 Generating guess from densities on rwf.
 Convergence on wavefunction:    0.000001000000000
 Iteration     1 Dimension    20 NMult     0 NNew     20
 CISAX will form     3 AO SS matrices at one time.
 New state      2 was old state      3
 New state      3 was old state      6
 New state      5 was old state      7
 New state      6 was old state      5
 New state      7 was old state      9
 New state      8 was old state      2
 New state      9 was old state     10
 New state     10 was old state      8
 Iteration     2 Dimension    40 NMult    20 NNew     20
slurmstepd: error: *** JOB 27500742 ON lewis4-r630-hpc4-node237 CANCELLED AT 2023-05-26T08:22:05 DUE TO TIME LIMIT ***
