### Starting Gaussian ###
 Entering Gaussian System, Link 0=g16
 Initial command:
 /cluster/software/gaussian/gaussian-16-A.03/avx2/g16/l1.exe "/local/scratch/yxie/Gau-5169.inp" -scrdir="/local/scratch/yxie/"
 Entering Link 1 = /cluster/software/gaussian/gaussian-16-A.03/avx2/g16/l1.exe PID=      5170.
  
 Copyright (c) 1988,1990,1992,1993,1995,1998,2003,2009,2016,
            Gaussian, Inc.  All Rights Reserved.
  
 This is part of the Gaussian(R) 16 program.  It is based on
 the Gaussian(R) 09 system (copyright 2009, Gaussian, Inc.),
 the Gaussian(R) 03 system (copyright 2003, Gaussian, Inc.),
 the Gaussian(R) 98 system (copyright 1998, Gaussian, Inc.),
 the Gaussian(R) 94 system (copyright 1995, Gaussian, Inc.),
 the Gaussian 92(TM) system (copyright 1992, Gaussian, Inc.),
 the Gaussian 90(TM) system (copyright 1990, Gaussian, Inc.),
 the Gaussian 88(TM) system (copyright 1988, Gaussian, Inc.),
 the Gaussian 86(TM) system (copyright 1986, Carnegie Mellon
 University), and the Gaussian 82(TM) system (copyright 1983,
 Carnegie Mellon University). Gaussian is a federally registered
 trademark of Gaussian, Inc.
  
 This software contains proprietary and confidential information,
 including trade secrets, belonging to Gaussian, Inc.
  
 This software is provided under written license and may be
 used, copied, transmitted, or stored only in accord with that
 written license.
  
 The following legend is applicable only to US Government
 contracts under FAR:
  
                    RESTRICTED RIGHTS LEGEND
  
 Use, reproduction and disclosure by the US Government is
 subject to restrictions as set forth in subparagraphs (a)
 and (c) of the Commercial Computer Software - Restricted
 Rights clause in FAR 52.227-19.
  
 Gaussian, Inc.
 340 Quinnipiac St., Bldg. 40, Wallingford CT 06492
  
  
 ---------------------------------------------------------------
 Warning -- This program may not be used in any manner that
 competes with the business of Gaussian, Inc. or will provide
 assistance to any competitor of Gaussian, Inc.  The licensee
 of this program is prohibited from giving any competitor of
 Gaussian, Inc. access to this program.  By using this program,
 the user acknowledges that Gaussian, Inc. is engaged in the
 business of creating and licensing software in the field of
 computational chemistry and represents and warrants to the
 licensee that it is not a competitor of Gaussian, Inc. and that
 it will not use this program in any manner prohibited above.
 ---------------------------------------------------------------
  

 Cite this work as:
 Gaussian 16, Revision A.03,
 M. J. Frisch, G. W. Trucks, H. B. Schlegel, G. E. Scuseria, 
 M. A. Robb, J. R. Cheeseman, G. Scalmani, V. Barone, 
 G. A. Petersson, H. Nakatsuji, X. Li, M. Caricato, A. V. Marenich, 
 J. Bloino, B. G. Janesko, R. Gomperts, B. Mennucci, H. P. Hratchian, 
 J. V. Ortiz, A. F. Izmaylov, J. L. Sonnenberg, D. Williams-Young, 
 F. Ding, F. Lipparini, F. Egidi, J. Goings, B. Peng, A. Petrone, 
 T. Henderson, D. Ranasinghe, V. G. Zakrzewski, J. Gao, N. Rega, 
 G. Zheng, W. Liang, M. Hada, M. Ehara, K. Toyota, R. Fukuda, 
 J. Hasegawa, M. Ishida, T. Nakajima, Y. Honda, O. Kitao, H. Nakai, 
 T. Vreven, K. Throssell, J. A. Montgomery, Jr., J. E. Peralta, 
 F. Ogliaro, M. J. Bearpark, J. J. Heyd, E. N. Brothers, K. N. Kudin, 
 V. N. Staroverov, T. A. Keith, R. Kobayashi, J. Normand, 
 K. Raghavachari, A. P. Rendell, J. C. Burant, S. S. Iyengar, 
 J. Tomasi, M. Cossi, J. M. Millam, M. Klene, C. Adamo, R. Cammi, 
 J. W. Ochterski, R. L. Martin, K. Morokuma, O. Farkas, 
 J. B. Foresman, and D. J. Fox, Gaussian, Inc., Wallingford CT, 2016.
 
 ******************************************
 Gaussian 16:  ES64L-G16RevA.03 25-Dec-2016
                28-May-2023 
 ******************************************
 %chk=CtCCCCCOCqCrqOrCqCrO.chk
 %NProcShared=20
 Will use up to   20 processors via shared memory.
 -----------------------------
 # opt freq b3lyp/6-31g(2df,p)
 -----------------------------
 1/18=20,19=15,26=3,38=1/1,3;
 2/9=110,12=2,17=6,18=5,40=1/2;
 3/5=1,6=6,7=104,11=2,25=1,30=1,71=1,74=-5/1,2,3;
 4//1;
 5/5=2,38=5/2;
 6/7=2,8=2,9=2,10=2,28=1/1;
 7//1,2,3,16;
 1/18=20,19=15,26=3/3(2);
 2/9=110/2;
 99//99;
 2/9=110/2;
 3/5=1,6=6,7=104,11=2,25=1,30=1,71=1,74=-5/1,2,3;
 4/5=5,16=3,69=1/1;
 5/5=2,38=5/2;
 7//1,2,3,16;
 1/18=20,19=15,26=3/3(-5);
 2/9=110/2;
 6/7=2,8=2,9=2,10=2,19=2,28=1/1;
 99/9=1/99;
 -------------------
 Title Card Required
 -------------------
 Symbolic Z-matrix:
 Charge =  0 Multiplicity = 1
 C                     1.06472   0.01863  -0.07392 
 C                     2.36858   0.01863  -0.07392 
 C                     3.88858   0.01863  -0.07392 
 C                     4.40826  -1.05991  -0.9789 
 C                     5.92905  -1.04719  -0.97982 
 C                     6.38444  -2.15412  -1.89745 
 O                     7.79922  -2.22769  -1.93586 
 C                     8.28865  -3.27139  -2.78848 
 C                     7.76465  -4.648    -2.34487 
 O                     7.90086  -3.00784  -4.13474 
 C                     9.85358  -3.23143  -2.74462 
 C                     10.416   -3.42572  -1.3391 
 O                     10.45899  -4.21331  -3.60221 
 H                    -0.00101   0.02048  -0.07315 
 H                     4.23705  -0.1297    0.9547 
 H                     4.23538   1.0052   -0.40263 
 H                     4.0268   -0.9112   -1.99759 
 H                     4.03548  -2.03735  -0.64457 
 H                     6.32365  -1.20725   0.03118 
 H                     6.31954  -0.08057  -1.31879 
 H                     5.98456  -1.97057  -2.89995 
 H                     5.96777  -3.08552  -1.50688 
 H                     6.6775   -4.72633  -2.44 
 H                     8.0008   -4.8371   -1.29248 
 H                     8.15987  -5.45654  -2.96273 
 H                     6.95798  -3.22422  -4.22329 
 H                     10.18946  -2.25649  -3.11828 
 H                     10.15131  -4.4091   -0.93751 
 H                     10.0549  -2.6568   -0.65039 
 H                     11.50998  -3.3943   -1.35887 
 H                     10.12813  -5.08868  -3.3497 
 

 GradGradGradGradGradGradGradGradGradGradGradGradGradGradGradGradGradGrad
 Berny optimization.
 Initialization pass.
                           ----------------------------
                           !    Initial Parameters    !
                           ! (Angstroms and Degrees)  !
 --------------------------                            --------------------------
 ! Name  Definition              Value          Derivative Info.                !
 --------------------------------------------------------------------------------
 ! R1    R(1,2)                  1.3039         estimate D2E/DX2                !
 ! R2    R(1,14)                 1.0657         estimate D2E/DX2                !
 ! R3    R(2,3)                  1.52           estimate D2E/DX2                !
 ! R4    R(3,4)                  1.5008         estimate D2E/DX2                !
 ! R5    R(3,15)                 1.0961         estimate D2E/DX2                !
 ! R6    R(3,16)                 1.0962         estimate D2E/DX2                !
 ! R7    R(4,5)                  1.5208         estimate D2E/DX2                !
 ! R8    R(4,17)                 1.0979         estimate D2E/DX2                !
 ! R9    R(4,18)                 1.0982         estimate D2E/DX2                !
 ! R10   R(5,6)                  1.5082         estimate D2E/DX2                !
 ! R11   R(5,19)                 1.097          estimate D2E/DX2                !
 ! R12   R(5,20)                 1.0962         estimate D2E/DX2                !
 ! R13   R(6,7)                  1.4172         estimate D2E/DX2                !
 ! R14   R(6,21)                 1.0948         estimate D2E/DX2                !
 ! R15   R(6,22)                 1.0925         estimate D2E/DX2                !
 ! R16   R(7,8)                  1.4338         estimate D2E/DX2                !
 ! R17   R(8,9)                  1.5383         estimate D2E/DX2                !
 ! R18   R(8,10)                 1.4256         estimate D2E/DX2                !
 ! R19   R(8,11)                 1.5661         estimate D2E/DX2                !
 ! R20   R(9,23)                 1.0941         estimate D2E/DX2                !
 ! R21   R(9,24)                 1.095          estimate D2E/DX2                !
 ! R22   R(9,25)                 1.0916         estimate D2E/DX2                !
 ! R23   R(10,26)                0.9714         estimate D2E/DX2                !
 ! R24   R(11,12)                1.5263         estimate D2E/DX2                !
 ! R25   R(11,13)                1.4374         estimate D2E/DX2                !
 ! R26   R(11,27)                1.0968         estimate D2E/DX2                !
 ! R27   R(12,28)                1.0947         estimate D2E/DX2                !
 ! R28   R(12,29)                1.0936         estimate D2E/DX2                !
 ! R29   R(12,30)                1.0946         estimate D2E/DX2                !
 ! R30   R(13,31)                0.9693         estimate D2E/DX2                !
 ! A1    A(2,3,4)              110.2597         estimate D2E/DX2                !
 ! A2    A(2,3,15)             108.5366         estimate D2E/DX2                !
 ! A3    A(2,3,16)             108.4434         estimate D2E/DX2                !
 ! A4    A(4,3,15)             111.0105         estimate D2E/DX2                !
 ! A5    A(4,3,16)             110.8804         estimate D2E/DX2                !
 ! A6    A(15,3,16)            107.6144         estimate D2E/DX2                !
 ! A7    A(3,4,5)              109.9145         estimate D2E/DX2                !
 ! A8    A(3,4,17)             109.99           estimate D2E/DX2                !
 ! A9    A(3,4,18)             109.7856         estimate D2E/DX2                !
 ! A10   A(5,4,17)             110.2271         estimate D2E/DX2                !
 ! A11   A(5,4,18)             110.307          estimate D2E/DX2                !
 ! A12   A(17,4,18)            106.5636         estimate D2E/DX2                !
 ! A13   A(4,5,6)              107.227          estimate D2E/DX2                !
 ! A14   A(4,5,19)             110.972          estimate D2E/DX2                !
 ! A15   A(4,5,20)             111.3312         estimate D2E/DX2                !
 ! A16   A(6,5,19)             110.1831         estimate D2E/DX2                !
 ! A17   A(6,5,20)             110.5772         estimate D2E/DX2                !
 ! A18   A(19,5,20)            106.5882         estimate D2E/DX2                !
 ! A19   A(5,6,7)              110.8554         estimate D2E/DX2                !
 ! A20   A(5,6,21)             108.8924         estimate D2E/DX2                !
 ! A21   A(5,6,22)             107.0392         estimate D2E/DX2                !
 ! A22   A(7,6,21)             110.3963         estimate D2E/DX2                !
 ! A23   A(7,6,22)             110.2522         estimate D2E/DX2                !
 ! A24   A(21,6,22)            109.3278         estimate D2E/DX2                !
 ! A25   A(6,7,8)              113.2452         estimate D2E/DX2                !
 ! A26   A(7,8,9)              111.3242         estimate D2E/DX2                !
 ! A27   A(7,8,10)             109.5203         estimate D2E/DX2                !
 ! A28   A(7,8,11)             107.8109         estimate D2E/DX2                !
 ! A29   A(9,8,10)             110.1884         estimate D2E/DX2                !
 ! A30   A(9,8,11)             110.8023         estimate D2E/DX2                !
 ! A31   A(10,8,11)            107.0712         estimate D2E/DX2                !
 ! A32   A(8,9,23)             112.1763         estimate D2E/DX2                !
 ! A33   A(8,9,24)             110.9914         estimate D2E/DX2                !
 ! A34   A(8,9,25)             112.1025         estimate D2E/DX2                !
 ! A35   A(23,9,24)            106.588          estimate D2E/DX2                !
 ! A36   A(23,9,25)            104.9218         estimate D2E/DX2                !
 ! A37   A(24,9,25)            109.7536         estimate D2E/DX2                !
 ! A38   A(8,10,26)            107.9949         estimate D2E/DX2                !
 ! A39   A(8,11,12)            113.0022         estimate D2E/DX2                !
 ! A40   A(8,11,13)            112.7522         estimate D2E/DX2                !
 ! A41   A(8,11,27)            108.6121         estimate D2E/DX2                !
 ! A42   A(12,11,13)           107.8945         estimate D2E/DX2                !
 ! A43   A(12,11,27)           108.3027         estimate D2E/DX2                !
 ! A44   A(13,11,27)           105.9599         estimate D2E/DX2                !
 ! A45   A(11,12,28)           111.2892         estimate D2E/DX2                !
 ! A46   A(11,12,29)           111.6392         estimate D2E/DX2                !
 ! A47   A(11,12,30)           110.3645         estimate D2E/DX2                !
 ! A48   A(28,12,29)           108.7079         estimate D2E/DX2                !
 ! A49   A(28,12,30)           105.9062         estimate D2E/DX2                !
 ! A50   A(29,12,30)           108.7353         estimate D2E/DX2                !
 ! A51   A(11,13,31)           108.525          estimate D2E/DX2                !
 ! A52   L(2,1,14,23,-1)       180.1075         estimate D2E/DX2                !
 ! A53   L(1,2,3,17,-1)        180.0            estimate D2E/DX2                !
 ! A54   L(2,1,14,23,-2)       180.0107         estimate D2E/DX2                !
 ! A55   L(1,2,3,17,-2)        180.0            estimate D2E/DX2                !
 ! D1    D(2,3,4,5)            179.6441         estimate D2E/DX2                !
 ! D2    D(2,3,4,17)            58.104          estimate D2E/DX2                !
 ! D3    D(2,3,4,18)           -58.8485         estimate D2E/DX2                !
 ! D4    D(15,3,4,5)           -60.0393         estimate D2E/DX2                !
 ! D5    D(15,3,4,17)          178.4205         estimate D2E/DX2                !
 ! D6    D(15,3,4,18)           61.4681         estimate D2E/DX2                !
 ! D7    D(16,3,4,5)            59.529          estimate D2E/DX2                !
 ! D8    D(16,3,4,17)          -62.0112         estimate D2E/DX2                !
 ! D9    D(16,3,4,18)         -178.9637         estimate D2E/DX2                !
 ! D10   D(3,4,5,6)            179.6771         estimate D2E/DX2                !
 ! D11   D(3,4,5,19)            59.299          estimate D2E/DX2                !
 ! D12   D(3,4,5,20)           -59.2502         estimate D2E/DX2                !
 ! D13   D(17,4,5,6)           -58.9246         estimate D2E/DX2                !
 ! D14   D(17,4,5,19)         -179.3027         estimate D2E/DX2                !
 ! D15   D(17,4,5,20)           62.1481         estimate D2E/DX2                !
 ! D16   D(18,4,5,6)            58.482          estimate D2E/DX2                !
 ! D17   D(18,4,5,19)          -61.8961         estimate D2E/DX2                !
 ! D18   D(18,4,5,20)          179.5547         estimate D2E/DX2                !
 ! D19   D(4,5,6,7)           -178.8998         estimate D2E/DX2                !
 ! D20   D(4,5,6,21)            59.4616         estimate D2E/DX2                !
 ! D21   D(4,5,6,22)           -58.6223         estimate D2E/DX2                !
 ! D22   D(19,5,6,7)           -58.0215         estimate D2E/DX2                !
 ! D23   D(19,5,6,21)         -179.6601         estimate D2E/DX2                !
 ! D24   D(19,5,6,22)           62.256          estimate D2E/DX2                !
 ! D25   D(20,5,6,7)            59.5528         estimate D2E/DX2                !
 ! D26   D(20,5,6,21)          -62.0858         estimate D2E/DX2                !
 ! D27   D(20,5,6,22)          179.8303         estimate D2E/DX2                !
 ! D28   D(5,6,7,8)            179.6125         estimate D2E/DX2                !
 ! D29   D(21,6,7,8)           -59.6356         estimate D2E/DX2                !
 ! D30   D(22,6,7,8)            61.2663         estimate D2E/DX2                !
 ! D31   D(6,7,8,9)            -58.6796         estimate D2E/DX2                !
 ! D32   D(6,7,8,10)            63.4245         estimate D2E/DX2                !
 ! D33   D(6,7,8,11)           179.5946         estimate D2E/DX2                !
 ! D34   D(7,8,9,23)            64.408          estimate D2E/DX2                !
 ! D35   D(7,8,9,24)           -54.7096         estimate D2E/DX2                !
 ! D36   D(7,8,9,25)          -177.8391         estimate D2E/DX2                !
 ! D37   D(10,8,9,23)          -57.3086         estimate D2E/DX2                !
 ! D38   D(10,8,9,24)         -176.4261         estimate D2E/DX2                !
 ! D39   D(10,8,9,25)           60.4444         estimate D2E/DX2                !
 ! D40   D(11,8,9,23)         -175.6211         estimate D2E/DX2                !
 ! D41   D(11,8,9,24)           65.2613         estimate D2E/DX2                !
 ! D42   D(11,8,9,25)          -57.8682         estimate D2E/DX2                !
 ! D43   D(7,8,10,26)          -75.912          estimate D2E/DX2                !
 ! D44   D(9,8,10,26)           46.8692         estimate D2E/DX2                !
 ! D45   D(11,8,10,26)         167.4497         estimate D2E/DX2                !
 ! D46   D(7,8,11,12)           59.2043         estimate D2E/DX2                !
 ! D47   D(7,8,11,13)         -178.1115         estimate D2E/DX2                !
 ! D48   D(7,8,11,27)          -60.9915         estimate D2E/DX2                !
 ! D49   D(9,8,11,12)          -62.8445         estimate D2E/DX2                !
 ! D50   D(9,8,11,13)           59.8397         estimate D2E/DX2                !
 ! D51   D(9,8,11,27)          176.9596         estimate D2E/DX2                !
 ! D52   D(10,8,11,12)         176.9662         estimate D2E/DX2                !
 ! D53   D(10,8,11,13)         -60.3496         estimate D2E/DX2                !
 ! D54   D(10,8,11,27)          56.7704         estimate D2E/DX2                !
 ! D55   D(8,11,12,28)          62.4915         estimate D2E/DX2                !
 ! D56   D(8,11,12,29)         -59.1715         estimate D2E/DX2                !
 ! D57   D(8,11,12,30)         179.7745         estimate D2E/DX2                !
 ! D58   D(13,11,12,28)        -62.8595         estimate D2E/DX2                !
 ! D59   D(13,11,12,29)        175.4776         estimate D2E/DX2                !
 ! D60   D(13,11,12,30)         54.4236         estimate D2E/DX2                !
 ! D61   D(27,11,12,28)       -177.1358         estimate D2E/DX2                !
 ! D62   D(27,11,12,29)         61.2012         estimate D2E/DX2                !
 ! D63   D(27,11,12,30)        -59.8528         estimate D2E/DX2                !
 ! D64   D(8,11,13,31)         -56.7268         estimate D2E/DX2                !
 ! D65   D(12,11,13,31)         68.7725         estimate D2E/DX2                !
 ! D66   D(27,11,13,31)       -175.4058         estimate D2E/DX2                !
 --------------------------------------------------------------------------------
 Trust Radius=3.00D-01 FncErr=1.00D-07 GrdErr=1.00D-06 EigMax=2.50D+02 EigMin=1.00D-04
 Number of steps in this run=    161 maximum allowed number of steps=    186.
 GradGradGradGradGradGradGradGradGradGradGradGradGradGradGradGradGradGrad

                          Input orientation:                          
 ---------------------------------------------------------------------
 Center     Atomic      Atomic             Coordinates (Angstroms)
 Number     Number       Type             X           Y           Z
 ---------------------------------------------------------------------
      1          6           0        1.064720    0.018630   -0.073920
      2          6           0        2.368580    0.018630   -0.073920
      3          6           0        3.888580    0.018630   -0.073920
      4          6           0        4.408260   -1.059910   -0.978900
      5          6           0        5.929050   -1.047190   -0.979820
      6          6           0        6.384440   -2.154120   -1.897450
      7          8           0        7.799220   -2.227690   -1.935860
      8          6           0        8.288650   -3.271390   -2.788480
      9          6           0        7.764650   -4.648000   -2.344870
     10          8           0        7.900860   -3.007840   -4.134740
     11          6           0        9.853580   -3.231430   -2.744620
     12          6           0       10.416000   -3.425720   -1.339100
     13          8           0       10.458990   -4.213310   -3.602210
     14          1           0       -0.001010    0.020480   -0.073150
     15          1           0        4.237050   -0.129700    0.954700
     16          1           0        4.235380    1.005200   -0.402630
     17          1           0        4.026800   -0.911200   -1.997590
     18          1           0        4.035480   -2.037350   -0.644570
     19          1           0        6.323650   -1.207250    0.031180
     20          1           0        6.319540   -0.080570   -1.318790
     21          1           0        5.984560   -1.970570   -2.899950
     22          1           0        5.967770   -3.085520   -1.506880
     23          1           0        6.677500   -4.726330   -2.440000
     24          1           0        8.000800   -4.837100   -1.292480
     25          1           0        8.159870   -5.456540   -2.962730
     26          1           0        6.957980   -3.224220   -4.223290
     27          1           0       10.189460   -2.256490   -3.118280
     28          1           0       10.151310   -4.409100   -0.937510
     29          1           0       10.054900   -2.656800   -0.650390
     30          1           0       11.509980   -3.394300   -1.358870
     31          1           0       10.128130   -5.088680   -3.349700
 ---------------------------------------------------------------------
                    Distance matrix (angstroms):
                    1          2          3          4          5
     1  C    0.000000
     2  C    1.303860   0.000000
     3  C    2.823860   1.520000   0.000000
     4  C    3.627878   2.478413   1.500768   0.000000
     5  C    5.061456   3.825385   2.473893   1.520843   0.000000
     6  C    6.028725   4.916628   3.778283   2.438507   1.508217
     7  O    7.339364   6.164789   4.879127   3.711885   2.409383
     8  C    8.389174   7.296595   6.128106   4.818988   3.712954
     9  C    8.474887   7.486803   6.477543   5.099570   4.265984
    10  O    8.507796   7.500393   6.461282   5.094312   4.205437
    11  C    9.743695   8.586079   7.299093   6.122481   4.825698
    12  C   10.045430   8.844501   7.488086   6.466818   5.091091
    13  O   10.890843   9.788405   8.574872   7.310063   6.117320
    14  H    1.065732   2.369591   3.889591   4.629178   6.093241
    15  H    3.338224   2.138046   1.096126   2.152536   2.728923
    16  H    3.336833   2.136893   1.096194   2.150966   2.722861
    17  H    3.652261   2.704586   2.141073   1.097887   2.161690
    18  H    3.657610   2.707628   2.138755   1.098240   2.162965
    19  H    5.400942   4.142029   2.728258   2.170412   1.097018
    20  H    5.401174   4.143625   2.732967   2.174310   1.096238
    21  H    6.012336   5.001867   4.041843   2.646593   2.131340
    22  H    5.977376   4.964201   4.001519   2.610351   2.105726
    23  H    7.721158   6.832260   5.990914   4.552680   4.028446
    24  H    8.554076   7.535576   6.478685   5.222245   4.330511
    25  H    9.416149   8.477131   7.521079   6.110689   5.324552
    26  H    7.903408   6.985409   6.095454   4.659547   4.039586
    27  H    9.884593   8.695428   7.358355   6.279413   4.917978
    28  H   10.144787   8.995636   7.718314   6.648414   5.397380
    29  H    9.397531   8.159029   6.746388   5.877288   4.440947
    30  H   11.063573   9.841970   8.448960   7.485197   6.066250
    31  H   10.906913   9.850176   8.703294   7.387056   6.291442
                    6          7          8          9         10
     6  C    0.000000
     7  O    1.417212   0.000000
     8  C    2.380807   1.433810   0.000000
     9  C    2.885239   2.454870   1.538318   0.000000
    10  O    2.834402   2.335388   1.425572   2.431525   0.000000
    11  C    3.730044   2.425280   1.566054   2.555406   2.407393
    12  C    4.264059   2.939207   2.578786   3.087912   3.783670
    13  O    4.873236   3.713999   2.501948   3.004884   2.877634
    14  H    6.987913   8.328718   9.323513   9.341354   9.386521
    15  H    4.104183   5.044398   6.347998   6.614088   6.899971
    16  H    4.102956   5.050082   6.356925   6.941665   6.593093
    17  H    2.667085   3.996012   4.935521   5.296773   4.896085
    18  H    2.664762   3.983641   4.920230   4.859344   5.297575
    19  H    2.149389   2.662302   4.009037   4.422766   4.804644
    20  H    2.153757   2.679618   4.027247   4.899245   4.358791
    21  H    1.094806   2.070887   2.648280   3.262739   2.504564
    22  H    1.092550   2.067391   2.657730   2.524351   3.263207
    23  H    2.645091   2.784890   2.198657   1.094112   2.705912
    24  H    3.190140   2.695105   2.184564   1.095012   3.381512
    25  H    3.897814   3.407345   2.195866   1.091644   2.727054
    26  H    2.623660   2.633077   1.957444   2.491250   0.971434
    27  H    3.997384   2.666870   2.179878   3.492447   2.614461
    28  H    4.493966   3.359699   2.861813   2.780986   4.153352
    29  H    3.908980   2.631475   2.840561   3.475829   4.111425
    30  H    5.300875   3.932383   3.526451   4.070805   4.569524
    31  H    4.973519   3.950700   2.645978   2.605747   3.147525
                   11         12         13         14         15
    11  C    0.000000
    12  C    1.526287   0.000000
    13  O    1.437383   2.396625   0.000000
    14  H   10.715625  11.045045  11.823318   0.000000
    15  H    7.406153   7.369172   8.726617   4.363506   0.000000
    16  H    7.416072   7.662251   8.729460   4.361792   1.769278
    17  H    6.316082   6.897702   7.406200   4.560126   3.061203
    18  H    6.299708   6.566657   7.398913   4.566666   2.497483
    19  H    4.925726   4.852484   6.272078   6.443565   2.523470
    20  H    4.944729   5.288802   6.279219   6.442917   3.083494
    21  H    4.072249   4.918473   5.054065   6.912462   4.615292
    22  H    4.080785   4.464374   5.082654   6.879619   4.218014
    23  H    3.523493   4.108522   3.989184   8.528580   6.213597
    24  H    2.849505   2.797742   3.430257   9.439905   6.432359
    25  H    2.804878   3.442459   2.690819  10.244383   7.688303
    26  H    3.251310   4.507445   3.690679   8.728074   6.617484
    27  H    1.096789   2.141005   2.033711  10.876722   7.519547
    28  H    2.177429   1.094702   2.689540  11.110261   7.541366
    29  H    2.180947   1.093596   3.361436  10.422205   6.542930
    30  H    2.165754   1.094610   2.609201  12.075458   8.300948
    31  H    1.972531   2.625037   0.969279  11.808420   8.821801
                   16         17         18         19         20
    16  H    0.000000
    17  H    2.501998   0.000000
    18  H    3.058693   1.760384   0.000000
    19  H    3.073109   3.078810   2.526148   0.000000
    20  H    2.522294   2.531279   3.082287   1.758364   0.000000
    21  H    4.260451   2.401946   2.981629   3.047813   2.486841
    22  H    4.577612   2.955643   2.361352   2.453605   3.031311
    23  H    6.554789   4.666600   4.175458   4.314611   4.792529
    24  H    7.007331   5.630501   4.897157   4.211973   5.044988
    25  H    7.981843   6.218833   5.837407   5.512864   5.915269
    26  H    6.316485   4.346909   4.770420   4.750901   4.327385
    27  H    7.311939   6.406569   6.636169   5.095536   4.790519
    28  H    8.037348   7.132229   6.566155   5.083423   5.793445
    29  H    6.880294   6.418727   6.051212   4.060537   4.586571
    30  H    8.555104   7.910230   7.630183   5.797710   6.158172
    31  H    8.974692   7.517032   7.331352   6.400775   6.611438
                   21         22         23         24         25
    21  H    0.000000
    22  H    1.784388   0.000000
    23  H    2.878530   2.016603   0.000000
    24  H    3.855668   2.692064   1.755048   0.000000
    25  H    4.109489   3.542109   1.733169   1.788503   0.000000
    26  H    2.066498   2.894588   2.348431   3.504069   2.831396
    27  H    4.220261   4.594188   4.346727   3.844909   3.792592
    28  H    5.211469   4.424709   3.798087   2.221234   3.027289
    29  H    4.700968   4.197858   4.346549   3.063546   4.095925
    30  H    5.910347   5.552778   5.127963   3.794789   4.248345
    31  H    5.205195   4.971643   3.586879   2.970013   2.039391
                   26         27         28         29         30
    26  H    0.000000
    27  H    3.549649   0.000000
    28  H    4.732615   3.064465   0.000000
    29  H    4.762194   2.503764   1.778282   0.000000
    30  H    5.380942   2.476673   1.747383   1.778513   0.000000
    31  H    3.780109   2.842291   2.506198   3.633962   2.956998
                   31
    31  H    0.000000
 Stoichiometry    C10H18O3
 Framework group  C1[X(C10H18O3)]
 Deg. of freedom    87
 Full point group                 C1      NOp   1
 Largest Abelian subgroup         C1      NOp   1
 Largest concise Abelian subgroup C1      NOp   1
                         Standard orientation:                         
 ---------------------------------------------------------------------
 Center     Atomic      Atomic             Coordinates (Angstroms)
 Number     Number       Type             X           Y           Z
 ---------------------------------------------------------------------
      1          6           0       -6.390388   -0.603477    0.340020
      2          6           0       -5.294494    0.050792    0.073563
      3          6           0       -4.016935    0.813520   -0.237066
      4          6           0       -2.819749   -0.060543   -0.002410
      5          6           0       -1.546853    0.707171   -0.323839
      6          6           0       -0.387195   -0.220551   -0.060694
      7          8           0        0.846472    0.429658   -0.313252
      8          6           0        1.986407   -0.405384   -0.070221
      9          6           0        2.014486   -0.904123    1.384733
     10          8           0        1.966875   -1.511595   -0.969205
     11          6           0        3.270313    0.429771   -0.396761
     12          6           0        3.387432    1.697354    0.445300
     13          8           0        4.481996   -0.325142   -0.229424
     14          1           0       -7.287192   -1.136901    0.556782
     15          1           0       -3.981575    1.706959    0.396975
     16          1           0       -4.057820    1.148347   -1.280071
     17          1           0       -2.886123   -0.962846   -0.624341
     18          1           0       -2.806496   -0.400348    1.041854
     19          1           0       -1.462008    1.605516    0.300042
     20          1           0       -1.538986    1.047845   -1.365768
     21          1           0       -0.489518   -1.105332   -0.697319
     22          1           0       -0.448821   -0.520580    0.988044
     23          1           0        1.165196   -1.554372    1.614870
     24          1           0        1.965978   -0.065964    2.087718
     25          1           0        2.897687   -1.510603    1.594077
     26          1           0        1.297730   -2.141849   -0.655027
     27          1           0        3.239501    0.720188   -1.453953
     28          1           0        3.473035    1.460337    1.510602
     29          1           0        2.528153    2.358226    0.300940
     30          1           0        4.299257    2.244373    0.185463
     31          1           0        4.511110   -0.663542    0.678398
 ---------------------------------------------------------------------
 Rotational constants (GHZ):           2.3644042           0.2335539           0.2258299
 Standard basis: 6-31G(2df,p) (6D, 7F)
 There are   493 symmetry adapted cartesian basis functions of A   symmetry.
 There are   454 symmetry adapted basis functions of A   symmetry.
   454 basis functions,   698 primitive gaussians,   493 cartesian basis functions
    51 alpha electrons       51 beta electrons
       nuclear repulsion energy       807.1007925824 Hartrees.
 NAtoms=   31 NActive=   31 NUniq=   31 SFac= 1.00D+00 NAtFMM=   60 NAOKFM=F Big=F
 Integral buffers will be    131072 words long.
 Raffenetti 2 integral format.
 Two-electron integral symmetry is turned on.
 One-electron integrals computed using PRISM.
 PrsmSu:  requested number of processors reduced to:  12 ShMem   1 Linda.
 NBasis=   454 RedAO= T EigKep=  2.45D-04  NBF=   454
 NBsUse=   454 1.00D-06 EigRej= -1.00D+00 NBFU=   454
 ExpMin= 1.61D-01 ExpMax= 5.48D+03 ExpMxC= 8.25D+02 IAcc=3 IRadAn=         5 AccDes= 0.00D+00
 Harris functional with IExCor=  402 and IRadAn=       5 diagonalized for initial guess.
 HarFok:  IExCor=  402 AccDes= 0.00D+00 IRadAn=         5 IDoV= 1 UseB2=F ITyADJ=14
 ICtDFT=  3500011 ScaDFX=  1.000000  1.000000  1.000000  1.000000
 FoFCou: FMM=F IPFlag=           0 FMFlag=      100000 FMFlg1=           0
         NFxFlg=           0 DoJE=T BraDBF=F KetDBF=T FulRan=T
         wScrn=  0.000000 ICntrl=       500 IOpCl=  0 I1Cent=   200000004 NGrid=           0
         NMat0=    1 NMatS0=      1 NMatT0=    0 NMatD0=    1 NMtDS0=    0 NMtDT0=    0
 Petite list used in FoFCou.
 Requested convergence on RMS density matrix=1.00D-08 within 128 cycles.
 Requested convergence on MAX density matrix=1.00D-06.
 Requested convergence on             energy=1.00D-06.
 No special actions if energy rises.
 Integral accuracy reduced to 1.0D-05 until final iterations.
 Initial convergence to 1.0D-05 achieved.  Increase integral accuracy.
 SCF Done:  E(RB3LYP) =  -617.511858909     A.U. after   14 cycles
            NFock= 14  Conv=0.25D-08     -V/T= 2.0083

 **********************************************************************

            Population analysis using the SCF density.

 **********************************************************************

 Orbital symmetries:
       Occupied  (A) (A) (A) (A) (A) (A) (A) (A) (A) (A) (A) (A)
                 (A) (A) (A) (A) (A) (A) (A) (A) (A) (A) (A) (A)
                 (A) (A) (A) (A) (A) (A) (A) (A) (A) (A) (A) (A)
                 (A) (A) (A) (A) (A) (A) (A) (A) (A) (A) (A) (A)
                 (A) (A) (A)
       Virtual   (A) (A) (A) (A) (A) (A) (A) (A) (A) (A) (A) (A)
                 (A) (A) (A) (A) (A) (A) (A) (A) (A) (A) (A) (A)
                 (A) (A) (A) (A) (A) (A) (A) (A) (A) (A) (A) (A)
                 (A) (A) (A) (A) (A) (A) (A) (A) (A) (A) (A) (A)
                 (A) (A) (A) (A) (A) (A) (A) (A) (A) (A) (A) (A)
                 (A) (A) (A) (A) (A) (A) (A) (A) (A) (A) (A) (A)
                 (A) (A) (A) (A) (A) (A) (A) (A) (A) (A) (A) (A)
                 (A) (A) (A) (A) (A) (A) (A) (A) (A) (A) (A) (A)
                 (A) (A) (A) (A) (A) (A) (A) (A) (A) (A) (A) (A)
                 (A) (A) (A) (A) (A) (A) (A) (A) (A) (A) (A) (A)
                 (A) (A) (A) (A) (A) (A) (A) (A) (A) (A) (A) (A)
                 (A) (A) (A) (A) (A) (A) (A) (A) (A) (A) (A) (A)
                 (A) (A) (A) (A) (A) (A) (A) (A) (A) (A) (A) (A)
                 (A) (A) (A) (A) (A) (A) (A) (A) (A) (A) (A) (A)
                 (A) (A) (A) (A) (A) (A) (A) (A) (A) (A) (A) (A)
                 (A) (A) (A) (A) (A) (A) (A) (A) (A) (A) (A) (A)
                 (A) (A) (A) (A) (A) (A) (A) (A) (A) (A) (A) (A)
                 (A) (A) (A) (A) (A) (A) (A) (A) (A) (A) (A) (A)
                 (A) (A) (A) (A) (A) (A) (A) (A) (A) (A) (A) (A)
                 (A) (A) (A) (A) (A) (A) (A) (A) (A) (A) (A) (A)
                 (A) (A) (A) (A) (A) (A) (A) (A) (A) (A) (A) (A)
                 (A) (A) (A) (A) (A) (A) (A) (A) (A) (A) (A) (A)
                 (A) (A) (A) (A) (A) (A) (A) (A) (A) (A) (A) (A)
                 (A) (A) (A) (A) (A) (A) (A) (A) (A) (A) (A) (A)
                 (A) (A) (A) (A) (A) (A) (A) (A) (A) (A) (A) (A)
                 (A) (A) (A) (A) (A) (A) (A) (A) (A) (A) (A) (A)
                 (A) (A) (A) (A) (A) (A) (A) (A) (A) (A) (A) (A)
                 (A) (A) (A) (A) (A) (A) (A) (A) (A) (A) (A) (A)
                 (A) (A) (A) (A) (A) (A) (A) (A) (A) (A) (A) (A)
                 (A) (A) (A) (A) (A) (A) (A) (A) (A) (A) (A) (A)
                 (A) (A) (A) (A) (A) (A) (A) (A) (A) (A) (A) (A)
                 (A) (A) (A) (A) (A) (A) (A) (A) (A) (A) (A) (A)
                 (A) (A) (A) (A) (A) (A) (A) (A) (A) (A) (A) (A)
                 (A) (A) (A) (A) (A) (A) (A)
 The electronic state is 1-A.
 Alpha  occ. eigenvalues --  -19.14463 -19.14182 -19.13047 -10.28833 -10.23235
 Alpha  occ. eigenvalues --  -10.23170 -10.21902 -10.20576 -10.19478 -10.19272
 Alpha  occ. eigenvalues --  -10.19015 -10.18843 -10.17035  -1.06215  -1.00770
 Alpha  occ. eigenvalues --   -0.99368  -0.82752  -0.77999  -0.75176  -0.72839
 Alpha  occ. eigenvalues --   -0.70063  -0.66299  -0.62790  -0.59939  -0.57267
 Alpha  occ. eigenvalues --   -0.52996  -0.52414  -0.50404  -0.50205  -0.48427
 Alpha  occ. eigenvalues --   -0.46082  -0.45478  -0.44759  -0.43018  -0.42270
 Alpha  occ. eigenvalues --   -0.40923  -0.39778  -0.38868  -0.37431  -0.37042
 Alpha  occ. eigenvalues --   -0.36399  -0.36179  -0.35133  -0.34228  -0.33200
 Alpha  occ. eigenvalues --   -0.31061  -0.28594  -0.26803  -0.26222  -0.25022
 Alpha  occ. eigenvalues --   -0.25013
 Alpha virt. eigenvalues --    0.03307   0.03535   0.05677   0.07897   0.08205
 Alpha virt. eigenvalues --    0.10594   0.11087   0.11485   0.11855   0.12043
 Alpha virt. eigenvalues --    0.13035   0.13881   0.14573   0.16656   0.17061
 Alpha virt. eigenvalues --    0.18191   0.18465   0.18997   0.19505   0.19844
 Alpha virt. eigenvalues --    0.20360   0.21643   0.22009   0.23641   0.24000
 Alpha virt. eigenvalues --    0.24282   0.25854   0.27255   0.28863   0.29509
 Alpha virt. eigenvalues --    0.32413   0.38703   0.40823   0.43457   0.45833
 Alpha virt. eigenvalues --    0.46298   0.47941   0.48066   0.49282   0.49741
 Alpha virt. eigenvalues --    0.50349   0.51456   0.51827   0.51987   0.54143
 Alpha virt. eigenvalues --    0.54721   0.55725   0.56246   0.59495   0.59721
 Alpha virt. eigenvalues --    0.60378   0.60763   0.61502   0.62518   0.63513
 Alpha virt. eigenvalues --    0.67077   0.68316   0.69456   0.69699   0.70034
 Alpha virt. eigenvalues --    0.70213   0.71288   0.71717   0.72237   0.72614
 Alpha virt. eigenvalues --    0.73012   0.73955   0.74244   0.74746   0.75197
 Alpha virt. eigenvalues --    0.75561   0.76662   0.76720   0.78189   0.79299
 Alpha virt. eigenvalues --    0.79759   0.80766   0.81190   0.81518   0.81982
 Alpha virt. eigenvalues --    0.84954   0.85684   0.86659   0.87383   0.87699
 Alpha virt. eigenvalues --    0.89817   0.90026   0.92073   0.92457   0.93289
 Alpha virt. eigenvalues --    0.96098   0.97013   0.98006   1.00068   1.01315
 Alpha virt. eigenvalues --    1.02357   1.03723   1.04482   1.05031   1.07266
 Alpha virt. eigenvalues --    1.08260   1.10863   1.11046   1.12778   1.14742
 Alpha virt. eigenvalues --    1.16147   1.17392   1.18827   1.19708   1.20926
 Alpha virt. eigenvalues --    1.22690   1.23519   1.24804   1.27002   1.27669
 Alpha virt. eigenvalues --    1.28934   1.31626   1.34499   1.34934   1.35474
 Alpha virt. eigenvalues --    1.38215   1.38697   1.42634   1.42979   1.45371
 Alpha virt. eigenvalues --    1.46307   1.48182   1.48523   1.51180   1.51744
 Alpha virt. eigenvalues --    1.52964   1.53905   1.55311   1.55983   1.57445
 Alpha virt. eigenvalues --    1.59226   1.60184   1.62802   1.64509   1.66189
 Alpha virt. eigenvalues --    1.66622   1.68097   1.68659   1.70257   1.72323
 Alpha virt. eigenvalues --    1.75273   1.75930   1.78025   1.79505   1.80608
 Alpha virt. eigenvalues --    1.83325   1.85219   1.86913   1.87507   1.88362
 Alpha virt. eigenvalues --    1.91429   1.91642   1.93234   1.94555   1.95854
 Alpha virt. eigenvalues --    1.96445   1.99201   1.99830   2.01902   2.06627
 Alpha virt. eigenvalues --    2.13270   2.17529   2.18006   2.18438   2.21300
 Alpha virt. eigenvalues --    2.23118   2.24432   2.27907   2.29515   2.31170
 Alpha virt. eigenvalues --    2.32162   2.33029   2.35451   2.37301   2.38516
 Alpha virt. eigenvalues --    2.39449   2.45176   2.46976   2.47936   2.48940
 Alpha virt. eigenvalues --    2.50045   2.54860   2.56500   2.57039   2.58067
 Alpha virt. eigenvalues --    2.58301   2.62055   2.64449   2.67057   2.67832
 Alpha virt. eigenvalues --    2.70282   2.70477   2.72250   2.72567   2.73327
 Alpha virt. eigenvalues --    2.75184   2.76763   2.77780   2.78508   2.79367
 Alpha virt. eigenvalues --    2.80534   2.81894   2.82459   2.82962   2.84326
 Alpha virt. eigenvalues --    2.85096   2.85385   2.88466   2.89074   2.89785
 Alpha virt. eigenvalues --    2.91240   2.92066   2.93535   2.94270   2.95248
 Alpha virt. eigenvalues --    2.97236   2.97459   2.98007   2.98841   2.99803
 Alpha virt. eigenvalues --    3.01411   3.03616   3.05453   3.06251   3.08834
 Alpha virt. eigenvalues --    3.11280   3.12583   3.15953   3.16305   3.18493
 Alpha virt. eigenvalues --    3.22345   3.23189   3.25288   3.25765   3.28413
 Alpha virt. eigenvalues --    3.30308   3.32865   3.34702   3.35267   3.36149
 Alpha virt. eigenvalues --    3.36579   3.38931   3.39742   3.41420   3.43569
 Alpha virt. eigenvalues --    3.45817   3.47439   3.48653   3.49561   3.50418
 Alpha virt. eigenvalues --    3.51837   3.52367   3.55297   3.56681   3.59602
 Alpha virt. eigenvalues --    3.61792   3.63378   3.65093   3.67881   3.68786
 Alpha virt. eigenvalues --    3.69256   3.72484   3.73808   3.74836   3.76422
 Alpha virt. eigenvalues --    3.77454   3.81437   3.83511   3.87511   3.88588
 Alpha virt. eigenvalues --    3.89346   3.92984   3.93471   3.94118   3.96655
 Alpha virt. eigenvalues --    4.00201   4.01942   4.10899   4.14945   4.17047
 Alpha virt. eigenvalues --    4.18855   4.20484   4.21795   4.22005   4.22680
 Alpha virt. eigenvalues --    4.23658   4.24169   4.27732   4.29818   4.30359
 Alpha virt. eigenvalues --    4.34651   4.36318   4.38044   4.39106   4.39963
 Alpha virt. eigenvalues --    4.42304   4.43733   4.45809   4.46636   4.47392
 Alpha virt. eigenvalues --    4.48828   4.50015   4.51619   4.52377   4.53657
 Alpha virt. eigenvalues --    4.54534   4.55500   4.56691   4.57662   4.58400
 Alpha virt. eigenvalues --    4.59747   4.60691   4.61257   4.63064   4.63634
 Alpha virt. eigenvalues --    4.64579   4.65401   4.68047   4.68668   4.69344
 Alpha virt. eigenvalues --    4.71553   4.72661   4.73764   4.74696   4.77000
 Alpha virt. eigenvalues --    4.77365   4.78005   4.78941   4.79262   4.81394
 Alpha virt. eigenvalues --    4.83552   4.84357   4.85304   4.86552   4.88440
 Alpha virt. eigenvalues --    4.89709   4.91329   4.93489   4.93977   4.94620
 Alpha virt. eigenvalues --    4.95329   4.95958   4.97937   5.01942   5.03951
 Alpha virt. eigenvalues --    5.06636   5.09580   5.15314   5.17744   5.19771
 Alpha virt. eigenvalues --    5.28158   5.28887   5.31291   5.36327   5.37129
 Alpha virt. eigenvalues --    5.39867   5.42081   5.43994   5.48695   5.50282
 Alpha virt. eigenvalues --    5.51068   5.52901   5.59312   5.61137   5.61996
 Alpha virt. eigenvalues --    5.65018   5.71548   5.75418   5.78195   5.87249
 Alpha virt. eigenvalues --    5.91677   5.92566   5.97720   6.02375   6.04515
 Alpha virt. eigenvalues --    6.06058   6.10750   6.14958   6.20230   6.29664
 Alpha virt. eigenvalues --    6.42156   6.55766   7.09607   7.26777   7.28761
 Alpha virt. eigenvalues --    9.59747  10.89055  11.28377  11.34949  11.71866
 Alpha virt. eigenvalues --   11.84480  12.12432  12.24026  12.45503  12.50503
 Alpha virt. eigenvalues --   13.33926  13.58466  13.77442
          Condensed to atoms (all electrons):
               1          2          3          4          5          6
     1  C    5.090133   0.932543  -0.029846  -0.002682  -0.000007  -0.000003
     2  C    0.932543   4.587770   0.411993  -0.045600   0.002317  -0.000215
     3  C   -0.029846   0.411993   4.928183   0.419170  -0.038398   0.000516
     4  C   -0.002682  -0.045600   0.419170   4.830015   0.359566  -0.041771
     5  C   -0.000007   0.002317  -0.038398   0.359566   4.888438   0.446409
     6  C   -0.000003  -0.000215   0.000516  -0.041771   0.446409   4.759822
     7  O    0.000000   0.000000  -0.000017   0.001480  -0.025541   0.343077
     8  C   -0.000000  -0.000000  -0.000001  -0.000088   0.001720  -0.060055
     9  C   -0.000000   0.000000   0.000000   0.000042   0.000589  -0.008979
    10  O    0.000000   0.000000   0.000000   0.000016   0.000569   0.000294
    11  C    0.000000   0.000000  -0.000000   0.000001  -0.000091   0.002401
    12  C   -0.000000  -0.000000  -0.000000   0.000000  -0.000014   0.000447
    13  O   -0.000000   0.000000   0.000000   0.000000   0.000000  -0.000039
    14  H    0.370805  -0.004743   0.000674   0.000001   0.000000  -0.000000
    15  H   -0.000857  -0.019643   0.358699  -0.030427  -0.003161   0.000132
    16  H   -0.000891  -0.019626   0.359082  -0.030525  -0.003132   0.000118
    17  H    0.001320   0.002086  -0.035370   0.370618  -0.033954  -0.002298
    18  H    0.001305   0.002204  -0.035746   0.370088  -0.033680  -0.003457
    19  H    0.000010   0.000432  -0.002615  -0.026771   0.360175  -0.027577
    20  H    0.000010   0.000409  -0.002702  -0.025801   0.359995  -0.026443
    21  H    0.000001   0.000047   0.000067   0.001538  -0.028485   0.336488
    22  H    0.000001   0.000045   0.000045   0.000548  -0.035606   0.345413
    23  H    0.000000   0.000000  -0.000000   0.000006   0.000044  -0.001771
    24  H    0.000000   0.000000   0.000000   0.000002  -0.000054  -0.000006
    25  H   -0.000000  -0.000000  -0.000000  -0.000001  -0.000014  -0.000026
    26  H    0.000000   0.000000  -0.000000  -0.000021   0.000089   0.003643
    27  H    0.000000   0.000000   0.000000   0.000000   0.000009  -0.000086
    28  H   -0.000000  -0.000000   0.000000  -0.000000   0.000001  -0.000085
    29  H    0.000000   0.000000   0.000000   0.000001   0.000024  -0.000197
    30  H    0.000000   0.000000  -0.000000   0.000000  -0.000000  -0.000001
    31  H    0.000000   0.000000   0.000000   0.000000  -0.000000  -0.000001
               7          8          9         10         11         12
     1  C    0.000000  -0.000000  -0.000000   0.000000   0.000000  -0.000000
     2  C    0.000000  -0.000000   0.000000   0.000000   0.000000  -0.000000
     3  C   -0.000017  -0.000001   0.000000   0.000000  -0.000000  -0.000000
     4  C    0.001480  -0.000088   0.000042   0.000016   0.000001   0.000000
     5  C   -0.025541   0.001720   0.000589   0.000569  -0.000091  -0.000014
     6  C    0.343077  -0.060055  -0.008979   0.000294   0.002401   0.000447
     7  O    7.827407   0.320669  -0.042980  -0.063693  -0.026044   0.001849
     8  C    0.320669   4.507639   0.318687   0.354681   0.354194  -0.035823
     9  C   -0.042980   0.318687   5.223841  -0.054292  -0.043370  -0.006729
    10  O   -0.063693   0.354681  -0.054292   7.915482  -0.021457   0.001542
    11  C   -0.026044   0.354194  -0.043370  -0.021457   4.691391   0.351245
    12  C    0.001849  -0.035823  -0.006729   0.001542   0.351245   5.104219
    13  O    0.000551  -0.034196  -0.001175  -0.002440   0.370800  -0.048226
    14  H    0.000000   0.000000  -0.000000   0.000000   0.000000  -0.000000
    15  H    0.000001   0.000000   0.000000  -0.000000   0.000000  -0.000000
    16  H    0.000001   0.000000  -0.000000  -0.000000   0.000000   0.000000
    17  H    0.000049   0.000007   0.000001  -0.000007   0.000000  -0.000000
    18  H    0.000049   0.000026  -0.000022  -0.000000   0.000000  -0.000000
    19  H    0.002536   0.000149  -0.000046   0.000000  -0.000011  -0.000007
    20  H    0.002472   0.000279   0.000021  -0.000004   0.000004  -0.000002
    21  H   -0.037399  -0.002311  -0.001825   0.013041   0.000018   0.000010
    22  H   -0.033514  -0.003676   0.005574  -0.001793   0.000288  -0.000084
    23  H   -0.002707  -0.015632   0.361419  -0.002583   0.003668   0.000161
    24  H    0.002151  -0.010818   0.352751   0.003165  -0.003570  -0.000146
    25  H    0.002637  -0.019347   0.356502   0.000974  -0.000935   0.000398
    26  H    0.001107  -0.063691  -0.006570   0.309710   0.005897  -0.000321
    27  H    0.000511  -0.024189   0.006346  -0.000775   0.343723  -0.049518
    28  H   -0.000310  -0.008396   0.001902   0.000002  -0.022218   0.362728
    29  H    0.006284   0.001793   0.000211   0.000109  -0.015005   0.347402
    30  H    0.000133   0.003184  -0.000086  -0.000018  -0.016944   0.370760
    31  H    0.000022  -0.007454   0.005560   0.000284  -0.067646  -0.002613
              13         14         15         16         17         18
     1  C   -0.000000   0.370805  -0.000857  -0.000891   0.001320   0.001305
     2  C    0.000000  -0.004743  -0.019643  -0.019626   0.002086   0.002204
     3  C    0.000000   0.000674   0.358699   0.359082  -0.035370  -0.035746
     4  C    0.000000   0.000001  -0.030427  -0.030525   0.370618   0.370088
     5  C    0.000000   0.000000  -0.003161  -0.003132  -0.033954  -0.033680
     6  C   -0.000039  -0.000000   0.000132   0.000118  -0.002298  -0.003457
     7  O    0.000551   0.000000   0.000001   0.000001   0.000049   0.000049
     8  C   -0.034196   0.000000   0.000000   0.000000   0.000007   0.000026
     9  C   -0.001175  -0.000000   0.000000  -0.000000   0.000001  -0.000022
    10  O   -0.002440   0.000000  -0.000000  -0.000000  -0.000007  -0.000000
    11  C    0.370800   0.000000   0.000000   0.000000   0.000000   0.000000
    12  C   -0.048226  -0.000000  -0.000000   0.000000  -0.000000  -0.000000
    13  O    7.853591   0.000000  -0.000000  -0.000000  -0.000000  -0.000000
    14  H    0.000000   0.429634  -0.000041  -0.000041   0.000001   0.000001
    15  H   -0.000000  -0.000041   0.594033  -0.039640   0.006049  -0.006051
    16  H   -0.000000  -0.000041  -0.039640   0.592128  -0.005908   0.006085
    17  H   -0.000000   0.000001   0.006049  -0.005908   0.619349  -0.041007
    18  H   -0.000000   0.000001  -0.006051   0.006085  -0.041007   0.622246
    19  H    0.000000   0.000000   0.004666  -0.000506   0.005765  -0.005333
    20  H    0.000000   0.000000  -0.000485   0.004634  -0.005239   0.005691
    21  H    0.000003   0.000000   0.000003   0.000008   0.005469  -0.000540
    22  H    0.000002   0.000000   0.000009   0.000005  -0.000710   0.006389
    23  H    0.000201   0.000000   0.000000  -0.000000   0.000004  -0.000004
    24  H    0.000199   0.000000  -0.000000   0.000000   0.000000  -0.000001
    25  H    0.002150  -0.000000   0.000000   0.000000   0.000000   0.000000
    26  H   -0.000134   0.000000  -0.000000   0.000000  -0.000002   0.000002
    27  H   -0.017425   0.000000   0.000000  -0.000000  -0.000000   0.000000
    28  H   -0.001468  -0.000000   0.000000  -0.000000   0.000000   0.000000
    29  H    0.003354   0.000000  -0.000000  -0.000000   0.000000   0.000000
    30  H    0.001167   0.000000  -0.000000   0.000000   0.000000   0.000000
    31  H    0.310390   0.000000  -0.000000  -0.000000   0.000000   0.000000
              19         20         21         22         23         24
     1  C    0.000010   0.000010   0.000001   0.000001   0.000000   0.000000
     2  C    0.000432   0.000409   0.000047   0.000045   0.000000   0.000000
     3  C   -0.002615  -0.002702   0.000067   0.000045  -0.000000   0.000000
     4  C   -0.026771  -0.025801   0.001538   0.000548   0.000006   0.000002
     5  C    0.360175   0.359995  -0.028485  -0.035606   0.000044  -0.000054
     6  C   -0.027577  -0.026443   0.336488   0.345413  -0.001771  -0.000006
     7  O    0.002536   0.002472  -0.037399  -0.033514  -0.002707   0.002151
     8  C    0.000149   0.000279  -0.002311  -0.003676  -0.015632  -0.010818
     9  C   -0.000046   0.000021  -0.001825   0.005574   0.361419   0.352751
    10  O    0.000000  -0.000004   0.013041  -0.001793  -0.002583   0.003165
    11  C   -0.000011   0.000004   0.000018   0.000288   0.003668  -0.003570
    12  C   -0.000007  -0.000002   0.000010  -0.000084   0.000161  -0.000146
    13  O    0.000000   0.000000   0.000003   0.000002   0.000201   0.000199
    14  H    0.000000   0.000000   0.000000   0.000000   0.000000   0.000000
    15  H    0.004666  -0.000485   0.000003   0.000009   0.000000  -0.000000
    16  H   -0.000506   0.004634   0.000008   0.000005  -0.000000   0.000000
    17  H    0.005765  -0.005239   0.005469  -0.000710   0.000004   0.000000
    18  H   -0.005333   0.005691  -0.000540   0.006389  -0.000004  -0.000001
    19  H    0.626772  -0.042904   0.006761  -0.008344   0.000018   0.000043
    20  H   -0.042904   0.619547  -0.007337   0.006986   0.000000  -0.000001
    21  H    0.006761  -0.007337   0.691185  -0.062387   0.000886   0.000074
    22  H   -0.008344   0.006986  -0.062387   0.688224   0.001770   0.000317
    23  H    0.000018   0.000000   0.000886   0.001770   0.589142  -0.029705
    24  H    0.000043  -0.000001   0.000074   0.000317  -0.029705   0.573881
    25  H   -0.000000   0.000000   0.000013  -0.000524  -0.029813  -0.028533
    26  H    0.000006  -0.000000   0.001361  -0.000249   0.005106  -0.000052
    27  H   -0.000001   0.000007  -0.000022   0.000028  -0.000144  -0.000048
    28  H   -0.000000   0.000000  -0.000001   0.000002  -0.000100   0.004029
    29  H    0.000094   0.000002   0.000030   0.000016  -0.000008   0.000584
    30  H    0.000000  -0.000000   0.000001  -0.000000  -0.000001  -0.000073
    31  H    0.000000   0.000000  -0.000000   0.000000  -0.000244   0.000116
              25         26         27         28         29         30
     1  C   -0.000000   0.000000   0.000000  -0.000000   0.000000   0.000000
     2  C   -0.000000   0.000000   0.000000  -0.000000   0.000000   0.000000
     3  C   -0.000000  -0.000000   0.000000   0.000000   0.000000  -0.000000
     4  C   -0.000001  -0.000021   0.000000  -0.000000   0.000001   0.000000
     5  C   -0.000014   0.000089   0.000009   0.000001   0.000024  -0.000000
     6  C   -0.000026   0.003643  -0.000086  -0.000085  -0.000197  -0.000001
     7  O    0.002637   0.001107   0.000511  -0.000310   0.006284   0.000133
     8  C   -0.019347  -0.063691  -0.024189  -0.008396   0.001793   0.003184
     9  C    0.356502  -0.006570   0.006346   0.001902   0.000211  -0.000086
    10  O    0.000974   0.309710  -0.000775   0.000002   0.000109  -0.000018
    11  C   -0.000935   0.005897   0.343723  -0.022218  -0.015005  -0.016944
    12  C    0.000398  -0.000321  -0.049518   0.362728   0.347402   0.370760
    13  O    0.002150  -0.000134  -0.017425  -0.001468   0.003354   0.001167
    14  H   -0.000000   0.000000   0.000000  -0.000000   0.000000   0.000000
    15  H    0.000000  -0.000000   0.000000   0.000000  -0.000000  -0.000000
    16  H    0.000000   0.000000  -0.000000  -0.000000  -0.000000   0.000000
    17  H    0.000000  -0.000002  -0.000000   0.000000   0.000000   0.000000
    18  H    0.000000   0.000002   0.000000   0.000000   0.000000   0.000000
    19  H   -0.000000   0.000006  -0.000001  -0.000000   0.000094   0.000000
    20  H    0.000000  -0.000000   0.000007   0.000000   0.000002  -0.000000
    21  H    0.000013   0.001361  -0.000022  -0.000001   0.000030   0.000001
    22  H   -0.000524  -0.000249   0.000028   0.000002   0.000016  -0.000000
    23  H   -0.029813   0.005106  -0.000144  -0.000100  -0.000008  -0.000001
    24  H   -0.028533  -0.000052  -0.000048   0.004029   0.000584  -0.000073
    25  H    0.589077  -0.000211  -0.000005   0.000259  -0.000053  -0.000046
    26  H   -0.000211   0.461575  -0.000257   0.000002  -0.000001   0.000003
    27  H   -0.000005  -0.000257   0.624627   0.005598   0.000401  -0.004124
    28  H    0.000259   0.000002   0.005598   0.612958  -0.028372  -0.033749
    29  H   -0.000053  -0.000001   0.000401  -0.028372   0.584329  -0.027888
    30  H   -0.000046   0.000003  -0.004124  -0.033749  -0.027888   0.583774
    31  H    0.006140  -0.000041   0.006795   0.004570  -0.000141  -0.000262
              31
     1  C    0.000000
     2  C    0.000000
     3  C    0.000000
     4  C    0.000000
     5  C   -0.000000
     6  C   -0.000001
     7  O    0.000022
     8  C   -0.007454
     9  C    0.005560
    10  O    0.000284
    11  C   -0.067646
    12  C   -0.002613
    13  O    0.310390
    14  H    0.000000
    15  H   -0.000000
    16  H   -0.000000
    17  H    0.000000
    18  H    0.000000
    19  H    0.000000
    20  H    0.000000
    21  H   -0.000000
    22  H    0.000000
    23  H   -0.000244
    24  H    0.000116
    25  H    0.006140
    26  H   -0.000041
    27  H    0.006795
    28  H    0.004570
    29  H   -0.000141
    30  H   -0.000262
    31  H    0.465758
 Mulliken charges:
               1
     1  C   -0.361843
     2  C    0.149980
     3  C   -0.333733
     4  C   -0.149406
     5  C   -0.217806
     6  C   -0.065751
     7  O   -0.280780
     8  C    0.422648
     9  C   -0.467374
    10  O   -0.452807
    11  C    0.093661
    12  C   -0.397278
    13  O   -0.437304
    14  H    0.203707
    15  H    0.136712
    16  H    0.138209
    17  H    0.113777
    18  H    0.111757
    19  H    0.106686
    20  H    0.110862
    21  H    0.083304
    22  H    0.091223
    23  H    0.120287
    24  H    0.135694
    25  H    0.121357
    26  H    0.283049
    27  H    0.108548
    28  H    0.102649
    29  H    0.127032
    30  H    0.124170
    31  H    0.278770
 Sum of Mulliken charges =  -0.00000
 Mulliken charges with hydrogens summed into heavy atoms:
               1
     1  C   -0.158136
     2  C    0.149980
     3  C   -0.058812
     4  C    0.076128
     5  C   -0.000258
     6  C    0.108776
     7  O   -0.280780
     8  C    0.422648
     9  C   -0.090036
    10  O   -0.169758
    11  C    0.202208
    12  C   -0.043427
    13  O   -0.158534
 Electronic spatial extent (au):  <R**2>=           4742.5702
 Charge=             -0.0000 electrons
 Dipole moment (field-independent basis, Debye):
    X=             -1.3073    Y=             -0.3913    Z=              2.4148  Tot=              2.7737
 Quadrupole moment (field-independent basis, Debye-Ang):
   XX=            -92.3556   YY=            -76.5927   ZZ=            -79.9650
   XY=              2.7496   XZ=              8.4648   YZ=             -3.2555
 Traceless Quadrupole moment (field-independent basis, Debye-Ang):
   XX=             -9.3845   YY=              6.3784   ZZ=              3.0061
   XY=              2.7496   XZ=              8.4648   YZ=             -3.2555
 Octapole moment (field-independent basis, Debye-Ang**2):
  XXX=             -2.6350  YYY=            -12.4026  ZZZ=             -6.0133  XYY=              8.8267
  XXY=            -14.6831  XXZ=             38.1045  XZZ=             18.0351  YZZ=              1.1281
  YYZ=             -0.2887  XYZ=             -6.9827
 Hexadecapole moment (field-independent basis, Debye-Ang**3):
 XXXX=          -5571.2642 YYYY=           -460.5414 ZZZZ=           -288.3526 XXXY=            246.5350
 XXXZ=             34.5400 YYYX=            -26.1713 YYYZ=              6.0066 ZZZX=              2.7485
 ZZZY=              0.3057 XXYY=           -971.0172 XXZZ=           -984.8622 YYZZ=           -129.8947
 XXYZ=            -72.2854 YYXZ=             -0.0795 ZZXY=             -5.4861
 N-N= 8.071007925824D+02 E-N=-3.053392047062D+03  KE= 6.124500548960D+02
 PrsmSu:  requested number of processors reduced to:  13 ShMem   1 Linda.
 Calling FoFJK, ICntrl=      2127 FMM=F ISym2X=0 I1Cent= 0 IOpClX= 0 NMat=1 NMatS=1 NMatT=0.
 ***** Axes restored to original set *****
 -------------------------------------------------------------------
 Center     Atomic                   Forces (Hartrees/Bohr)
 Number     Number              X              Y              Z
 -------------------------------------------------------------------
      1        6           0.158894622   -0.000365791   -0.000270071
      2        6          -0.132057248    0.004755835    0.004150241
      3        6          -0.046532744    0.008792405    0.006677629
      4        6           0.005771824   -0.003778308   -0.003259888
      5        6           0.004064260   -0.001583881   -0.003172312
      6        6           0.010555407    0.001991421    0.004844029
      7        8           0.006892468   -0.009849087   -0.002938889
      8        6          -0.002205005    0.000276688   -0.009678426
      9        6          -0.004524500   -0.001951752    0.003506987
     10        8          -0.000489460   -0.004095028    0.005891140
     11        6           0.004980875   -0.007535762    0.002404027
     12        6          -0.000338385    0.003238897    0.006701679
     13        8          -0.011161457    0.004792092   -0.001542262
     14        1           0.001608523   -0.000253940   -0.000231268
     15        1           0.000164387    0.000668220    0.000022107
     16        1           0.000135075    0.000184587    0.000799331
     17        1           0.000136228    0.000197454    0.001429867
     18        1           0.000390977    0.001394856   -0.000332539
     19        1          -0.000369148   -0.000999429   -0.000406187
     20        1          -0.000747816    0.000016481   -0.000948839
     21        1          -0.001698082   -0.000814040   -0.002679278
     22        1          -0.002731913   -0.003239725   -0.001876418
     23        1           0.000528695    0.001505220   -0.001347721
     24        1           0.000538912   -0.000589112   -0.002004781
     25        1           0.003436737    0.001043521   -0.000652876
     26        1           0.009522589    0.000331519   -0.000159368
     27        1          -0.004117954   -0.002558681   -0.003554671
     28        1          -0.001815366   -0.000019907    0.000790644
     29        1          -0.000681396   -0.000930646    0.000481850
     30        1          -0.001203074    0.002310008   -0.002915379
     31        1           0.003051969    0.007065884    0.000271644
 -------------------------------------------------------------------
 Cartesian Forces:  Max     0.158894622 RMS     0.022275259

 GradGradGradGradGradGradGradGradGradGradGradGradGradGradGradGradGradGrad
 Berny optimization.
 FormGI is forming the generalized inverse of G from B-inverse, IUseBI=4.
 Internal  Forces:  Max     0.160503397 RMS     0.014282208
 Search for a local minimum.
 Step number   1 out of a maximum of  161
 All quantities printed in internal units (Hartrees-Bohrs-Radians)
 Mixed Optimization -- RFO/linear search
 Second derivative matrix not updated -- first step.
 ITU=  0
     Eigenvalues ---    0.00230   0.00259   0.00418   0.00490   0.00501
     Eigenvalues ---    0.00501   0.00556   0.00556   0.00657   0.00756
     Eigenvalues ---    0.01197   0.01245   0.01354   0.01464   0.03975
     Eigenvalues ---    0.04039   0.04179   0.04676   0.05068   0.05086
     Eigenvalues ---    0.05236   0.05275   0.05358   0.05383   0.05412
     Eigenvalues ---    0.05662   0.05851   0.06085   0.06262   0.06278
     Eigenvalues ---    0.07494   0.07599   0.08039   0.08564   0.11275
     Eigenvalues ---    0.11599   0.11945   0.13821   0.16000   0.16000
     Eigenvalues ---    0.16000   0.16000   0.16000   0.16000   0.16000
     Eigenvalues ---    0.16000   0.16000   0.16000   0.17033   0.17100
     Eigenvalues ---    0.18614   0.20120   0.21771   0.21841   0.22112
     Eigenvalues ---    0.22287   0.25000   0.26330   0.28668   0.29769
     Eigenvalues ---    0.30285   0.30367   0.31530   0.32297   0.33878
     Eigenvalues ---    0.33917   0.34014   0.34040   0.34102   0.34107
     Eigenvalues ---    0.34114   0.34240   0.34263   0.34275   0.34285
     Eigenvalues ---    0.34342   0.34400   0.34520   0.34623   0.37775
     Eigenvalues ---    0.39947   0.40447   0.41632   0.42883   0.53085
     Eigenvalues ---    0.53524   0.66132
 RFO step:  Lambda=-5.44822634D-02 EMin= 2.30000000D-03
 Linear search not attempted -- first point.
 Maximum step size (   0.300) exceeded in Quadratic search.
    -- Step size scaled by   0.924
 Iteration  1 RMS(Cart)=  0.19918041 RMS(Int)=  0.00732196
 Iteration  2 RMS(Cart)=  0.01804612 RMS(Int)=  0.00024936
 Iteration  3 RMS(Cart)=  0.00005934 RMS(Int)=  0.00024758
 Iteration  4 RMS(Cart)=  0.00000002 RMS(Int)=  0.00024758
 Variable       Old X    -DE/DX   Delta X   Delta X   Delta X     New X
                                 (Linear)    (Quad)   (Total)
    R1        2.46394  -0.16050   0.00000  -0.20710  -0.20710   2.25684
    R2        2.01394  -0.00161   0.00000  -0.00344  -0.00344   2.01050
    R3        2.87238  -0.02845   0.00000  -0.07336  -0.07336   2.79902
    R4        2.83604   0.02279   0.00000   0.05576   0.05576   2.89180
    R5        2.07138  -0.00002   0.00000  -0.00004  -0.00004   2.07134
    R6        2.07151  -0.00003   0.00000  -0.00007  -0.00007   2.07143
    R7        2.87398   0.01140   0.00000   0.02945   0.02945   2.90343
    R8        2.07471  -0.00135   0.00000  -0.00316  -0.00316   2.07154
    R9        2.07537  -0.00148   0.00000  -0.00347  -0.00347   2.07191
   R10        2.85012   0.01192   0.00000   0.02977   0.02977   2.87989
   R11        2.07306  -0.00036   0.00000  -0.00084  -0.00084   2.07222
   R12        2.07159   0.00004   0.00000   0.00010   0.00010   2.07169
   R13        2.67814   0.00290   0.00000   0.00554   0.00554   2.68369
   R14        2.06888   0.00294   0.00000   0.00683   0.00683   2.07572
   R15        2.06462   0.00313   0.00000   0.00724   0.00724   2.07186
   R16        2.70951  -0.00255   0.00000  -0.00513  -0.00513   2.70438
   R17        2.90700  -0.00015   0.00000  -0.00039  -0.00039   2.90661
   R18        2.69394  -0.00857   0.00000  -0.01680  -0.01680   2.67714
   R19        2.95941  -0.01104   0.00000  -0.03209  -0.03209   2.92732
   R20        2.06757  -0.00052   0.00000  -0.00120  -0.00120   2.06637
   R21        2.06927  -0.00171   0.00000  -0.00398  -0.00398   2.06529
   R22        2.06291   0.00084   0.00000   0.00194   0.00194   2.06485
   R23        1.83574  -0.00930   0.00000  -0.01468  -0.01468   1.82107
   R24        2.88426   0.00259   0.00000   0.00678   0.00678   2.89104
   R25        2.71626  -0.01076   0.00000  -0.02189  -0.02189   2.69437
   R26        2.07263  -0.00232   0.00000  -0.00544  -0.00544   2.06719
   R27        2.06869   0.00075   0.00000   0.00174   0.00174   2.07042
   R28        2.06660  -0.00013   0.00000  -0.00029  -0.00029   2.06630
   R29        2.06851  -0.00108   0.00000  -0.00252  -0.00252   2.06599
   R30        1.83167  -0.00735   0.00000  -0.01152  -0.01152   1.82016
    A1        1.92439   0.00947   0.00000   0.03294   0.03287   1.95727
    A2        1.89432  -0.00357   0.00000  -0.00998  -0.01002   1.88430
    A3        1.89269  -0.00352   0.00000  -0.00915  -0.00923   1.88346
    A4        1.93750  -0.00122   0.00000  -0.00478  -0.00482   1.93268
    A5        1.93523  -0.00088   0.00000  -0.00303  -0.00310   1.93213
    A6        1.87823  -0.00066   0.00000  -0.00730  -0.00734   1.87088
    A7        1.91837   0.01147   0.00000   0.04070   0.04074   1.95911
    A8        1.91969  -0.00387   0.00000  -0.01312  -0.01317   1.90651
    A9        1.91612  -0.00348   0.00000  -0.01089  -0.01094   1.90518
   A10        1.92383  -0.00309   0.00000  -0.00866  -0.00863   1.91519
   A11        1.92522  -0.00339   0.00000  -0.01012  -0.01012   1.91510
   A12        1.85989   0.00190   0.00000   0.00036   0.00018   1.86006
   A13        1.87146   0.01791   0.00000   0.06319   0.06333   1.93479
   A14        1.93683  -0.00505   0.00000  -0.01507  -0.01508   1.92175
   A15        1.94310  -0.00580   0.00000  -0.01942  -0.01943   1.92367
   A16        1.92306  -0.00577   0.00000  -0.01830  -0.01836   1.90470
   A17        1.92994  -0.00548   0.00000  -0.01703  -0.01698   1.91295
   A18        1.86031   0.00360   0.00000   0.00471   0.00426   1.86458
   A19        1.93479  -0.00814   0.00000  -0.02664  -0.02663   1.90816
   A20        1.90053   0.00143   0.00000   0.00090   0.00079   1.90132
   A21        1.86819   0.00435   0.00000   0.02041   0.02050   1.88869
   A22        1.92678   0.00210   0.00000   0.00250   0.00237   1.92914
   A23        1.92426   0.00288   0.00000   0.01436   0.01452   1.93878
   A24        1.90813  -0.00257   0.00000  -0.01117  -0.01120   1.89693
   A25        1.97650   0.03271   0.00000   0.09922   0.09922   2.07572
   A26        1.94297   0.00422   0.00000   0.02799   0.02809   1.97106
   A27        1.91149   0.00667   0.00000   0.03313   0.03154   1.94304
   A28        1.88165  -0.01284   0.00000  -0.06495  -0.06493   1.81673
   A29        1.92315  -0.00310   0.00000   0.00034   0.00009   1.92324
   A30        1.93387   0.00911   0.00000   0.02914   0.02953   1.96340
   A31        1.86875  -0.00450   0.00000  -0.02873  -0.02867   1.84007
   A32        1.95785  -0.00169   0.00000  -0.00547  -0.00551   1.95234
   A33        1.93716   0.00167   0.00000   0.00750   0.00749   1.94466
   A34        1.95656  -0.00410   0.00000  -0.01977  -0.01981   1.93674
   A35        1.86031   0.00120   0.00000   0.00918   0.00918   1.86949
   A36        1.83123   0.00288   0.00000   0.01183   0.01176   1.84299
   A37        1.91556   0.00034   0.00000  -0.00183  -0.00184   1.91373
   A38        1.88487   0.00096   0.00000   0.00412   0.00412   1.88899
   A39        1.97226  -0.00116   0.00000   0.00220   0.00217   1.97443
   A40        1.96790  -0.00394   0.00000  -0.01262  -0.01317   1.95472
   A41        1.89564  -0.00218   0.00000  -0.02776  -0.02797   1.86767
   A42        1.88311   0.00818   0.00000   0.04375   0.04372   1.92683
   A43        1.89024   0.00117   0.00000   0.00981   0.00983   1.90007
   A44        1.84935  -0.00197   0.00000  -0.01580  -0.01652   1.83283
   A45        1.94236   0.00042   0.00000   0.00267   0.00268   1.94504
   A46        1.94847   0.00099   0.00000   0.00301   0.00300   1.95147
   A47        1.92622  -0.00451   0.00000  -0.01908  -0.01908   1.90714
   A48        1.89731  -0.00099   0.00000  -0.00492  -0.00492   1.89239
   A49        1.84841   0.00286   0.00000   0.01479   0.01482   1.86323
   A50        1.89779   0.00139   0.00000   0.00429   0.00427   1.90206
   A51        1.89412  -0.00264   0.00000  -0.01137  -0.01137   1.88275
   A52        3.14347  -0.00066   0.00000  -0.01013  -0.01013   3.13333
   A53        3.14159  -0.00241   0.00000  -0.03746  -0.03746   3.10414
   A54        3.14178   0.00013   0.00000   0.00200   0.00200   3.14378
   A55        3.14159   0.00086   0.00000   0.01336   0.01336   3.15495
    D1        3.13538   0.00016   0.00000   0.00128   0.00128   3.13666
    D2        1.01411  -0.00092   0.00000  -0.00584  -0.00578   1.00833
    D3       -1.02710   0.00110   0.00000   0.00788   0.00785  -1.01925
    D4       -1.04788   0.00115   0.00000   0.00742   0.00741  -1.04047
    D5        3.11403   0.00006   0.00000   0.00030   0.00035   3.11438
    D6        1.07282   0.00208   0.00000   0.01402   0.01398   1.08680
    D7        1.03898  -0.00107   0.00000  -0.00688  -0.00691   1.03207
    D8       -1.08230  -0.00216   0.00000  -0.01401  -0.01396  -1.09626
    D9       -3.12351  -0.00013   0.00000  -0.00028  -0.00033  -3.12384
   D10        3.13596   0.00008   0.00000   0.00092   0.00095   3.13691
   D11        1.03496  -0.00115   0.00000  -0.00752  -0.00748   1.02749
   D12       -1.03411   0.00140   0.00000   0.00902   0.00891  -1.02520
   D13       -1.02843   0.00073   0.00000   0.00549   0.00553  -1.02290
   D14       -3.12942  -0.00049   0.00000  -0.00295  -0.00290  -3.13232
   D15        1.08469   0.00205   0.00000   0.01359   0.01349   1.09818
   D16        1.02070  -0.00087   0.00000  -0.00547  -0.00542   1.01529
   D17       -1.08029  -0.00209   0.00000  -0.01392  -0.01384  -1.09413
   D18        3.13382   0.00045   0.00000   0.00262   0.00255   3.13637
   D19       -3.12239  -0.00126   0.00000  -0.01120  -0.01111  -3.13350
   D20        1.03780   0.00036   0.00000   0.00206   0.00206   1.03986
   D21       -1.02315   0.00024   0.00000   0.00353   0.00351  -1.01965
   D22       -1.01267   0.00025   0.00000  -0.00134  -0.00136  -1.01402
   D23       -3.13566   0.00187   0.00000   0.01192   0.01181  -3.12385
   D24        1.08657   0.00175   0.00000   0.01340   0.01326   1.09983
   D25        1.03939  -0.00222   0.00000  -0.01721  -0.01707   1.02232
   D26       -1.08360  -0.00060   0.00000  -0.00395  -0.00390  -1.08750
   D27        3.13863  -0.00072   0.00000  -0.00248  -0.00245   3.13618
   D28        3.13483   0.00240   0.00000   0.02371   0.02366  -3.12469
   D29       -1.04084   0.00022   0.00000   0.00894   0.00896  -1.03188
   D30        1.06930   0.00027   0.00000   0.00600   0.00603   1.07533
   D31       -1.02415  -0.00106   0.00000  -0.03426  -0.03496  -1.05911
   D32        1.10697   0.00238   0.00000   0.00739   0.00827   1.11524
   D33        3.13452  -0.00652   0.00000  -0.04499  -0.04518   3.08934
   D34        1.12413   0.00644   0.00000   0.04585   0.04563   1.16976
   D35       -0.95486   0.00491   0.00000   0.03274   0.03254  -0.92232
   D36       -3.10388   0.00620   0.00000   0.04389   0.04371  -3.06017
   D37       -1.00022  -0.00272   0.00000  -0.01523  -0.01513  -1.01535
   D38       -3.07922  -0.00425   0.00000  -0.02834  -0.02821  -3.10743
   D39        1.05495  -0.00296   0.00000  -0.01719  -0.01705   1.03791
   D40       -3.06517  -0.00087   0.00000   0.00197   0.00203  -3.06314
   D41        1.13903  -0.00240   0.00000  -0.01113  -0.01106   1.12797
   D42       -1.00999  -0.00110   0.00000   0.00002   0.00011  -1.00988
   D43       -1.32491  -0.00846   0.00000  -0.06005  -0.06063  -1.38555
   D44        0.81802  -0.00077   0.00000  -0.00271  -0.00257   0.81545
   D45        2.92255   0.00573   0.00000   0.01527   0.01571   2.93825
   D46        1.03331  -0.00176   0.00000  -0.01848  -0.01907   1.01424
   D47       -3.10863   0.00519   0.00000   0.03173   0.03082  -3.07781
   D48       -1.06450  -0.00099   0.00000  -0.01316  -0.01375  -1.07825
   D49       -1.09684  -0.00425   0.00000  -0.02885  -0.02870  -1.12554
   D50        1.04440   0.00270   0.00000   0.02135   0.02120   1.06560
   D51        3.08853  -0.00348   0.00000  -0.02353  -0.02337   3.06516
   D52        3.08864  -0.00294   0.00000  -0.02830  -0.02755   3.06109
   D53       -1.05330   0.00400   0.00000   0.02191   0.02234  -1.03096
   D54        0.99083  -0.00217   0.00000  -0.02298  -0.02223   0.96860
   D55        1.09068   0.00083   0.00000   0.01574   0.01592   1.10661
   D56       -1.03274   0.00111   0.00000   0.01807   0.01825  -1.01449
   D57        3.13766   0.00178   0.00000   0.02370   0.02386  -3.12167
   D58       -1.09710   0.00059   0.00000  -0.00229  -0.00233  -1.09944
   D59        3.06266   0.00087   0.00000   0.00004  -0.00001   3.06265
   D60        0.94987   0.00155   0.00000   0.00567   0.00560   0.95547
   D61       -3.09160  -0.00185   0.00000  -0.01102  -0.01114  -3.10274
   D62        1.06816  -0.00157   0.00000  -0.00870  -0.00881   1.05935
   D63       -1.04463  -0.00089   0.00000  -0.00307  -0.00320  -1.04783
   D64       -0.99007  -0.00368   0.00000  -0.04018  -0.04006  -1.03013
   D65        1.20031  -0.00183   0.00000  -0.01351  -0.01341   1.18689
   D66       -3.06141   0.00241   0.00000   0.01067   0.01045  -3.05096
         Item               Value     Threshold  Converged?
 Maximum Force            0.160503     0.000450     NO 
 RMS     Force            0.014282     0.000300     NO 
 Maximum Displacement     0.621611     0.001800     NO 
 RMS     Displacement     0.203243     0.001200     NO 
 Predicted change in Energy=-3.020075D-02
 GradGradGradGradGradGradGradGradGradGradGradGradGradGradGradGradGradGrad

                          Input orientation:                          
 ---------------------------------------------------------------------
 Center     Atomic      Atomic             Coordinates (Angstroms)
 Number     Number       Type             X           Y           Z
 ---------------------------------------------------------------------
      1          6           0        1.238182    0.289747    0.073470
      2          6           0        2.429951    0.214934    0.054374
      3          6           0        3.903819    0.083937   -0.012311
      4          6           0        4.340933   -1.040814   -0.953377
      5          6           0        5.869647   -1.174302   -1.029723
      6          6           0        6.269211   -2.306051   -1.968863
      7          8           0        7.685213   -2.407565   -2.006882
      8          6           0        8.285965   -3.397604   -2.847688
      9          6           0        7.875172   -4.831638   -2.472749
     10          8           0        8.007310   -3.150642   -4.214562
     11          6           0        9.807600   -3.155821   -2.687083
     12          6           0       10.284020   -3.267208   -1.237554
     13          8           0       10.576174   -4.011254   -3.529956
     14          1           0        0.176007    0.349423    0.084921
     15          1           0        4.273638   -0.094658    1.003949
     16          1           0        4.313258    1.045913   -0.341736
     17          1           0        3.935422   -0.852350   -1.954240
     18          1           0        3.903492   -1.986312   -0.611638
     19          1           0        6.281035   -1.372437   -0.032742
     20          1           0        6.315215   -0.234386   -1.375954
     21          1           0        5.871045   -2.095348   -2.970660
     22          1           0        5.817057   -3.233915   -1.599166
     23          1           0        6.814275   -5.014552   -2.664410
     24          1           0        8.049824   -5.032641   -1.412778
     25          1           0        8.413751   -5.563843   -3.079162
     26          1           0        7.115536   -3.464179   -4.401877
     27          1           0       10.010824   -2.143875   -3.049445
     28          1           0       10.135935   -4.278883   -0.843892
     29          1           0        9.763544   -2.562243   -0.583533
     30          1           0       11.357783   -3.066188   -1.194200
     31          1           0       10.363893   -4.921995   -3.299274
 ---------------------------------------------------------------------
                    Distance matrix (angstroms):
                    1          2          3          4          5
     1  C    0.000000
     2  C    1.194268   0.000000
     3  C    2.674946   1.481180   0.000000
     4  C    3.528721   2.498863   1.530274   0.000000
     5  C    4.981059   3.864810   2.546129   1.536430   0.000000
     6  C    6.018350   5.018841   3.890400   2.519979   1.523971
     7  O    7.291609   6.224472   4.948215   3.763256   2.402510
     8  C    8.473545   7.467616   6.274049   4.970528   3.753219
     9  C    8.761361   7.842491   6.781465   5.400896   4.413678
    10  O    8.720355   7.788315   6.705226   5.341257   4.314941
    11  C    9.639892   8.561967   7.246038   6.112564   4.709642
    12  C    9.808053   8.687968   7.310154   6.352785   4.889799
    13  O   10.894099   9.852362   8.582816   7.371602   6.037454
    14  H    1.063912   2.258160   3.738519   4.511921   5.998476
    15  H    3.198055   2.096836   1.096105   2.175055   2.801553
    16  H    3.193786   2.096252   1.096155   2.174695   2.797326
    17  H    3.562456   2.727649   2.156089   1.096214   2.167859
    18  H    3.571231   2.731369   2.155255   1.096406   2.167931
    19  H    5.310791   4.166315   2.787938   2.172910   1.096571
    20  H    5.305827   4.164493   2.788490   2.174095   1.096289
[...]
 4552,0.00013299,0.00061616,-0.00009638,-0.00000502,0.00000196,0.000000
 47,0.00000114,0.00000243,0.00000092,0.00000152,-0.00000329,-0.00000006
 ,0.00000445,-0.00000431,0.00000317,-0.00000952,-0.00000311,0.00000241,
 0.00000485,0.00002480,0.00000961,0.00000378,-0.00001474,0.00000158,0.0
 0001333,-0.00009877,0.00005046,-0.00019055,0.00001283,-0.00007664,-0.0
 0423743,0.00500050,0.00349451,0.01792422,-0.01914133,-0.01518259,-0.09
 092871,0.09880709,0.13568025,0.00003302,-0.00001051,-0.00001366,-0.000
 01655,-0.00001822,-0.00001439,0.00001910,0.00002118,0.00001776,-0.0000
 0820,-0.00004276,-0.00000228,0.00015201,-0.00000868,0.00016006,-0.0015
 8436,0.00018945,0.00007236,-0.00044576,-0.00251906,-0.00742291,0.01323
 361,-0.00092967,-0.00047918,-0.00107302,0.00036922,-0.00161149,-0.3371
 7332,0.05592103,0.22922193,0.00075241,-0.00300525,-0.01010626,-0.00139
 131,0.00058879,0.00128269,-0.00089836,-0.00203788,0.00263633,-0.000007
 76,0.00000598,0.00000763,0.00000048,-0.00000182,-0.00001197,0.00000306
 ,-0.00000149,0.00000512,-0.00000967,-0.00000052,-0.00001319,0.00000211
 ,0.00000031,-0.00000035,-0.00002699,0.00005600,0.00000047,-0.00000231,
 0.00001439,0.00001916,0.00023723,-0.00012001,0.00028143,0.00010503,0.0
 0004875,0.00001247,-0.00025086,-0.00012926,0.00021861,0.00015069,0.000
 76190,-0.00049670,0.00030607,0.00031583,0.00001980,0.32680857,0.000013
 17,-0.00000835,0.00000237,-0.00000492,-0.00001833,-0.00000607,0.000035
 45,0.00002373,-0.00000245,-0.00003215,-0.00006663,-0.00002720,0.000135
 10,0.00010331,-0.00000886,-0.00082935,0.00011861,-0.00044292,0.0013043
 6,-0.00145332,-0.00489460,-0.00661830,-0.00018563,0.00832238,0.0003684
 3,-0.00122430,0.00277425,0.05691972,-0.00891761,-0.03366389,-0.0004618
 5,0.00411882,0.00165325,0.00059197,-0.00062154,-0.00048784,-0.00280707
 ,-0.00395717,-0.00304040,-0.00000074,0.00000525,-0.00000114,-0.0000005
 6,0.00000041,0.00000147,-0.00000162,-0.00001236,-0.00000139,0.00001187
 ,0.00001163,0.00000282,-0.00001493,-0.00000613,0.00001141,0.00001042,-
 0.00003860,0.00002015,-0.00000568,-0.00005840,-0.00000356,-0.00026425,
 -0.00008660,0.00018523,0.00005093,-0.00002790,-0.00007461,0.00019847,0
 .00034541,0.00003927,0.00050973,-0.00102676,0.00002004,0.00039844,-0.0
 0100380,0.00030148,-0.05102559,0.01540502,-0.00005106,0.00000952,-0.00
 000340,0.00002536,0.00001609,0.00000653,-0.00001615,-0.00001711,0.0000
 0117,0.00006188,-0.00000448,0.00005336,0.00010046,-0.00016183,0.000009
 89,-0.00220162,0.00057723,-0.00040287,-0.00092403,-0.00019582,-0.00730
 123,0.03272146,-0.00435953,-0.03303413,-0.00068102,0.00067288,-0.00078
 989,0.18371626,-0.02274760,-0.18477263,-0.00092087,-0.00208908,-0.0035
 3349,0.00104329,-0.00006403,-0.00050477,0.00265584,-0.00017182,0.00063
 993,0.00000948,-0.00000431,0.00000329,-0.00000337,0.00000165,-0.000006
 60,0.00000176,0.00000282,0.00000439,0.00001274,-0.00001218,-0.00001178
 ,-0.00000464,-0.00000003,-0.00000356,0.00000600,0.00007648,0.00009641,
 0.00001333,0.00001499,0.00000732,0.00027115,-0.00002015,0.00051881,0.0
 0012983,-0.00001349,0.00010899,-0.00013618,-0.00020861,0.00004069,-0.0
 0018786,0.00005445,0.00017626,0.00009959,0.00058076,0.00004311,-0.2155
 4746,0.02832983,0.22761894,0.00002359,-0.00000066,-0.00000285,-0.00001
 193,-0.00000738,-0.00000597,0.00000755,0.00000618,0.00000762,-0.000020
 16,-0.00000677,-0.00001546,-0.00000318,0.00000429,0.00003123,-0.000163
 23,0.00025453,-0.00000904,0.00221198,-0.00004123,-0.00130604,-0.008641
 55,-0.03536621,0.00559237,-0.00586311,0.00110340,-0.00083792,0.0024548
 4,0.00218672,0.00149486,-0.04909162,-0.02335540,-0.00007217,0.00087341
 ,0.01470323,-0.00432703,-0.00148945,0.02244440,0.00309261,-0.00000415,
 -0.00000012,0.00000115,-0.00000001,-0.00000104,-0.00000042,-0.00000046
 ,0.00000411,-0.00000005,0.00000127,-0.00000308,0.00000129,0.00001674,0
 .00000240,-0.00000660,-0.00000386,0.00000538,-0.00000013,-0.00001813,0
 .00006616,0.00000813,0.00007266,-0.00005762,0.00003518,0.00030914,0.00
 006989,-0.00011003,-0.00046800,-0.00192198,0.00052510,0.00001822,0.000
 03220,0.00011493,0.00032958,0.00018763,-0.00021193,0.00004192,-0.00040
 616,-0.00056007,0.05962505,0.00001431,0.00000032,-0.00000239,-0.000007
 76,0.00000014,-0.00000179,-0.00000564,0.00000068,0.00000584,-0.0000140
 0,0.00002162,0.00000911,-0.00006942,-0.00002887,-0.00000925,-0.0003027
 9,0.00055393,0.00001649,0.00222676,0.00172272,-0.00039237,-0.00283896,
 -0.01369559,0.00335617,-0.00182581,0.00089706,-0.00064981,0.00116079,0
 .00220080,-0.00041480,-0.02097375,-0.29939486,0.03677778,-0.00085483,-
 0.00656085,0.00253032,0.00587185,-0.01616231,-0.00613837,-0.00000266,-
 0.00000088,0.00000089,-0.00000038,-0.00000200,0.00000062,-0.00000002,0
 .00000402,-0.00000185,0.00000155,-0.00000208,0.00000096,0.00001082,0.0
 0000263,-0.00000426,-0.00000361,-0.00000787,0.00000305,-0.00001071,0.0
 0004010,-0.00000604,0.00002591,-0.00002077,0.00002340,0.00031493,0.000
 04001,-0.00007601,-0.00013254,-0.00059781,0.00012141,0.00004571,0.0000
 4077,0.00001355,0.00010538,0.00019044,0.00001500,0.00012384,-0.0008883
 4,-0.00031124,0.01675931,0.32871433,-0.00001691,0.00000007,0.00000141,
 0.00000810,0.00000348,0.00000248,-0.00000090,-0.00000330,-0.00000258,0
 .00001321,-0.00001982,-0.00000411,0.00001959,0.00003139,-0.00001187,0.
 00010633,-0.00003090,-0.00018335,0.00081354,0.00013605,-0.00016987,-0.
 00220190,-0.00147142,0.00138568,0.00005519,-0.00028812,-0.00016370,-0.
 00006649,-0.00024354,0.00092978,0.00077522,0.04533399,-0.05261106,0.00
 062952,0.02916454,-0.00492897,0.00556034,-0.03473925,-0.00268408,0.000
 00293,0.00000028,-0.00000054,0.00000165,0.00000219,-0.00000319,0.00000
 196,-0.00000355,0.00000316,-0.00000866,0.00000075,-0.00000241,-0.00001
 397,-0.00000383,0.00000283,0.00001257,0.00000858,-0.00001917,0.0000191
 5,-0.00003046,0.00002515,-0.00006873,-0.00000663,-0.00001290,-0.000062
 24,-0.00004030,0.00001428,0.00006940,-0.00006731,0.00010839,-0.0001442
 9,0.00000401,0.00009851,0.00002417,-0.00003170,-0.00006460,0.00028179,
 -0.00064194,-0.00010841,-0.00505615,-0.03354313,0.06587975,-0.00000011
 ,-0.00000216,0.00000017,-0.00000020,-0.00000064,0.00000022,-0.00000103
 ,0.00000003,0.00000054,0.00000214,0.00000427,-0.00000428,-0.00001733,-
 0.00000213,0.00001449,0.00010979,0.00006717,-0.00016743,-0.00053359,-0
 .00037008,0.00009697,0.00103593,0.00156941,0.00024018,-0.00050683,-0.0
 0012589,-0.00068232,-0.00021898,-0.00064517,0.00017683,-0.00083152,0.0
 1678751,-0.00024302,-0.04670075,0.00050360,-0.00117010,-0.00007757,-0.
 00091486,0.00114514,-0.00000041,0.00000125,-0.00000003,0.00000097,0.00
 000109,-0.00000060,0.00000071,-0.00000272,0.00000031,-0.00000201,0.000
 00056,0.00000002,-0.00000792,-0.00000251,0.00000389,0.00000805,0.00000
 283,-0.00001062,0.00000698,-0.00002353,0.00000039,-0.00005541,0.000000
 99,-0.00001372,-0.00006938,-0.00002870,0.00003644,0.00007389,-0.000030
 92,0.00021266,-0.00113764,-0.00042424,0.00013814,-0.00011262,-0.000120
 96,-0.00007629,0.00009030,0.00009967,0.00009205,-0.00056460,0.00034254
 ,-0.00282402,0.04756444,0.00002215,0.00000090,-0.00000303,-0.00001088,
 -0.00000361,-0.00000341,0.00000279,0.00000317,0.00000379,-0.00001831,-
 0.00000494,0.00000538,0.00002365,-0.00000279,-0.00001552,-0.00026629,-
 0.00003070,0.00016163,0.00045060,0.00033681,0.00000331,-0.00123348,-0.
 00105521,0.00030439,-0.00083189,-0.00007665,0.00027031,0.00043471,0.00
 048093,0.00013380,0.00146056,-0.01091204,-0.00013599,0.00214694,-0.299
 59825,0.02824485,-0.00092851,0.00292083,0.00017746,-0.00000414,-0.0000
 0116,0.00000119,-0.00000141,-0.00000289,0.00000274,-0.00000082,0.00000
 512,-0.00000284,0.00000622,-0.00000139,0.00000156,0.00001380,0.0000052
 2,-0.00000581,-0.00001304,-0.00000598,0.00001867,-0.00001200,0.0000326
 3,-0.00000664,0.00006877,-0.00000635,0.00001555,0.00009926,0.00005089,
 -0.00004299,-0.00013401,0.00041153,-0.00041248,-0.00018985,0.00006916,
 -0.00084674,-0.00007850,0.00004509,0.00025767,0.00002275,-0.00012220,-
 0.00011450,0.00101261,0.00130660,0.00159105,-0.00176228,0.32875256,0.0
 0000428,0.00000020,-0.00000029,-0.00000197,-0.00000052,0.00000030,-0.0
 0000090,0.00000125,-0.00000152,-0.00000320,-0.00000010,0.00001184,-0.0
 0000762,0.00000159,-0.00002621,0.00002811,0.00001190,0.00003333,0.0001
 9022,-0.00020671,0.00020820,0.00130797,0.00014037,0.00041924,-0.000418
 68,0.00004390,0.00032467,-0.00013483,-0.00051573,0.00005470,0.00040739
 ,0.03172256,-0.00479746,-0.00028545,0.02829335,-0.05068460,-0.00023133
 ,0.00020527,0.00369223,-0.00000065,-0.00000026,0.00000004,-0.00000134,
 -0.00000124,0.00000232,-0.00000052,0.00000045,-0.00000175,0.00000673,0
 .00000073,0.00000059,0.00000160,0.00000118,0.00000019,-0.00001001,-0.0
 0000522,0.00002080,-0.00000055,-0.00000509,-0.00000805,0.00003302,0.00
 000848,0.00000093,-0.00001735,-0.00000020,0.00001353,0.00010827,-0.000
 14098,-0.00006988,-0.00003301,-0.00007582,0.00016006,-0.00005950,-0.00
 023001,-0.00024454,-0.00011242,0.00024069,0.00014024,-0.00272786,0.000
 91849,-0.00487748,0.00268548,-0.03386093,0.05346373,0.00003017,-0.0000
 0594,-0.00000546,-0.00001435,-0.00001702,-0.00001024,0.00001777,0.0000
 1820,0.00001204,-0.00003920,-0.00001571,0.00000816,0.00000094,0.000042
 68,-0.00005016,-0.00056825,0.00016726,0.00024559,-0.00129534,0.0003703
 2,-0.00022727,0.00046673,-0.00086312,-0.00026644,-0.00007239,-0.000042
 86,-0.00000865,0.00018495,0.00016162,0.00063971,0.00782043,-0.00759281
 ,-0.00862450,-0.11502346,0.05531830,0.10522545,0.00033417,0.00033100,-
 0.00541309,-0.00000520,0.00000322,0.00000282,0.00000013,0.00000142,-0.
 00000275,0.00000116,-0.00000310,0.00000184,0.00000835,-0.00000085,0.00
 000038,-0.00000032,-0.00000031,0.00000020,-0.00001701,0.00001475,0.000
 03080,0.00000115,-0.00001141,0.00001508,0.00018526,-0.00000942,0.00000
 421,0.00008300,0.00002427,-0.00004258,-0.00002486,-0.00000944,0.000066
 03,-0.00002917,-0.00018452,-0.00006377,-0.00004607,0.00016309,0.000033
 65,0.00026105,-0.00004048,-0.00001025,0.00039793,0.00010659,0.00051530
 ,-0.00026568,-0.00103754,-0.00148182,0.12144529,-0.00000704,-0.0000022
 9,0.00000178,0.00000260,-0.00000140,0.00000050,0.00000153,0.00000148,-
 0.00000157,0.00000841,-0.00000700,-0.00001654,0.00000477,0.00001287,0.
 00002915,-0.00002052,-0.00001435,-0.00000694,0.00058296,-0.00035493,0.
 00052059,0.00023886,0.00057246,-0.00068090,0.00002663,-0.00000430,-0.0
 0056363,-0.00017782,-0.00022586,0.00005019,-0.00592122,0.00234668,0.00
 468136,0.05472433,-0.09069231,-0.08378410,0.00083479,0.00139714,0.0030
 0102,0.00000091,0.00000151,-0.00000077,0.00000275,0.00000378,-0.000002
 76,0.00000175,-0.00000531,0.00000347,-0.00000794,-0.00000081,-0.000000
 35,-0.00001463,-0.00000541,0.00000319,0.00002041,0.00002194,-0.0000248
 5,0.00001236,-0.00002775,0.00002031,0.00000816,-0.00001805,0.00001319,
 -0.00006879,-0.00002107,-0.00000765,-0.00006209,0.00004041,0.00017314,
 -0.00004429,-0.00034068,0.00009643,-0.00003442,0.00010158,0.00023183,-
 0.00000744,0.00005568,0.00001992,-0.00040335,0.00012584,-0.00043540,0.
 01607038,-0.01217687,-0.02495591,-0.06032037,0.09485651,0.00003808,-0.
 00000506,-0.00000405,-0.00001792,-0.00001489,-0.00000978,0.00001530,0.
 00001611,0.00001085,-0.00004173,-0.00001001,-0.00000315,-0.00000422,0.
 00002884,0.00000741,-0.00076500,0.00023154,0.00063147,0.00079358,0.000
 19902,0.00092154,0.00084902,-0.00112565,-0.00134558,-0.00031968,0.0001
 2714,-0.00005559,-0.00028688,0.00015839,0.00085447,0.01682646,-0.01395
 915,-0.01814471,0.10198017,-0.08222701,-0.20355989,-0.00274256,0.00084
 354,-0.00819478,-0.00000713,0.00000239,0.00000173,-0.00000038,-0.00000
 235,-0.00000004,-0.00000060,0.00000028,-0.00000224,0.00000699,0.000000
 01,0.00000112,0.00000940,0.00000275,-0.00000073,-0.00001257,-0.0000078
 5,0.00002444,-0.00001338,0.00000878,-0.00001222,0.00034669,-0.00002922
 ,0.00004749,0.00012290,0.00005179,-0.00004622,-0.00004725,-0.00004131,
 0.00007429,-0.00006521,-0.00021745,0.00009168,0.00007923,0.00023341,0.
 00010772,0.00078698,-0.00019921,0.00007450,0.00017701,0.00060334,0.000
 75241,-0.00282261,0.00205412,0.00385478,-0.11352646,0.09080541,0.22229
 197,-0.00003269,0.00000767,0.00000584,0.00001578,0.00001794,0.00001043
 ,-0.00002203,-0.00001859,-0.00001049,0.00003650,0.00003375,0.00001530,
 -0.00006020,-0.00005599,-0.00001030,0.00050977,-0.00004663,-0.00006487
 ,-0.00057615,0.00006632,-0.00016896,0.00185933,0.00151429,-0.00173551,
 0.00015736,0.00020699,0.00022952,-0.00106003,-0.00011470,-0.00089667,-
 0.01574930,-0.00444273,0.00084313,-0.28312123,-0.08434819,-0.00332867,
 0.00232803,-0.00009349,0.00043080,0.00000620,-0.00000412,-0.00000293,-
 0.00000086,-0.00000091,0.00000354,-0.00000123,0.00000367,-0.00000229,-
 0.00000105,-0.00000130,0.00000134,0.00000188,0.00000122,-0.00000167,0.
 00000579,-0.00000590,0.00000643,0.00000035,0.00001429,-0.00001089,-0.0
 0007437,0.00000351,-0.00003656,-0.00006141,-0.00001831,0.00002219,-0.0
 0000546,-0.00004883,-0.00000367,-0.00001726,0.00003151,-0.00006152,0.0
 0000267,-0.00006575,-0.00007682,-0.00014818,0.00008504,0.00021380,0.00
 055893,0.00044003,0.00018973,0.00149319,0.00077955,0.00027455,-0.01341
 918,-0.00553567,-0.00112310,0.30765994,0.00000146,-0.00000016,-0.00000
 054,-0.00000071,-0.00000326,-0.00000180,0.00000630,0.00000458,0.000000
 65,-0.00000687,-0.00001292,0.00000030,0.00002220,0.00002521,-0.0000140
 0,-0.00023606,-0.00000066,0.00013356,0.00019483,0.00014920,0.00017816,
 -0.00030784,-0.00063184,0.00180705,-0.00032755,-0.00003516,0.00035366,
 0.00085415,0.00023268,0.00042446,0.01066709,0.00240779,0.00025032,-0.0
 8525918,-0.07718696,-0.00117365,-0.00005447,-0.00007963,-0.00053840,0.
 00000024,0.00000017,0.00000029,-0.00000004,0.00000018,-0.00000125,0.00
 000023,-0.00000070,0.00000131,0.00000008,0.00000048,-0.00000103,0.0000
 0063,-0.00000012,-0.00000127,-0.00000489,0.00000277,0.00000252,-0.0000
 0060,0.00000262,0.00000787,0.00005665,-0.00000308,0.00002625,0.0000467
 6,0.00001718,-0.00002838,-0.00002794,0.00020507,-0.00026566,0.00013540
 ,0.00006917,-0.00052821,0.00007577,0.00004948,0.00016185,0.00000228,-0
 .00001224,-0.00013201,0.00041063,0.00062807,-0.00075315,-0.03056290,-0
 .01023472,-0.00046749,0.01312635,0.00430154,0.00121120,0.09172944,0.08
 039305,-0.00000499,0.00000003,0.00000132,0.00000197,0.00000361,0.00000
 269,-0.00000990,-0.00000189,-0.00000187,0.00000669,0.00002357,0.000019
 71,-0.00006686,-0.00002491,-0.00003761,0.00006105,0.00007770,0.0001057
 3,0.00006145,0.00008114,0.00072175,0.00164897,0.00165096,-0.00524310,0
 .00010814,0.00036957,-0.00012454,-0.00228225,-0.00014346,-0.00151228,-
 0.03175820,-0.01062827,-0.00191690,-0.00093912,-0.00104259,-0.04580237
 ,0.00180905,0.00040713,0.00308929,0.00000090,-0.00000019,-0.00000074,-
 0.00000029,0.00000197,0.00000181,0.00000004,-0.00000063,0.00000018,0.0
 0000777,-0.00000305,0.00000122,-0.00000196,-0.00000152,-0.00000076,-0.
 00000342,0.00001571,0.00002813,0.00000411,-0.00000396,0.00000237,0.000
 08254,-0.00002863,-0.00001348,-0.00003998,-0.00001578,0.00000099,-0.00
 002109,-0.00009814,0.00010981,-0.00010201,-0.00022059,0.00019490,0.000
 04036,-0.00003419,0.00005592,-0.00044622,0.00020899,0.00042493,0.00084
 910,-0.00013711,0.00128162,0.00301114,0.00053096,-0.00098357,0.0228118
 7,0.01006872,0.00127988,0.00546516,-0.00071492,0.04857035,0.00004716,-
 0.00001242,-0.00000868,-0.00002242,-0.00002097,-0.00001297,0.00002154,
 0.00002146,0.00001420,-0.00004730,-0.00002622,-0.00002285,0.00004214,0
 .00001934,0.00005982,-0.00042922,-0.00004793,0.00001418,-0.00012226,-0
 .00085591,-0.00011601,-0.00077386,0.00417750,0.00020625,-0.00054302,0.
 00099927,0.00122837,-0.00119976,-0.00119801,0.00025272,-0.00531125,0.0
 2107294,-0.00243746,0.00108102,-0.00156166,-0.00009500,-0.02305799,0.0
 7060261,0.00354310,-0.00001014,0.00000661,0.00000442,0.00000139,-0.000
 00062,-0.00000426,0.00000153,-0.00000388,0.00000078,-0.00000209,0.0000
 0390,-0.00000229,-0.00000179,-0.00000026,0.00000651,-0.00000022,-0.000
 00707,-0.00002621,0.00000318,-0.00003247,-0.00000413,0.00000952,0.0000
 2005,0.00000792,-0.00006591,-0.00001599,0.00006609,0.00043742,-0.00026
 411,-0.00050939,0.00033042,-0.00016476,-0.00036005,-0.00072798,-0.0020
 7342,-0.00017037,0.00084001,0.00178090,0.00007030,-0.00059937,-0.00050
 745,0.00136459,0.00071719,-0.00002144,0.00048138,-0.00041798,0.0000839
 8,-0.00023514,-0.00028511,-0.00054144,-0.00029402,0.03008513,-0.000020
 80,0.00000235,0.00000055,0.00000978,0.00000727,0.00000473,-0.00001304,
 -0.00000658,-0.00000159,0.00002178,0.00003130,0.00000952,-0.00007168,-
 0.00003829,0.00000531,0.00006540,0.00017720,0.00004571,-0.00068425,-0.
 00000121,0.00014160,0.00013839,0.00093104,0.00034716,-0.00017352,0.000
 45185,0.00056313,-0.00103009,0.00004077,0.00068326,0.00188344,-0.02175
 020,0.00416406,-0.00180923,0.00387084,0.00122605,0.09005022,-0.4723629
 9,0.07539803,0.00000428,-0.00000100,-0.00000005,0.00000003,0.00000021,
 -0.00000136,-0.00000045,-0.00000048,0.00000057,-0.00000294,-0.00000003
 ,-0.00000235,-0.00000042,-0.00000193,0.00000246,0.00000494,0.00000081,
 -0.00000387,0.00000070,0.00000557,-0.00000391,-0.00001248,-0.00000474,
 -0.00002352,-0.00002109,0.00001722,0.00001835,0.00013029,-0.00009176,-
 0.00014455,-0.00000291,-0.00000088,-0.00001136,-0.00050832,-0.00026056
 ,0.00001958,0.00141648,-0.00045167,0.00027120,0.00231795,0.00087214,-0
 .00392265,-0.00043163,-0.00018566,-0.00112418,0.00030582,0.00005898,0.
 00126113,-0.00013412,-0.00028779,-0.00034020,-0.09143252,0.48897820,-0
 .00002051,0.00000227,-0.00000078,0.00000982,0.00000482,-0.00000020,0.0
 0000130,-0.00000591,0.00000283,0.00001266,-0.00000213,-0.00000354,0.00
 000697,-0.00000499,0.00002181,0.00009736,0.00007207,-0.00005568,0.0002
 0416,0.00019488,-0.00025057,0.00041987,-0.00045118,0.00009616,-0.00004
 499,0.00003897,-0.00016565,-0.00123686,-0.00036348,-0.00038933,0.00798
 891,-0.03893105,0.00226219,-0.00078017,-0.00291329,0.00214980,-0.00863
 066,0.11944712,-0.05833167,0.00000484,-0.00000073,0.00000111,-0.000000
 90,-0.00000058,-0.00000457,-0.00000026,0.00000050,0.00000147,-0.000008
 01,0.00000197,-0.00000520,0.00000129,0.00000016,0.00000179,0.00000195,
 -0.00000506,-0.00001791,-0.00000254,0.00000871,-0.00000102,-0.00001551
 ,0.00000077,-0.00000609,0.00005973,-0.00000246,-0.00000304,-0.00018467
 ,0.00015712,0.00004120,0.00024595,-0.00001864,-0.00023614,0.00021565,0
 .00018252,0.00046912,0.00125387,0.00138246,0.00050400,0.00331914,-0.00
 270800,-0.00463716,0.00015996,0.00167246,-0.00070637,0.00012030,0.0007
 6119,0.00035123,-0.00017683,0.00006231,-0.00025536,-0.00302181,-0.0785
 8282,0.05916759\\0.00003953,-0.00000967,-0.00000517,-0.00004212,0.0000
 1020,0.00000753,0.00002030,-0.00004244,-0.00002719,-0.00006363,0.00004
 279,0.00003207,0.00007962,-0.00000743,0.00000047,-0.00000533,0.0000160
 5,-0.00002654,-0.00003113,-0.00001046,0.00007278,-0.00000610,0.0000282
 3,0.00001455,0.00000967,0.00000640,0.00002294,0.00004247,-0.00003872,-
 0.00004354,-0.00003003,-0.00000267,-0.00010020,0.00002469,-0.00003013,
 0.00004008,0.00001775,0.00003284,-0.00000154,0.00000761,0.00000212,-0.
 00000011,-0.00000591,0.00000450,0.00000369,-0.00000703,0.00000590,0.00
 000293,0.00000899,-0.00000217,-0.00000510,0.00000855,-0.00000289,-0.00
 000218,-0.00001512,0.00000325,0.00000027,-0.00000820,-0.00000678,-0.00
 000035,0.00001684,-0.00000601,0.00000638,-0.00001236,-0.00001969,0.000
 01197,-0.00003604,0.00002412,-0.00000413,-0.00000699,0.00000505,-0.000
 01985,0.00001107,0.00000275,0.00000236,-0.00001243,-0.00001099,0.00000
 197,0.00000705,-0.00000141,0.00002542,-0.00000580,0.00001181,0.0000000
 3,-0.00000263,0.00000673,-0.00000221,-0.00000380,0.00000817,-0.0000092
 7,0.00000052,-0.00001944,0.00000195\\\@


 You don't have to suffer to be a poet.
 Adolescence is enough suffering for anyone.
                             -- John Ciardi
 Job cpu time:       0 days  5 hours 14 minutes 23.9 seconds.
 Elapsed time:       0 days  1 hours 18 minutes 36.4 seconds.
 File lengths (MBytes):  RWF=    464 Int=      0 D2E=      0 Chk=     18 Scr=      1
 Normal termination of Gaussian 16 at Sun May 28 14:42:37 2023.
### All Done ###
