### Starting Gaussian ###
 Entering Gaussian System, Link 0=g16
 Initial command:
 /cluster/software/gaussian/gaussian-16-A.03/avx2/g16/l1.exe "/local/scratch/cz9n3/Gau-7923.inp" -scrdir="/local/scratch/cz9n3/"
 Entering Link 1 = /cluster/software/gaussian/gaussian-16-A.03/avx2/g16/l1.exe PID=      7924.
  
 Copyright (c) 1988,1990,1992,1993,1995,1998,2003,2009,2016,
            Gaussian, Inc.  All Rights Reserved.
  
 This is part of the Gaussian(R) 16 program.  It is based on
 the Gaussian(R) 09 system (copyright 2009, Gaussian, Inc.),
 the Gaussian(R) 03 system (copyright 2003, Gaussian, Inc.),
 the Gaussian(R) 98 system (copyright 1998, Gaussian, Inc.),
 the Gaussian(R) 94 system (copyright 1995, Gaussian, Inc.),
 the Gaussian 92(TM) system (copyright 1992, Gaussian, Inc.),
 the Gaussian 90(TM) system (copyright 1990, Gaussian, Inc.),
 the Gaussian 88(TM) system (copyright 1988, Gaussian, Inc.),
 the Gaussian 86(TM) system (copyright 1986, Carnegie Mellon
 University), and the Gaussian 82(TM) system (copyright 1983,
 Carnegie Mellon University). Gaussian is a federally registered
 trademark of Gaussian, Inc.
  
 This software contains proprietary and confidential information,
 including trade secrets, belonging to Gaussian, Inc.
  
 This software is provided under written license and may be
 used, copied, transmitted, or stored only in accord with that
 written license.
  
 The following legend is applicable only to US Government
 contracts under FAR:
  
                    RESTRICTED RIGHTS LEGEND
  
 Use, reproduction and disclosure by the US Government is
 subject to restrictions as set forth in subparagraphs (a)
 and (c) of the Commercial Computer Software - Restricted
 Rights clause in FAR 52.227-19.
  
 Gaussian, Inc.
 340 Quinnipiac St., Bldg. 40, Wallingford CT 06492
  
  
 ---------------------------------------------------------------
 Warning -- This program may not be used in any manner that
 competes with the business of Gaussian, Inc. or will provide
 assistance to any competitor of Gaussian, Inc.  The licensee
 of this program is prohibited from giving any competitor of
 Gaussian, Inc. access to this program.  By using this program,
 the user acknowledges that Gaussian, Inc. is engaged in the
 business of creating and licensing software in the field of
 computational chemistry and represents and warrants to the
 licensee that it is not a competitor of Gaussian, Inc. and that
 it will not use this program in any manner prohibited above.
 ---------------------------------------------------------------
  

 Cite this work as:
 Gaussian 16, Revision A.03,
 M. J. Frisch, G. W. Trucks, H. B. Schlegel, G. E. Scuseria, 
 M. A. Robb, J. R. Cheeseman, G. Scalmani, V. Barone, 
 G. A. Petersson, H. Nakatsuji, X. Li, M. Caricato, A. V. Marenich, 
 J. Bloino, B. G. Janesko, R. Gomperts, B. Mennucci, H. P. Hratchian, 
 J. V. Ortiz, A. F. Izmaylov, J. L. Sonnenberg, D. Williams-Young, 
 F. Ding, F. Lipparini, F. Egidi, J. Goings, B. Peng, A. Petrone, 
 T. Henderson, D. Ranasinghe, V. G. Zakrzewski, J. Gao, N. Rega, 
 G. Zheng, W. Liang, M. Hada, M. Ehara, K. Toyota, R. Fukuda, 
 J. Hasegawa, M. Ishida, T. Nakajima, Y. Honda, O. Kitao, H. Nakai, 
 T. Vreven, K. Throssell, J. A. Montgomery, Jr., J. E. Peralta, 
 F. Ogliaro, M. J. Bearpark, J. J. Heyd, E. N. Brothers, K. N. Kudin, 
 V. N. Staroverov, T. A. Keith, R. Kobayashi, J. Normand, 
 K. Raghavachari, A. P. Rendell, J. C. Burant, S. S. Iyengar, 
 J. Tomasi, M. Cossi, J. M. Millam, M. Klene, C. Adamo, R. Cammi, 
 J. W. Ochterski, R. L. Martin, K. Morokuma, O. Farkas, 
 J. B. Foresman, and D. J. Fox, Gaussian, Inc., Wallingford CT, 2016.
 
 ******************************************
 Gaussian 16:  ES64L-G16RevA.03 25-Dec-2016
                29-May-2023 
 ******************************************
 %chk=NC1dCCdCCdCCdNNdC2CdC1CdN2.chk
 %NProcShared=20
 Will use up to   20 processors via shared memory.
 -----------------------------
 # opt freq b3lyp/6-31g(2df,p)
 -----------------------------
 1/18=20,19=15,26=3,38=1/1,3;
 2/9=110,12=2,17=6,18=5,40=1/2;
 3/5=1,6=6,7=104,11=2,25=1,30=1,71=1,74=-5/1,2,3;
 4//1;
 5/5=2,38=5/2;
 6/7=2,8=2,9=2,10=2,28=1/1;
 7//1,2,3,16;
 1/18=20,19=15,26=3/3(2);
 2/9=110/2;
 99//99;
 2/9=110/2;
 3/5=1,6=6,7=104,11=2,25=1,30=1,71=1,74=-5/1,2,3;
 4/5=5,16=3,69=1/1;
 5/5=2,38=5/2;
 7//1,2,3,16;
 1/18=20,19=15,26=3/3(-5);
 2/9=110/2;
 6/7=2,8=2,9=2,10=2,19=2,28=1/1;
 99/9=1/99;
 -------------------
 Title Card Required
 -------------------
 Symbolic Z-matrix:
 Charge =  0 Multiplicity = 1
 N                     4.4025    2.07308  -0.1883 
 C                     6.272     3.24003  -0.68301 
 C                     4.71476   2.08646  -0.76284 
 C                     5.58972   0.87996  -1.10996 
 C                     5.50335   1.94783  -2.15369 
 C                     7.13943   1.54819  -1.68439 
 C                     7.72785   2.60125  -2.0679 
 C                     9.00409   2.43577  -1.29491 
 N                     9.53088   2.73994  -2.64206 
 N                     11.02672   3.42972  -2.50656 
 C                     11.50848   4.87665  -3.0336 
 C                     10.25518   4.38941  -1.71694 
 C                     8.27716   4.24404  -1.32786 
 C                     9.89616   5.51072  -2.30915 
 N                     10.69766   5.81663  -3.64313 
 H                     3.37415   0.86224  -0.1592 
 H                     3.00332   1.30393  -0.36325 
 H                     3.11864   2.11922  -1.2256 
 H                     5.29552   0.21283  -0.14755 
 H                     4.66726   3.18376  -1.83238 
 H                     7.51052   1.13358  -0.66601 
 H                     7.03212   3.73143  -2.25697 
 H                     9.9049    1.99439  -1.14867 
 H                     11.98383   4.35509  -1.98639 
 H                     11.07431   6.5864   -2.94786 
 
 Add virtual bond connecting atoms H18        and H17        Dist= 2.25D+00.
 Add virtual bond connecting atoms H22        and C7         Dist= 2.53D+00.
 Add virtual bond connecting atoms H20        and C3         Dist= 2.90D+00.
 Add virtual bond connecting atoms H20        and C5         Dist= 2.88D+00.
 Add virtual bond connecting atoms H16        and N1         Dist= 3.00D+00.
 Add virtual bond connecting atoms H17        and N1         Dist= 3.04D+00.
 Add virtual bond connecting atoms H18        and N1         Dist= 3.12D+00.
 Add virtual bond connecting atoms H18        and C3         Dist= 3.14D+00.
 Add virtual bond connecting atoms H22        and C13        Dist= 3.09D+00.
 Add virtual bond connecting atoms C3         and C2         Dist= 3.67D+00.
 Add virtual bond connecting atoms H22        and C2         Dist= 3.43D+00.

 GradGradGradGradGradGradGradGradGradGradGradGradGradGradGradGradGradGrad
 Berny optimization.
 Initialization pass.
                           ----------------------------
                           !    Initial Parameters    !
                           ! (Angstroms and Degrees)  !
 --------------------------                            --------------------------
 ! Name  Definition              Value          Derivative Info.                !
 --------------------------------------------------------------------------------
 ! R1    R(1,3)                  0.6541         estimate D2E/DX2                !
 ! R2    R(1,16)                 1.5889         estimate D2E/DX2                !
 ! R3    R(1,17)                 1.6062         estimate D2E/DX2                !
 ! R4    R(1,18)                 1.6512         estimate D2E/DX2                !
 ! R5    R(2,3)                  1.9396         estimate D2E/DX2                !
 ! R6    R(2,22)                 1.8157         estimate D2E/DX2                !
 ! R7    R(3,4)                  1.5303         estimate D2E/DX2                !
 ! R8    R(3,5)                  1.6049         estimate D2E/DX2                !
 ! R9    R(3,18)                 1.6622         estimate D2E/DX2                !
 ! R10   R(3,20)                 1.533          estimate D2E/DX2                !
 ! R11   R(4,5)                  1.4957         estimate D2E/DX2                !
 ! R12   R(4,6)                  1.7827         estimate D2E/DX2                !
 ! R13   R(4,19)                 1.2074         estimate D2E/DX2                !
 ! R14   R(5,6)                  1.7483         estimate D2E/DX2                !
 ! R15   R(5,20)                 1.5264         estimate D2E/DX2                !
 ! R16   R(6,7)                  1.2658         estimate D2E/DX2                !
 ! R17   R(6,21)                 1.1605         estimate D2E/DX2                !
 ! R18   R(7,8)                  1.5012         estimate D2E/DX2                !
 ! R19   R(7,22)                 1.3406         estimate D2E/DX2                !
 ! R20   R(8,9)                  1.4781         estimate D2E/DX2                !
 ! R21   R(8,23)                 1.0137         estimate D2E/DX2                !
 ! R22   R(9,10)                 1.6528         estimate D2E/DX2                !
 ! R23   R(10,11)                1.6135         estimate D2E/DX2                !
 ! R24   R(10,12)                1.4628         estimate D2E/DX2                !
 ! R25   R(11,15)                1.3829         estimate D2E/DX2                !
 ! R26   R(11,24)                1.2628         estimate D2E/DX2                !
 ! R27   R(12,14)                1.3179         estimate D2E/DX2                !
 ! R28   R(13,22)                1.6359         estimate D2E/DX2                !
 ! R29   R(14,15)                1.586          estimate D2E/DX2                !
 ! R30   R(15,25)                1.1035         estimate D2E/DX2                !
 ! R31   R(16,17)                0.6118         estimate D2E/DX2                !
 ! R32   R(17,18)                1.1923         estimate D2E/DX2                !
 ! A1    A(3,1,16)             109.9183         estimate D2E/DX2                !
 ! A2    A(3,1,17)             109.2691         estimate D2E/DX2                !
 ! A3    A(16,1,18)             61.9371         estimate D2E/DX2                !
 ! A4    A(3,2,22)             117.4776         estimate D2E/DX2                !
 ! A5    A(1,3,2)              111.0584         estimate D2E/DX2                !
 ! A6    A(1,3,4)              117.1365         estimate D2E/DX2                !
 ! A7    A(1,3,20)             127.7846         estimate D2E/DX2                !
 ! A8    A(2,3,4)               91.0998         estimate D2E/DX2                !
 ! A9    A(2,3,5)               72.0935         estimate D2E/DX2                !
 ! A10   A(2,3,18)             140.4162         estimate D2E/DX2                !
 ! A11   A(2,3,20)              68.1545         estimate D2E/DX2                !
 ! A12   A(4,3,18)             120.0951         estimate D2E/DX2                !
 ! A13   A(4,3,20)             115.0741         estimate D2E/DX2                !
 ! A14   A(5,3,18)             103.4309         estimate D2E/DX2                !
 ! A15   A(18,3,20)             76.2261         estimate D2E/DX2                !
 ! A16   A(3,4,6)              105.9381         estimate D2E/DX2                !
 ! A17   A(3,4,19)              96.6326         estimate D2E/DX2                !
 ! A18   A(5,4,19)             159.4916         estimate D2E/DX2                !
 ! A19   A(6,4,19)             132.513          estimate D2E/DX2                !
 ! A20   A(3,5,6)              104.2965         estimate D2E/DX2                !
 ! A21   A(4,5,20)             117.5702         estimate D2E/DX2                !
 ! A22   A(6,5,20)             129.8792         estimate D2E/DX2                !
 ! A23   A(4,6,7)              144.4456         estimate D2E/DX2                !
 ! A24   A(4,6,21)              82.0269         estimate D2E/DX2                !
 ! A25   A(5,6,7)               99.4112         estimate D2E/DX2                !
 ! A26   A(5,6,21)             128.0584         estimate D2E/DX2                !
 ! A27   A(7,6,21)             114.4852         estimate D2E/DX2                !
 ! A28   A(6,7,8)               98.4811         estimate D2E/DX2                !
 ! A29   A(6,7,22)             120.1887         estimate D2E/DX2                !
 ! A30   A(8,7,22)             127.3555         estimate D2E/DX2                !
 ! A31   A(7,8,9)               79.1064         estimate D2E/DX2                !
 ! A32   A(7,8,23)             151.3665         estimate D2E/DX2                !
 ! A33   A(9,8,23)              84.5131         estimate D2E/DX2                !
 ! A34   A(8,9,10)             109.4943         estimate D2E/DX2                !
 ! A35   A(9,10,11)            128.1483         estimate D2E/DX2                !
 ! A36   A(9,10,12)             80.8339         estimate D2E/DX2                !
 ! A37   A(11,10,12)            75.2546         estimate D2E/DX2                !
 ! A38   A(10,11,15)           125.3401         estimate D2E/DX2                !
 ! A39   A(10,11,24)            58.0714         estimate D2E/DX2                !
 ! A40   A(15,11,24)           150.1049         estimate D2E/DX2                !
 ! A41   A(10,12,14)           117.3425         estimate D2E/DX2                !
 ! A42   A(12,14,15)           113.8521         estimate D2E/DX2                !
 ! A43   A(11,15,14)            78.1402         estimate D2E/DX2                !
 ! A44   A(11,15,25)            89.7892         estimate D2E/DX2                !
 ! A45   A(14,15,25)            77.1213         estimate D2E/DX2                !
 ! A46   A(16,17,18)           132.5556         estimate D2E/DX2                !
 ! A47   A(3,18,17)             82.9948         estimate D2E/DX2                !
 ! A48   A(2,22,7)              82.3475         estimate D2E/DX2                !
 ! A49   A(2,22,13)             84.8986         estimate D2E/DX2                !
 ! A50   A(7,22,13)             77.824          estimate D2E/DX2                !
 ! A51   L(1,3,5,2,-1)         183.1519         estimate D2E/DX2                !
 ! A52   L(1,3,5,2,-2)         174.3191         estimate D2E/DX2                !
 ! D1    D(16,1,3,2)          -165.569          estimate D2E/DX2                !
 ! D2    D(16,1,3,4)           -62.8334         estimate D2E/DX2                !
 ! D3    D(16,1,3,20)          116.3206         estimate D2E/DX2                !
 ! D4    D(17,1,3,2)           170.9977         estimate D2E/DX2                !
 ! D5    D(17,1,3,4)           -86.2667         estimate D2E/DX2                !
 ! D6    D(17,1,3,20)           92.8873         estimate D2E/DX2                !
 ! D7    D(16,1,5,6)          -112.6597         estimate D2E/DX2                !
 ! D8    D(17,1,5,6)          -135.7644         estimate D2E/DX2                !
 ! D9    D(22,2,3,1)          -165.3762         estimate D2E/DX2                !
 ! D10   D(22,2,3,4)            74.8726         estimate D2E/DX2                !
 ! D11   D(22,2,3,5)            20.3047         estimate D2E/DX2                !
 ! D12   D(22,2,3,18)          -69.2522         estimate D2E/DX2                !
 ! D13   D(22,2,3,20)          -41.8046         estimate D2E/DX2                !
 ! D14   D(3,2,22,7)           -88.8604         estimate D2E/DX2                !
 ! D15   D(3,2,22,13)         -167.2263         estimate D2E/DX2                !
 ! D16   D(1,3,4,6)           -132.7167         estimate D2E/DX2                !
 ! D17   D(1,3,4,19)             5.0757         estimate D2E/DX2                !
 ! D18   D(2,3,4,6)            -18.2806         estimate D2E/DX2                !
 ! D19   D(2,3,4,19)           119.5118         estimate D2E/DX2                !
 ! D20   D(18,3,4,6)           136.1504         estimate D2E/DX2                !
 ! D21   D(18,3,4,19)          -86.0573         estimate D2E/DX2                !
 ! D22   D(20,3,4,6)            48.0215         estimate D2E/DX2                !
 ! D23   D(20,3,4,19)         -174.1861         estimate D2E/DX2                !
 ! D24   D(2,3,5,6)             53.345          estimate D2E/DX2                !
 ! D25   D(18,3,5,6)          -167.5825         estimate D2E/DX2                !
 ! D26   D(2,3,18,17)         -150.1514         estimate D2E/DX2                !
 ! D27   D(4,3,18,17)           72.4741         estimate D2E/DX2                !
 ! D28   D(5,3,18,17)          131.8102         estimate D2E/DX2                !
 ! D29   D(20,3,18,17)        -176.2875         estimate D2E/DX2                !
 ! D30   D(19,4,5,20)           22.2826         estimate D2E/DX2                !
 ! D31   D(3,4,6,7)            -12.9964         estimate D2E/DX2                !
 ! D32   D(3,4,6,21)           108.5884         estimate D2E/DX2                !
 ! D33   D(19,4,6,7)          -128.1317         estimate D2E/DX2                !
 ! D34   D(19,4,6,21)           -6.5469         estimate D2E/DX2                !
 ! D35   D(3,5,6,7)           -113.3404         estimate D2E/DX2                !
 ! D36   D(3,5,6,21)            18.2136         estimate D2E/DX2                !
 ! D37   D(20,5,6,7)           -52.5775         estimate D2E/DX2                !
 ! D38   D(20,5,6,21)           78.9765         estimate D2E/DX2                !
 ! D39   D(4,6,7,8)            135.7268         estimate D2E/DX2                !
 ! D40   D(4,6,7,22)            -7.0675         estimate D2E/DX2                !
 ! D41   D(5,6,7,8)            163.3487         estimate D2E/DX2                !
 ! D42   D(5,6,7,22)            20.5544         estimate D2E/DX2                !
 ! D43   D(21,6,7,8)            23.6983         estimate D2E/DX2                !
 ! D44   D(21,6,7,22)         -119.0961         estimate D2E/DX2                !
 ! D45   D(6,7,8,9)            131.2883         estimate D2E/DX2                !
 ! D46   D(6,7,8,23)            75.0465         estimate D2E/DX2                !
 ! D47   D(22,7,8,9)           -89.8239         estimate D2E/DX2                !
 ! D48   D(22,7,8,23)         -146.0658         estimate D2E/DX2                !
 ! D49   D(6,7,22,2)            44.0755         estimate D2E/DX2                !
 ! D50   D(6,7,22,13)          130.4755         estimate D2E/DX2                !
 ! D51   D(8,7,22,2)           -87.1266         estimate D2E/DX2                !
 ! D52   D(8,7,22,13)           -0.7267         estimate D2E/DX2                !
 ! D53   D(7,8,9,10)           153.5349         estimate D2E/DX2                !
 ! D54   D(23,8,9,10)          -50.0583         estimate D2E/DX2                !
 ! D55   D(8,9,10,11)         -121.0624         estimate D2E/DX2                !
 ! D56   D(8,9,10,12)          -58.1002         estimate D2E/DX2                !
 ! D57   D(9,10,11,15)           3.379          estimate D2E/DX2                !
 ! D58   D(9,10,11,24)         147.5105         estimate D2E/DX2                !
 ! D59   D(12,10,11,15)        -62.0269         estimate D2E/DX2                !
 ! D60   D(12,10,11,24)         82.1046         estimate D2E/DX2                !
 ! D61   D(9,10,12,14)         -99.5085         estimate D2E/DX2                !
 ! D62   D(11,10,12,14)         34.0792         estimate D2E/DX2                !
 ! D63   D(10,11,15,14)         53.0664         estimate D2E/DX2                !
 ! D64   D(10,11,15,25)        129.9472         estimate D2E/DX2                !
 ! D65   D(24,11,15,14)        -33.0695         estimate D2E/DX2                !
 ! D66   D(24,11,15,25)         43.8113         estimate D2E/DX2                !
 ! D67   D(10,12,14,15)        -16.3006         estimate D2E/DX2                !
 ! D68   D(12,14,15,11)        -17.6461         estimate D2E/DX2                !
 ! D69   D(12,14,15,25)       -110.177          estimate D2E/DX2                !
 ! D70   D(18,16,17,1)         -48.0211         estimate D2E/DX2                !
 ! D71   D(16,17,18,3)         -33.9199         estimate D2E/DX2                !
 --------------------------------------------------------------------------------
 Trust Radius=3.00D-01 FncErr=1.00D-07 GrdErr=1.00D-06 EigMax=2.50D+02 EigMin=1.00D-04
 Number of steps in this run=    150 maximum allowed number of steps=    150.
 GradGradGradGradGradGradGradGradGradGradGradGradGradGradGradGradGradGrad

                          Input orientation:                          
 ---------------------------------------------------------------------
 Center     Atomic      Atomic             Coordinates (Angstroms)
 Number     Number       Type             X           Y           Z
 ---------------------------------------------------------------------
      1          7           0        4.402500    2.073080   -0.188300
      2          6           0        6.272000    3.240030   -0.683010
      3          6           0        4.714760    2.086460   -0.762840
      4          6           0        5.589720    0.879960   -1.109960
      5          6           0        5.503350    1.947830   -2.153690
      6          6           0        7.139430    1.548190   -1.684390
      7          6           0        7.727850    2.601250   -2.067900
      8          6           0        9.004090    2.435770   -1.294910
      9          7           0        9.530880    2.739940   -2.642060
     10          7           0       11.026720    3.429720   -2.506560
     11          6           0       11.508480    4.876650   -3.033600
     12          6           0       10.255180    4.389410   -1.716940
     13          6           0        8.277160    4.244040   -1.327860
     14          6           0        9.896160    5.510720   -2.309150
     15          7           0       10.697660    5.816630   -3.643130
     16          1           0        3.374150    0.862240   -0.159200
     17          1           0        3.003320    1.303930   -0.363250
     18          1           0        3.118640    2.119220   -1.225600
     19          1           0        5.295520    0.212830   -0.147550
     20          1           0        4.667260    3.183760   -1.832380
     21          1           0        7.510520    1.133580   -0.666010
     22          1           0        7.032120    3.731430   -2.256970
     23          1           0        9.904900    1.994390   -1.148670
     24          1           0       11.983830    4.355090   -1.986390
     25          1           0       11.074310    6.586400   -2.947860
 ---------------------------------------------------------------------
                    Distance matrix (angstroms):
                    1          2          3          4          5
     1  N    0.000000
     2  C    2.258659   0.000000
     3  C    0.654050   1.939612   0.000000
     4  C    1.918980   2.493536   1.530258   0.000000
     5  C    2.256173   2.103213   1.604854   1.495720   0.000000
     6  C    3.163002   2.148841   2.649153   1.782723   1.748346
     7  C    3.856140   2.108426   3.323688   2.907248   2.320069
     8  C    4.746658   2.913000   4.336297   3.756684   3.637412
     9  N    5.724152   3.835136   5.210904   4.619480   4.133635
    10  N    7.148083   5.095947   6.684740   6.165447   5.729584
    11  C    8.151729   5.968628   7.687402   7.396326   6.738977
    12  C    6.477344   4.272682   6.075372   5.869513   5.360219
    13  C    4.585265   2.333353   4.202986   4.311247   3.694401
    14  C    6.818774   4.575467   6.400276   6.436414   5.658192
    15  N    8.098090   5.915035   7.616123   7.541798   6.645818
    16  H    1.588862   3.784943   1.913199   2.411018   3.112875
    17  H    1.606208   3.812479   1.923812   2.725214   3.141724
    18  H    1.651186   3.390324   1.662173   2.766835   2.564677
    19  H    2.063898   3.225550   2.055810   1.207414   2.660454
    20  H    2.001676   1.974692   1.533049   2.584631   1.526371
    21  H    3.281868   2.443635   2.955272   1.987684   2.627723
    22  H    3.734223   1.815656   3.210687   3.395148   2.351390
    23  H    5.586135   3.868646   5.205276   4.456931   4.515072
    24  H    8.118945   5.963821   7.712531   7.330027   6.915165
    25  H    8.514592   6.276139   8.091208   8.125396   7.292642
                    6          7          8          9         10
     6  C    0.000000
     7  C    1.265801   0.000000
     8  C    2.101535   1.501228   0.000000
     9  N    2.838386   1.897317   1.478121   0.000000
    10  N    4.396265   3.429479   2.558723   1.652784   0.000000
    11  C    5.655759   4.516988   3.905497   2.937641   1.613527
    12  C    4.216810   3.115780   2.357975   2.025144   1.462798
    13  C    2.947736   1.883656   1.949193   2.358231   3.100408
    14  C    4.867395   3.636590   3.358540   2.814512   2.376489
    15  N    5.892134   4.651859   4.451127   3.439410   2.664097
    16  H    4.119959   5.061817   5.955003   6.898962   8.406181
    17  H    4.348848   5.187490   6.177240   7.061454   8.572497
    18  H    4.086969   4.710270   5.894364   6.596095   8.117635
    19  H    2.746829   3.912611   4.473409   5.526947   6.982833
    20  H    2.967931   3.124420   4.433560   4.950491   6.399824
    21  H    1.160477   2.041221   2.078934   3.250695   4.585144
    22  H    2.259624   1.340558   2.548129   2.715722   4.013746
    23  H    2.852002   2.439838   1.013736   1.710541   2.272117
    24  H    5.606969   4.603908   3.611203   3.009248   1.429317
    25  H    6.516379   5.277740   4.924001   4.155833   3.187733
                   11         12         13         14         15
    11  C    0.000000
    12  C    1.881956   0.000000
    13  C    3.708257   2.021158   0.000000
    14  C    1.877884   1.317932   2.277843   0.000000
    15  N    1.382938   2.437817   3.700315   1.586028   0.000000
    16  H    9.515513   7.887716   6.069748   8.292603   9.503554
    17  H    9.603793   7.996383   6.114582   8.306314   9.503944
    18  H    9.014527   7.505024   5.579932   7.655791   8.772505
    19  H    8.287423   6.671209   5.151113   7.342073   8.532571
    20  H    7.149203   5.717672   3.796065   5.743122   6.824701
    21  H    5.966552   4.386119   3.271199   5.248861   6.399380
    22  H    4.685348   3.333570   1.635891   3.372139   4.439108
    23  H    3.798928   2.486312   2.782548   3.702886   4.632528
    24  H    1.262787   1.749861   3.766351   2.407908   2.556388
    25  H    1.766097   2.648189   3.991879   1.718451   1.103545
                   16         17         18         19         20
    16  H    0.000000
    17  H    0.611753   0.000000
    18  H    1.668081   1.192327   0.000000
    19  H    2.028184   2.547785   3.087932   0.000000
    20  H    3.140242   2.908745   1.974753   3.472721   0.000000
    21  H    4.176127   4.520568   4.535773   2.454141   3.694291
    22  H    5.100356   5.070519   4.356406   4.454883   2.464302
    23  H    6.701605   6.980360   6.787844   5.042081   5.414327
    24  H    9.469172   9.622563   9.174394   8.079179   7.411338
    25  H    9.991751   9.986269   9.285180   9.047571   7.339792
                   21         22         23         24         25
    21  H    0.000000
    22  H    3.083642   0.000000
    23  H    2.589790   3.535322   0.000000
    24  H    5.668512   4.998159   3.255246   0.000000
    25  H    6.902223   4.996747   5.068645   2.594301   0.000000
 Stoichiometry    C11H10N4
 Framework group  C1[X(C11H10N4)]
 Deg. of freedom    69
 Full point group                 C1      NOp   1
 Largest Abelian subgroup         C1      NOp   1
 Largest concise Abelian subgroup C1      NOp   1
                         Standard orientation:                         
 ---------------------------------------------------------------------
 Center     Atomic      Atomic             Coordinates (Angstroms)
 Number     Number       Type             X           Y           Z
 ---------------------------------------------------------------------
      1          7           0       -3.977562   -0.708393   -0.511607
      2          6           0       -1.729429   -0.889782   -0.632182
      3          6           0       -3.548028   -0.571039   -0.037881
      4          6           0       -3.237539    0.905713    0.216068
      5          6           0       -2.555724   -0.071410    1.120247
      6          6           0       -1.461108    1.023639    0.308214
      7          6           0       -0.388877    0.358876    0.411482
      8          6           0        0.418572    1.077871   -0.630035
      9          7           0        1.370462    1.063558    0.500691
     10          7           0        2.916782    1.129038   -0.079224
     11          6           0        4.110707    0.066842    0.143830
     12          6           0        2.465192   -0.086346   -0.756487
     13          6           0        0.603747   -0.862495   -0.623462
     14          6           0        2.814358   -1.240756   -0.225106
     15          7           0        3.998306   -1.131679    0.824587
     16          1           0       -5.398917   -0.099156   -0.146827
     17          1           0       -5.465495   -0.658715    0.091296
     18          1           0       -4.772112   -1.321371    0.799639
     19          1           0       -4.045786    1.353786   -0.560988
     20          1           0       -2.812959   -1.556342    0.878138
     21          1           0       -1.604383    1.549196   -0.716466
     22          1           0       -0.433603   -0.961723    0.637568
     23          1           0        0.954189    1.879213   -0.944083
     24          1           0        4.001535    0.734732   -0.922302
     25          1           0        4.470374   -1.653960   -0.025229
 ---------------------------------------------------------------------
 Rotational constants (GHZ):           2.3374126           0.3170945           0.2995289
 Standard basis: 6-31G(2df,p) (6D, 7F)
 There are   515 symmetry adapted cartesian basis functions of A   symmetry.
 There are   470 symmetry adapted basis functions of A   symmetry.
   470 basis functions,   730 primitive gaussians,   515 cartesian basis functions
    52 alpha electrons       52 beta electrons
       nuclear repulsion energy       923.3099173112 Hartrees.
 NAtoms=   25 NActive=   25 NUniq=   25 SFac= 1.00D+00 NAtFMM=   60 NAOKFM=F Big=F
 Integral buffers will be    131072 words long.
 Raffenetti 2 integral format.
 Two-electron integral symmetry is turned on.
 One-electron integrals computed using PRISM.
 PrsmSu:  requested number of processors reduced to:  12 ShMem   1 Linda.
 NBasis=   470 RedAO= T EigKep=  3.83D-05  NBF=   470
 NBsUse=   470 1.00D-06 EigRej= -1.00D+00 NBFU=   470
 ExpMin= 1.61D-01 ExpMax= 4.17D+03 ExpMxC= 6.27D+02 IAcc=3 IRadAn=         5 AccDes= 0.00D+00
 Harris functional with IExCor=  402 and IRadAn=       5 diagonalized for initial guess.
 HarFok:  IExCor=  402 AccDes= 0.00D+00 IRadAn=         5 IDoV= 1 UseB2=F ITyADJ=14
 ICtDFT=  3500011 ScaDFX=  1.000000  1.000000  1.000000  1.000000
 FoFCou: FMM=F IPFlag=           0 FMFlag=      100000 FMFlg1=           0
         NFxFlg=           0 DoJE=T BraDBF=F KetDBF=T FulRan=T
         wScrn=  0.000000 ICntrl=       500 IOpCl=  0 I1Cent=   200000004 NGrid=           0
         NMat0=    1 NMatS0=      1 NMatT0=    0 NMatD0=    1 NMtDS0=    0 NMtDT0=    0
 Petite list used in FoFCou.
 Requested convergence on RMS density matrix=1.00D-08 within 128 cycles.
 Requested convergence on MAX density matrix=1.00D-06.
 Requested convergence on             energy=1.00D-06.
 No special actions if energy rises.
 Integral accuracy reduced to 1.0D-05 until final iterations.
 EnCoef did     9 forward-backward iterations
 EnCoef did   100 forward-backward iterations
 EnCoef did     5 forward-backward iterations
 EnCoef did     5 forward-backward iterations
 EnCoef did     2 forward-backward iterations
 EnCoef did     2 forward-backward iterations
 Initial convergence to 1.0D-05 achieved.  Increase integral accuracy.
 EnCoef did   100 forward-backward iterations
 SCF Done:  E(RB3LYP) =  -640.066167447     A.U. after   35 cycles
            NFock= 35  Conv=0.76D-08     -V/T= 1.9911

 **********************************************************************

            Population analysis using the SCF density.

 **********************************************************************

 Orbital symmetries:
       Occupied  (A) (A) (A) (A) (A) (A) (A) (A) (A) (A) (A) (A)
                 (A) (A) (A) (A) (A) (A) (A) (A) (A) (A) (A) (A)
                 (A) (A) (A) (A) (A) (A) (A) (A) (A) (A) (A) (A)
                 (A) (A) (A) (A) (A) (A) (A) (A) (A) (A) (A) (A)
                 (A) (A) (A) (A)
       Virtual   (A) (A) (A) (A) (A) (A) (A) (A) (A) (A) (A) (A)
                 (A) (A) (A) (A) (A) (A) (A) (A) (A) (A) (A) (A)
                 (A) (A) (A) (A) (A) (A) (A) (A) (A) (A) (A) (A)
                 (A) (A) (A) (A) (A) (A) (A) (A) (A) (A) (A) (A)
                 (A) (A) (A) (A) (A) (A) (A) (A) (A) (A) (A) (A)
                 (A) (A) (A) (A) (A) (A) (A) (A) (A) (A) (A) (A)
                 (A) (A) (A) (A) (A) (A) (A) (A) (A) (A) (A) (A)
                 (A) (A) (A) (A) (A) (A) (A) (A) (A) (A) (A) (A)
                 (A) (A) (A) (A) (A) (A) (A) (A) (A) (A) (A) (A)
                 (A) (A) (A) (A) (A) (A) (A) (A) (A) (A) (A) (A)
                 (A) (A) (A) (A) (A) (A) (A) (A) (A) (A) (A) (A)
                 (A) (A) (A) (A) (A) (A) (A) (A) (A) (A) (A) (A)
                 (A) (A) (A) (A) (A) (A) (A) (A) (A) (A) (A) (A)
                 (A) (A) (A) (A) (A) (A) (A) (A) (A) (A) (A) (A)
                 (A) (A) (A) (A) (A) (A) (A) (A) (A) (A) (A) (A)
                 (A) (A) (A) (A) (A) (A) (A) (A) (A) (A) (A) (A)
                 (A) (A) (A) (A) (A) (A) (A) (A) (A) (A) (A) (A)
                 (A) (A) (A) (A) (A) (A) (A) (A) (A) (A) (A) (A)
                 (A) (A) (A) (A) (A) (A) (A) (A) (A) (A) (A) (A)
                 (A) (A) (A) (A) (A) (A) (A) (A) (A) (A) (A) (A)
                 (A) (A) (A) (A) (A) (A) (A) (A) (A) (A) (A) (A)
                 (A) (A) (A) (A) (A) (A) (A) (A) (A) (A) (A) (A)
                 (A) (A) (A) (A) (A) (A) (A) (A) (A) (A) (A) (A)
                 (A) (A) (A) (A) (A) (A) (A) (A) (A) (A) (A) (A)
                 (A) (A) (A) (A) (A) (A) (A) (A) (A) (A) (A) (A)
                 (A) (A) (A) (A) (A) (A) (A) (A) (A) (A) (A) (A)
                 (A) (A) (A) (A) (A) (A) (A) (A) (A) (A) (A) (A)
                 (A) (A) (A) (A) (A) (A) (A) (A) (A) (A) (A) (A)
                 (A) (A) (A) (A) (A) (A) (A) (A) (A) (A) (A) (A)
                 (A) (A) (A) (A) (A) (A) (A) (A) (A) (A) (A) (A)
                 (A) (A) (A) (A) (A) (A) (A) (A) (A) (A) (A) (A)
                 (A) (A) (A) (A) (A) (A) (A) (A) (A) (A) (A) (A)
                 (A) (A) (A) (A) (A) (A) (A) (A) (A) (A) (A) (A)
                 (A) (A) (A) (A) (A) (A) (A) (A) (A) (A) (A) (A)
                 (A) (A) (A) (A) (A) (A) (A) (A) (A) (A)
 The electronic state is 1-A.
 Alpha  occ. eigenvalues --  -14.40845 -14.40365 -14.36422 -14.35474 -10.35264
 Alpha  occ. eigenvalues --  -10.34220 -10.32319 -10.30694 -10.30693 -10.30500
 Alpha  occ. eigenvalues --  -10.30243 -10.29184 -10.27380 -10.24673 -10.22551
 Alpha  occ. eigenvalues --   -1.04457  -1.03566  -0.97683  -0.93888  -0.90148
 Alpha  occ. eigenvalues --   -0.82612  -0.74794  -0.73866  -0.71675  -0.69205
 Alpha  occ. eigenvalues --   -0.65471  -0.61703  -0.59400  -0.57506  -0.56452
 Alpha  occ. eigenvalues --   -0.54413  -0.52694  -0.50106  -0.49072  -0.47411
 Alpha  occ. eigenvalues --   -0.44225  -0.43818  -0.41150  -0.40074  -0.39826
 Alpha  occ. eigenvalues --   -0.37618  -0.35699  -0.32569  -0.31148  -0.30181
 Alpha  occ. eigenvalues --   -0.28465  -0.27534  -0.25131  -0.23386  -0.20734
 Alpha  occ. eigenvalues --   -0.19165  -0.18423
 Alpha virt. eigenvalues --   -0.14403  -0.12766  -0.11176  -0.10435  -0.07399
 Alpha virt. eigenvalues --   -0.05878  -0.04629  -0.02227  -0.01465  -0.01277
 Alpha virt. eigenvalues --   -0.00291   0.01317   0.02862   0.04394   0.05916
 Alpha virt. eigenvalues --    0.07399   0.07666   0.10394   0.11568   0.13775
 Alpha virt. eigenvalues --    0.14468   0.16116   0.18484   0.19558   0.22292
 Alpha virt. eigenvalues --    0.24218   0.28422   0.29042   0.29094   0.32041
 Alpha virt. eigenvalues --    0.34597   0.35175   0.36784   0.37367   0.39540
 Alpha virt. eigenvalues --    0.40100   0.40614   0.41657   0.42171   0.43034
 Alpha virt. eigenvalues --    0.45014   0.46154   0.47572   0.48193   0.49249
 Alpha virt. eigenvalues --    0.49683   0.50395   0.51574   0.52674   0.53057
 Alpha virt. eigenvalues --    0.53636   0.54599   0.55696   0.57342   0.58168
 Alpha virt. eigenvalues --    0.58970   0.59517   0.60192   0.60384   0.60958
 Alpha virt. eigenvalues --    0.62088   0.62344   0.63454   0.64501   0.65255
 Alpha virt. eigenvalues --    0.66033   0.67550   0.68132   0.68813   0.70150
 Alpha virt. eigenvalues --    0.71424   0.72225   0.72898   0.73733   0.73931
 Alpha virt. eigenvalues --    0.74573   0.75829   0.77368   0.77940   0.78665
 Alpha virt. eigenvalues --    0.80171   0.81084   0.82088   0.82556   0.83940
 Alpha virt. eigenvalues --    0.84808   0.85737   0.87470   0.88452   0.89091
 Alpha virt. eigenvalues --    0.89910   0.90614   0.92845   0.93885   0.94832
 Alpha virt. eigenvalues --    0.95933   0.98055   0.98591   0.99957   1.02589
 Alpha virt. eigenvalues --    1.04172   1.05515   1.06771   1.07992   1.10068
 Alpha virt. eigenvalues --    1.11141   1.12328   1.13557   1.14677   1.15792
 Alpha virt. eigenvalues --    1.17694   1.18600   1.19558   1.21831   1.22467
 Alpha virt. eigenvalues --    1.24839   1.26863   1.28090   1.29347   1.29629
 Alpha virt. eigenvalues --    1.31419   1.32455   1.33394   1.34579   1.36643
 Alpha virt. eigenvalues --    1.37755   1.38110   1.40327   1.42898   1.44255
 Alpha virt. eigenvalues --    1.45018   1.46195   1.47237   1.48928   1.49629
 Alpha virt. eigenvalues --    1.51165   1.52331   1.52670   1.54792   1.55640
 Alpha virt. eigenvalues --    1.57077   1.58658   1.59673   1.60043   1.60909
 Alpha virt. eigenvalues --    1.62862   1.64002   1.65262   1.65746   1.66365
 Alpha virt. eigenvalues --    1.67516   1.69146   1.70924   1.72511   1.74091
 Alpha virt. eigenvalues --    1.76212   1.76734   1.77721   1.78206   1.80522
 Alpha virt. eigenvalues --    1.81201   1.85674   1.86938   1.88398   1.88702
 Alpha virt. eigenvalues --    1.90732   1.91131   1.94691   1.96107   1.97408
 Alpha virt. eigenvalues --    1.99709   2.01480   2.05520   2.06836   2.08541
 Alpha virt. eigenvalues --    2.12037   2.13594   2.18396   2.18852   2.20890
 Alpha virt. eigenvalues --    2.22029   2.25255   2.27051   2.29791   2.31331
 Alpha virt. eigenvalues --    2.35628   2.36006   2.38193   2.39418   2.40265
 Alpha virt. eigenvalues --    2.42762   2.43587   2.47953   2.49018   2.50582
 Alpha virt. eigenvalues --    2.51365   2.51771   2.54674   2.58410   2.60849
 Alpha virt. eigenvalues --    2.62375   2.64189   2.64836   2.67750   2.68558
 Alpha virt. eigenvalues --    2.70790   2.72271   2.72943   2.74497   2.75336
 Alpha virt. eigenvalues --    2.76314   2.78171   2.78386   2.80961   2.82359
 Alpha virt. eigenvalues --    2.83161   2.83485   2.87319   2.88009   2.89941
 Alpha virt. eigenvalues --    2.90505   2.92198   2.93455   2.95465   2.95931
 Alpha virt. eigenvalues --    2.97564   2.99424   3.00632   3.02343   3.03112
 Alpha virt. eigenvalues --    3.04367   3.05722   3.06530   3.07316   3.08624
 Alpha virt. eigenvalues --    3.09342   3.10994   3.13015   3.14322   3.14557
 Alpha virt. eigenvalues --    3.17519   3.19106   3.20119   3.22576   3.23371
 Alpha virt. eigenvalues --    3.25202   3.26229   3.27508   3.28365   3.30185
 Alpha virt. eigenvalues --    3.31065   3.32413   3.34859   3.35253   3.37072
 Alpha virt. eigenvalues --    3.37518   3.39209   3.39807   3.41764   3.43260
 Alpha virt. eigenvalues --    3.46057   3.47884   3.50241   3.54383   3.55218
 Alpha virt. eigenvalues --    3.56759   3.57997   3.59312   3.60012   3.62571
 Alpha virt. eigenvalues --    3.63466   3.66124   3.66407   3.67503   3.69549
 Alpha virt. eigenvalues --    3.73127   3.73501   3.75132   3.77997   3.82002
 Alpha virt. eigenvalues --    3.82907   3.84804   3.86596   3.87914   3.88501
 Alpha virt. eigenvalues --    3.89557   3.91561   3.93449   3.95338   3.97528
 Alpha virt. eigenvalues --    3.98962   4.00312   4.02648   4.03517   4.06110
 Alpha virt. eigenvalues --    4.09252   4.10877   4.11855   4.13896   4.14899
 Alpha virt. eigenvalues --    4.16127   4.17785   4.19277   4.21320   4.24729
 Alpha virt. eigenvalues --    4.25482   4.28292   4.29821   4.30868   4.31413
 Alpha virt. eigenvalues --    4.33786   4.34238   4.37522   4.38032   4.40054
 Alpha virt. eigenvalues --    4.40842   4.42716   4.43283   4.44800   4.46516
 Alpha virt. eigenvalues --    4.47049   4.48530   4.49645   4.50481   4.51157
 Alpha virt. eigenvalues --    4.52043   4.54754   4.55993   4.56889   4.58326
 Alpha virt. eigenvalues --    4.59774   4.61351   4.62472   4.63663   4.64867
 Alpha virt. eigenvalues --    4.65474   4.66671   4.67307   4.68501   4.70958
 Alpha virt. eigenvalues --    4.72800   4.73366   4.75790   4.76978   4.77643
 Alpha virt. eigenvalues --    4.78817   4.79731   4.82112   4.83091   4.84132
 Alpha virt. eigenvalues --    4.85216   4.87925   4.90508   4.91324   4.91953
 Alpha virt. eigenvalues --    4.93140   4.96513   4.97760   4.99452   5.01112
 Alpha virt. eigenvalues --    5.03304   5.03914   5.05355   5.06453   5.09451
 Alpha virt. eigenvalues --    5.10396   5.11791   5.13920   5.15487   5.17529
 Alpha virt. eigenvalues --    5.20594   5.21253   5.23833   5.24944   5.26307
 Alpha virt. eigenvalues --    5.28112   5.30720   5.32646   5.35965   5.36637
 Alpha virt. eigenvalues --    5.39199   5.42745   5.44884   5.49502   5.51167
 Alpha virt. eigenvalues --    5.52898   5.56499   5.61790   5.64148   5.71663
 Alpha virt. eigenvalues --    5.83937   6.08966   6.16126   6.26980   6.45769
 Alpha virt. eigenvalues --    6.58744   7.36344   7.50784   7.93387  10.04113
 Alpha virt. eigenvalues --   10.40053  10.68229  10.93095  11.06328  11.14836
 Alpha virt. eigenvalues --   11.19059  11.30950  11.45162  11.53015  11.55704
 Alpha virt. eigenvalues --   11.75813  11.89119  12.33429  12.79058  13.42247
 Alpha virt. eigenvalues --   13.94335  15.38848  49.35346
          Condensed to atoms (all electrons):
               1          2          3          4          5          6
     1  N   12.919730  -0.124281  -6.410961   0.056134  -0.106659  -0.023497
     2  C   -0.124281   6.274946  -0.007448   0.000937   0.003029   0.001130
     3  C   -6.410961  -0.007448  13.639136  -0.200263   0.125899  -0.033619
     4  C    0.056134   0.000937  -0.200263   5.675252   0.359213   0.098924
     5  C   -0.106659   0.003029   0.125899   0.359213   5.852059   0.100104
     6  C   -0.023497   0.001130  -0.033619   0.098924   0.100104   5.259155
     7  C    0.003713  -0.057977   0.009375  -0.009632  -0.063360   0.485892
     8  C   -0.000372   0.010500  -0.001394   0.005999   0.008143  -0.086419
     9  N    0.000000   0.002755  -0.000007  -0.000032  -0.000444   0.000913
    10  N   -0.000000  -0.000068   0.000000   0.000002   0.000008   0.000173
    11  C   -0.000000  -0.000031  -0.000000  -0.000000  -0.000000  -0.000001
    12  C    0.000000   0.000122  -0.000008   0.000006  -0.000024  -0.000700
    13  C    0.000077   0.045961  -0.000506   0.001135   0.002317  -0.018403
    14  C   -0.000000   0.001012  -0.000001   0.000001  -0.000003   0.000102
    15  N   -0.000000  -0.000004  -0.000000  -0.000000   0.000000   0.000000
    16  H   -0.110590   0.000515  -0.027328   0.026843   0.004631  -0.000457
    17  H   -0.170545   0.001148  -0.002469   0.003789   0.000825   0.000158
    18  H   -0.130437  -0.003736   0.011103  -0.037016  -0.008948   0.003127
    19  H    0.051853   0.001121  -0.120988   0.303936  -0.009585  -0.020640
    20  H   -0.087220   0.036687   0.014179  -0.072800  -0.011201   0.016464
    21  H   -0.000299   0.029877  -0.001045  -0.069875  -0.007813   0.328739
    22  H   -0.000018   0.021703   0.000657  -0.002202  -0.007878  -0.051810
    23  H    0.000001   0.000493  -0.000004   0.000235  -0.000153   0.002155
    24  H   -0.000000  -0.000003   0.000000  -0.000000  -0.000000   0.000007
    25  H    0.000000   0.000001  -0.000000   0.000000  -0.000000  -0.000000
               7          8          9         10         11         12
     1  N    0.003713  -0.000372   0.000000  -0.000000  -0.000000   0.000000
     2  C   -0.057977   0.010500   0.002755  -0.000068  -0.000031   0.000122
     3  C    0.009375  -0.001394  -0.000007   0.000000  -0.000000  -0.000008
     4  C   -0.009632   0.005999  -0.000032   0.000002  -0.000000   0.000006
     5  C   -0.063360   0.008143  -0.000444   0.000008  -0.000000  -0.000024
     6  C    0.485892  -0.086419   0.000913   0.000173  -0.000001  -0.000700
     7  C    5.127057   0.336889   0.005567   0.000114  -0.000056  -0.005909
     8  C    0.336889   5.216722   0.228535  -0.036899   0.002922  -0.014915
     9  N    0.005567   0.228535   7.103241   0.132554   0.001129  -0.151849
    10  N    0.000114  -0.036899   0.132554   6.849330   0.092765   0.313707
    11  C   -0.000056   0.002922   0.001129   0.092765   5.484609  -0.077581
    12  C   -0.005909  -0.014915  -0.151849   0.313707  -0.077581   5.206257
    13  C   -0.051814   0.089766  -0.024359  -0.008920   0.011127   0.135926
    14  C   -0.000940  -0.003215  -0.005900  -0.081506  -0.067749   0.660805
    15  N    0.000028   0.000023  -0.002834  -0.010140   0.371785  -0.056000
    16  H    0.000013   0.000000   0.000000  -0.000000  -0.000000  -0.000000
    17  H   -0.000002   0.000001  -0.000000   0.000000  -0.000000   0.000000
    18  H   -0.000018   0.000000  -0.000000   0.000000   0.000000   0.000000
    19  H   -0.000450   0.000161   0.000002   0.000000  -0.000000  -0.000000
    20  H   -0.000721  -0.000169   0.000017  -0.000000   0.000000  -0.000000
    21  H   -0.069425  -0.015740   0.002056  -0.000019   0.000000   0.000164
    22  H    0.278868  -0.019414  -0.011644   0.000449   0.000023   0.001359
    23  H   -0.008848   0.360345  -0.045092   0.012428  -0.001608  -0.006835
    24  H    0.000082  -0.001228   0.007886  -0.025924   0.265754  -0.021935
    25  H   -0.000002   0.000007  -0.000098   0.006320  -0.044108   0.001508
              13         14         15         16         17         18
     1  N    0.000077  -0.000000  -0.000000  -0.110590  -0.170545  -0.130437
     2  C    0.045961   0.001012  -0.000004   0.000515   0.001148  -0.003736
     3  C   -0.000506  -0.000001  -0.000000  -0.027328  -0.002469   0.011103
     4  C    0.001135   0.000001  -0.000000   0.026843   0.003789  -0.037016
     5  C    0.002317  -0.000003   0.000000   0.004631   0.000825  -0.008948
     6  C   -0.018403   0.000102   0.000000  -0.000457   0.000158   0.003127
     7  C   -0.051814  -0.000940   0.000028   0.000013  -0.000002  -0.000018
     8  C    0.089766  -0.003215   0.000023   0.000000   0.000001   0.000000
     9  N   -0.024359  -0.005900  -0.002834   0.000000  -0.000000  -0.000000
    10  N   -0.008920  -0.081506  -0.010140  -0.000000   0.000000   0.000000
    11  C    0.011127  -0.067749   0.371785  -0.000000  -0.000000   0.000000
    12  C    0.135926   0.660805  -0.056000  -0.000000   0.000000   0.000000
    13  C    5.976246  -0.039778   0.003129   0.000003   0.000001  -0.000006
    14  C   -0.039778   5.439413   0.155382  -0.000000   0.000000   0.000000
    15  N    0.003129   0.155382   6.539249  -0.000000  -0.000000   0.000000
    16  H    0.000003  -0.000000  -0.000000   0.766256   0.432003  -0.125597
    17  H    0.000001   0.000000  -0.000000   0.432003   0.621645   0.095446
    18  H   -0.000006   0.000000   0.000000  -0.125597   0.095446   1.145994
    19  H    0.000031  -0.000000  -0.000000   0.029734  -0.003448  -0.012270
    20  H   -0.000387   0.000003  -0.000000  -0.008666  -0.000829   0.139406
    21  H    0.000752   0.000001   0.000000   0.000394  -0.000010  -0.000336
    22  H    0.017746  -0.000349   0.000064   0.000006  -0.000004  -0.000132
    23  H   -0.005999   0.002255   0.000017  -0.000000   0.000000   0.000000
    24  H    0.000369   0.008401  -0.014449  -0.000000  -0.000000   0.000000
    25  H   -0.000285  -0.003510   0.292725  -0.000000   0.000000   0.000000
              19         20         21         22         23         24
     1  N    0.051853  -0.087220  -0.000299  -0.000018   0.000001  -0.000000
     2  C    0.001121   0.036687   0.029877   0.021703   0.000493  -0.000003
     3  C   -0.120988   0.014179  -0.001045   0.000657  -0.000004   0.000000
     4  C    0.303936  -0.072800  -0.069875  -0.002202   0.000235  -0.000000
     5  C   -0.009585  -0.011201  -0.007813  -0.007878  -0.000153  -0.000000
     6  C   -0.020640   0.016464   0.328739  -0.051810   0.002155   0.000007
     7  C   -0.000450  -0.000721  -0.069425   0.278868  -0.008848   0.000082
     8  C    0.000161  -0.000169  -0.015740  -0.019414   0.360345  -0.001228
     9  N    0.000002   0.000017   0.002056  -0.011644  -0.045092   0.007886
    10  N    0.000000  -0.000000  -0.000019   0.000449   0.012428  -0.025924
    11  C   -0.000000   0.000000   0.000000   0.000023  -0.001608   0.265754
    12  C   -0.000000  -0.000000   0.000164   0.001359  -0.006835  -0.021935
    13  C    0.000031  -0.000387   0.000752   0.017746  -0.005999   0.000369
    14  C   -0.000000   0.000003   0.000001  -0.000349   0.002255   0.008401
    15  N   -0.000000  -0.000000   0.000000   0.000064   0.000017  -0.014449
    16  H    0.029734  -0.008666   0.000394   0.000006  -0.000000  -0.000000
    17  H   -0.003448  -0.000829  -0.000010  -0.000004   0.000000  -0.000000
    18  H   -0.012270   0.139406  -0.000336  -0.000132   0.000000   0.000000
    19  H    0.554483  -0.004614   0.012296  -0.000067  -0.000003  -0.000000
    20  H   -0.004614   0.878961  -0.002920   0.005397   0.000000   0.000000
    21  H    0.012296  -0.002920   0.610005   0.001967   0.001526  -0.000001
    22  H   -0.000067   0.005397   0.001967   0.437623   0.000154  -0.000005
    23  H   -0.000003   0.000000   0.001526   0.000154   0.444717   0.001325
    24  H   -0.000000   0.000000  -0.000001  -0.000005   0.001325   0.527344
    25  H   -0.000000   0.000000   0.000000   0.000002  -0.000007  -0.009541
              25
     1  N    0.000000
     2  C    0.000001
     3  C   -0.000000
     4  C    0.000000
     5  C   -0.000000
     6  C   -0.000000
     7  C   -0.000002
     8  C    0.000007
     9  N   -0.000098
    10  N    0.006320
    11  C   -0.044108
    12  C    0.001508
    13  C   -0.000285
    14  C   -0.003510
    15  N    0.292725
    16  H   -0.000000
    17  H    0.000000
    18  H    0.000000
    19  H   -0.000000
    20  H    0.000000
    21  H    0.000000
    22  H    0.000002
    23  H   -0.000007
    24  H   -0.009541
    25  H    0.456187
 Mulliken charges:
               1
     1  N    1.133371
     2  C   -0.238387
     3  C   -0.994307
     4  C   -0.140585
     5  C   -0.240161
     6  C   -0.061496
     7  C    0.021557
     8  C   -0.080249
     9  N   -0.242399
    10  N   -0.244375
    11  C   -0.038980
    12  C    0.015899
    13  C   -0.134131
    14  C   -0.064420
    15  N   -0.278975
    16  H    0.012241
    17  H    0.022293
    18  H   -0.076579
    19  H    0.218451
    20  H    0.098414
    21  H    0.179705
    22  H    0.327502
    23  H    0.242894
    24  H    0.261916
    25  H    0.300800
 Sum of Mulliken charges =  -0.00000
 Mulliken charges with hydrogens summed into heavy atoms:
               1
     1  N    1.091327
     2  C   -0.238387
     3  C   -0.994307
     4  C    0.077866
     5  C   -0.141747
     6  C    0.118209
     7  C    0.349060
     8  C    0.162645
     9  N   -0.242399
    10  N   -0.244375
    11  C    0.222936
    12  C    0.015899
    13  C   -0.134131
    14  C   -0.064420
    15  N    0.021825
 Electronic spatial extent (au):  <R**2>=           3625.1436
 Charge=             -0.0000 electrons
 Dipole moment (field-independent basis, Debye):
    X=             -0.4862    Y=              2.6929    Z=             -2.0494  Tot=              3.4188
 Quadrupole moment (field-independent basis, Debye-Ang):
   XX=            -90.1324   YY=            -89.5474   ZZ=            -97.0763
   XY=             -9.7391   XZ=             -2.5694   YZ=             -4.0461
 Traceless Quadrupole moment (field-independent basis, Debye-Ang):
   XX=              2.1197   YY=              2.7046   ZZ=             -4.8243
   XY=             -9.7391   XZ=             -2.5694   YZ=             -4.0461
 Octapole moment (field-independent basis, Debye-Ang**2):
  XXX=             80.5581  YYY=             13.3539  ZZZ=             -5.7305  XYY=             -5.0447
  XXY=             25.8865  XXZ=            -30.3548  XZZ=              9.6215  YZZ=              8.5780
  YYZ=             -8.3606  XYZ=              5.5892
 Hexadecapole moment (field-independent basis, Debye-Ang**3):
 XXXX=          -4411.8769 YYYY=           -529.2668 ZZZZ=           -293.4420 XXXY=           -232.9786
 XXXZ=            -13.1473 YYYX=            -17.6291 YYYZ=             -9.3896 ZZZX=             34.4474
 ZZZY=             -1.2338 XXYY=           -798.8663 XXZZ=           -842.3616 YYZZ=           -137.0793
 XXYZ=             -0.0265 YYXZ=             13.5430 ZZXY=             -0.8620
 N-N= 9.233099173112D+02 E-N=-3.338895052708D+03  KE= 6.457893678516D+02
 PrsmSu:  requested number of processors reduced to:  13 ShMem   1 Linda.
 Calling FoFJK, ICntrl=      2127 FMM=F ISym2X=0 I1Cent= 0 IOpClX= 0 NMat=1 NMatS=1 NMatT=0.
 ***** Axes restored to original set *****
 -------------------------------------------------------------------
 Center     Atomic                   Forces (Hartrees/Bohr)
 Number     Number              X              Y              Z
 -------------------------------------------------------------------
      1        7          -3.368500216   -0.031346422    6.373857720
      2        6           0.068469396    0.021945826   -0.004003795
      3        6           3.429490363    0.117562524   -6.215387350
      4        6           0.020159787   -0.043832816   -0.060690893
      5        6          -0.068463545   -0.045958080    0.016165095
      6        6          -0.087223672   -0.116117961    0.114295354
      7        6           0.034470552    0.077198560   -0.001760039
      8        6          -0.005539364    0.113212662   -0.138532679
      9        7           0.003706284   -0.018650337   -0.039450347
     10        7          -0.050890172   -0.027092330    0.017355977
     11        6           0.014401106   -0.053384398    0.016864660
     12        6          -0.046878843    0.033473978    0.030574966
     13        6           0.035775739   -0.005043053    0.027161680
     14        6           0.007840592    0.033910897   -0.007278721
     15        7           0.021640524    0.015685987    0.062816406
     16        1           0.053763395   -0.156558771    0.055233807
     17        1          -0.148012305    0.075699267   -0.064624773
     18        1          -0.040073530    0.017514788   -0.052942432
     19        1           0.019650166    0.014153598   -0.046798087
     20        1          -0.001882473    0.010960590   -0.036417446
     21        1           0.000294406   -0.003874996   -0.034197499
     22        1           0.042154921   -0.041364849    0.000206723
     23        1           0.038361854   -0.041091044    0.065614973
     24        1           0.035888973    0.048749204   -0.027281339
     25        1          -0.008603937    0.004247176   -0.050781959
 -------------------------------------------------------------------
 Cartesian Forces:  Max     6.373857720 RMS     1.169519772

 GradGradGradGradGradGradGradGradGradGradGradGradGradGradGradGradGradGrad
 Berny optimization.
 FormGI is forming the generalized inverse of G from B-inverse, IUseBI=4.
 Internal  Forces:  Max     6.255837307 RMS     0.541722077
 Search for a local minimum.
 Step number   1 out of a maximum of  150
 All quantities printed in internal units (Hartrees-Bohrs-Radians)
 Mixed Optimization -- RFO/linear search
 Second derivative matrix not updated -- first step.
 ITU=  0
     Eigenvalues ---    0.00230   0.00658   0.00750   0.00885   0.01055
     Eigenvalues ---    0.01269   0.01387   0.01651   0.01721   0.01849
     Eigenvalues ---    0.02225   0.02601   0.02878   0.03106   0.03267
     Eigenvalues ---    0.04293   0.05211   0.05703   0.05950   0.06652
     Eigenvalues ---    0.07052   0.07470   0.07519   0.08368   0.08388
     Eigenvalues ---    0.08435   0.08679   0.09389   0.09679   0.09978
     Eigenvalues ---    0.10716   0.10848   0.10930   0.11204   0.11297
     Eigenvalues ---    0.12354   0.12815   0.12985   0.14395   0.14743
     Eigenvalues ---    0.14822   0.15778   0.16232   0.16448   0.17784
     Eigenvalues ---    0.18803   0.19663   0.19877   0.20476   0.20596
     Eigenvalues ---    0.21369   0.21728   0.22288   0.22704   0.24132
     Eigenvalues ---    0.24797   0.25000   0.27791   0.28606   0.32249
     Eigenvalues ---    0.33293   0.34786   0.35161   0.45170   0.45353
     Eigenvalues ---    0.49187   0.58985   0.69753  14.99834
 RFO step:  Lambda=-2.63554019D+00 EMin= 2.30000000D-03
 Linear search not attempted -- first point.
 Maximum step size (   0.300) exceeded in Quadratic search.
    -- Step size scaled by   0.753
 Iteration  1 RMS(Cart)=  0.04082386 RMS(Int)=  0.00521175
 Iteration  2 RMS(Cart)=  0.00552061 RMS(Int)=  0.00031138
 Iteration  3 RMS(Cart)=  0.00003414 RMS(Int)=  0.00030265
 Iteration  4 RMS(Cart)=  0.00000004 RMS(Int)=  0.00030265
 Variable       Old X    -DE/DX   Delta X   Delta X   Delta X     New X
                                 (Linear)    (Quad)   (Total)
    R1        1.23598   6.25584   0.00000   0.26704   0.26697   1.50295
    R2        3.00251   0.10427   0.00000   0.02037   0.02008   3.02260
    R3        3.03529  -0.40386   0.00000  -0.00408  -0.00379   3.03150
    R4        3.12029   0.39922   0.00000   0.02477   0.02703   3.14732
    R5        3.66533   0.11133   0.00000   0.02266   0.02275   3.68808
    R6        3.43109  -0.02089   0.00000  -0.00053  -0.00049   3.43060
    R7        2.89177   0.09401   0.00000   0.01735   0.01740   2.90917
    R8        3.03273   0.04384   0.00000   0.00306   0.00311   3.03584
    R9        3.14105  -0.05456   0.00000   0.00562   0.00359   3.14464
   R10        2.89704   0.01757   0.00000   0.00375   0.00373   2.90078
   R11        2.82650  -0.04392   0.00000  -0.00350  -0.00358   2.82293
   R12        3.36886  -0.05708   0.00000  -0.00594  -0.00592   3.36294
   R13        2.28168  -0.04991   0.00000  -0.01306  -0.01306   2.26862
   R14        3.30389   0.04188   0.00000   0.00784   0.00786   3.31176
   R15        2.88442   0.00382   0.00000   0.00085   0.00088   2.88530
   R16        2.39202   0.15529   0.00000   0.03815   0.03802   2.43004
   R17        2.19298  -0.02853   0.00000  -0.00737  -0.00737   2.18561
   R18        2.83691  -0.03967   0.00000  -0.01010  -0.01010   2.82681
   R19        2.53329  -0.10436   0.00000  -0.02539  -0.02554   2.50775
   R20        2.79324  -0.00313   0.00000  -0.00079  -0.00079   2.79245
   R21        1.91568   0.06144   0.00000   0.01497   0.01497   1.93066
   R22        3.12331   0.00259   0.00000   0.00069   0.00069   3.12400
   R23        3.04912   0.03129   0.00000   0.00810   0.00811   3.05723
   R24        2.76429   0.07841   0.00000   0.01977   0.01978   2.78407
   R25        2.61337   0.00740   0.00000   0.00167   0.00167   2.61505
   R26        2.38632  -0.02925   0.00000  -0.00775  -0.00775   2.37857
   R27        2.49053   0.02563   0.00000   0.00604   0.00603   2.49656
   R28        3.09139   0.04107   0.00000   0.01137   0.01137   3.10275
   R29        2.99716  -0.00244   0.00000  -0.00063  -0.00063   2.99653
   R30        2.08540  -0.03197   0.00000  -0.00811  -0.00811   2.07729
   R31        1.15605   0.20497   0.00000   0.03273   0.03276   1.18880
   R32        2.25317   0.68934   0.00000   0.02938   0.02910   2.28227
    A1        1.91844  -0.75665   0.00000  -0.03422  -0.03321   1.88523
    A2        1.90710  -1.06539   0.00000  -0.04713  -0.04661   1.86049
    A3        1.08101   0.27695   0.00000   0.01489   0.01435   1.09536
    A4        2.05037   0.06867   0.00000   0.00091   0.00103   2.05141
    A5        1.93833   0.38423   0.00000   0.01616   0.01633   1.95467
    A6        2.04442   0.06682   0.00000   0.00812   0.00847   2.05289
    A7        2.23026  -0.01744   0.00000  -0.00244  -0.00287   2.22739
    A8        1.58999  -0.10871   0.00000  -0.00588  -0.00599   1.58400
    A9        1.25827  -0.08357   0.00000  -0.00173  -0.00181   1.25646
   A10        2.45073   0.20571   0.00000   0.00781   0.00769   2.45841
   A11        1.18952  -0.05205   0.00000  -0.00049  -0.00053   1.18899
   A12        2.09606   0.04300   0.00000   0.00155   0.00195   2.09801
   A13        2.00842  -0.05324   0.00000  -0.00588  -0.00592   2.00251
   A14        1.80521   0.25819   0.00000   0.00787   0.00819   1.81340
   A15        1.33040   0.29723   0.00000   0.00983   0.00990   1.34029
   A16        1.84897   0.05894   0.00000   0.00032   0.00033   1.84930
   A17        1.68656  -0.03286   0.00000  -0.00066  -0.00069   1.68587
   A18        2.78365  -0.02417   0.00000  -0.00275  -0.00277   2.78089
   A19        2.31279  -0.01536   0.00000  -0.00333  -0.00336   2.30943
   A20        1.82032   0.03449   0.00000   0.00010   0.00011   1.82043
   A21        2.05199   0.03078   0.00000   0.00738   0.00738   2.05937
   A22        2.26682  -0.00858   0.00000  -0.00289  -0.00296   2.26386
   A23        2.52105  -0.00723   0.00000  -0.00089  -0.00088   2.52017
   A24        1.43164   0.00070   0.00000   0.00148   0.00151   1.43315
   A25        1.73505  -0.00791   0.00000  -0.00174  -0.00168   1.73337
   A26        2.23504  -0.01578   0.00000  -0.00104  -0.00106   2.23398
   A27        1.99814   0.01817   0.00000   0.00163   0.00160   1.99974
   A28        1.71882   0.11801   0.00000   0.03470   0.03477   1.75359
   A29        2.09769  -0.01099   0.00000  -0.00262  -0.00253   2.09516
   A30        2.22277  -0.11773   0.00000  -0.03464  -0.03466   2.18811
   A31        1.38067   0.04646   0.00000   0.01239   0.01231   1.39298
   A32        2.64184   0.06699   0.00000   0.01813   0.01812   2.65996
   A33        1.47503   0.01154   0.00000   0.00342   0.00333   1.47836
   A34        1.91104  -0.06124   0.00000  -0.01598  -0.01598   1.89506
   A35        2.23661   0.05993   0.00000   0.01590   0.01591   2.25252
   A36        1.41082   0.05191   0.00000   0.01395   0.01391   1.42473
   A37        1.31344  -0.00329   0.00000  -0.00086  -0.00088   1.31256
   A38        2.18760  -0.02387   0.00000  -0.00636  -0.00634   2.18126
   A39        1.01354   0.04778   0.00000   0.01299   0.01300   1.02654
   A40        2.61982  -0.01138   0.00000  -0.00297  -0.00298   2.61685
   A41        2.04801  -0.01181   0.00000  -0.00290  -0.00289   2.04512
   A42        1.98709  -0.00879   0.00000  -0.00223  -0.00223   1.98486
   A43        1.36380   0.02539   0.00000   0.00640   0.00639   1.37019
   A44        1.56712   0.02782   0.00000   0.00752   0.00751   1.57462
   A45        1.34602   0.02919   0.00000   0.00817   0.00815   1.35417
   A46        2.31353   0.25537   0.00000   0.01031   0.01031   2.32384
   A47        1.44853   1.09645   0.00000   0.04919   0.04935   1.49788
   A48        1.43724  -0.01234   0.00000   0.00285   0.00270   1.43994
   A49        1.48176   0.02276   0.00000   0.00221   0.00224   1.48400
   A50        1.35829  -0.06881   0.00000  -0.01160  -0.01165   1.34664
   A51        3.19660   0.30067   0.00000   0.01443   0.01452   3.21113
   A52        3.04244   0.09573   0.00000   0.00687   0.00729   3.04973
    D1       -2.88972  -0.07126   0.00000   0.00089   0.00072  -2.88900
    D2       -1.09665   0.06402   0.00000   0.00768   0.00788  -1.08877
    D3        2.03018  -0.27356   0.00000  -0.00941  -0.00946   2.02072
    D4        2.98447  -0.02649   0.00000  -0.00359  -0.00378   2.98069
    D5       -1.50564   0.10878   0.00000   0.00320   0.00337  -1.50227
    D6        1.62119  -0.22880   0.00000  -0.01388  -0.01396   1.60722
    D7       -1.96628  -0.15041   0.00000  -0.00583  -0.00527  -1.97155
    D8       -2.36954  -0.12995   0.00000  -0.01116  -0.01063  -2.38016
    D9       -2.88636   0.13830   0.00000   0.00992   0.01042  -2.87594
   D10        1.30677   0.02124   0.00000  -0.00024  -0.00017   1.30660
   D11        0.35438   0.04257   0.00000   0.00305   0.00313   0.35752
   D12       -1.20868  -0.20193   0.00000  -0.00487  -0.00533  -1.21400
   D13       -0.72963   0.02231   0.00000   0.00351   0.00356  -0.72607
   D14       -1.55091  -0.08077   0.00000  -0.00833  -0.00841  -1.55932
   D15       -2.91865  -0.00928   0.00000   0.00384   0.00379  -2.91486
   D16       -2.31634  -0.35672   0.00000  -0.01286  -0.01310  -2.32944
   D17        0.08859  -0.36378   0.00000  -0.01690  -0.01717   0.07142
   D18       -0.31906   0.04076   0.00000   0.00445   0.00450  -0.31456
   D19        2.08587   0.03370   0.00000   0.00042   0.00043   2.08630
   D20        2.37627   0.29552   0.00000   0.01160   0.01180   2.38807
   D21       -1.50198   0.28846   0.00000   0.00757   0.00773  -1.49426
   D22        0.83813  -0.06231   0.00000   0.00203   0.00201   0.84014
   D23       -3.04012  -0.06937   0.00000  -0.00200  -0.00206  -3.04218
   D24        0.93105  -0.01597   0.00000  -0.00412  -0.00420   0.92684
   D25       -2.92487   0.14467   0.00000   0.00239   0.00213  -2.92274
   D26       -2.62064   0.36647   0.00000   0.01383   0.01391  -2.60673
   D27        1.26491   0.10732   0.00000   0.00887   0.00848   1.27339
   D28        2.30052   0.19397   0.00000   0.00731   0.00703   2.30755
   D29       -3.07680   0.20062   0.00000   0.00719   0.00682  -3.06998
   D30        0.38891   0.03534   0.00000   0.00382   0.00390   0.39280
   D31       -0.22683  -0.03218   0.00000  -0.00929  -0.00930  -0.23613
   D32        1.89523  -0.00241   0.00000  -0.00458  -0.00461   1.89061
   D33       -2.23632  -0.03745   0.00000  -0.00615  -0.00612  -2.24244
   D34       -0.11426  -0.00768   0.00000  -0.00144  -0.00143  -0.11570
   D35       -1.97816  -0.02250   0.00000   0.00235   0.00238  -1.97579
   D36        0.31789  -0.01794   0.00000   0.00187   0.00190   0.31979
   D37       -0.91765   0.00339   0.00000   0.00384   0.00385  -0.91380
   D38        1.37840   0.00796   0.00000   0.00336   0.00338   1.38178
   D39        2.36888  -0.03465   0.00000  -0.00884  -0.00877   2.36011
   D40       -0.12335   0.02080   0.00000   0.00688   0.00684  -0.11651
   D41        2.85097  -0.07328   0.00000  -0.01532  -0.01527   2.83571
   D42        0.35874  -0.01783   0.00000   0.00039   0.00034   0.35908
   D43        0.41361  -0.05919   0.00000  -0.01364  -0.01358   0.40003
   D44       -2.07862  -0.00374   0.00000   0.00207   0.00203  -2.07659
   D45        2.29141   0.01619   0.00000   0.00395   0.00416   2.29557
   D46        1.30981  -0.02398   0.00000  -0.00726  -0.00711   1.30270
   D47       -1.56772   0.02530   0.00000   0.00764   0.00748  -1.56024
   D48       -2.54933  -0.01487   0.00000  -0.00358  -0.00378  -2.55311
   D49        0.76926  -0.03150   0.00000  -0.00005  -0.00008   0.76918
   D50        2.27723   0.00284   0.00000   0.00304   0.00305   2.28028
   D51       -1.52065  -0.07082   0.00000  -0.01252  -0.01259  -1.53324
   D52       -0.01268  -0.03648   0.00000  -0.00943  -0.00946  -0.02215
   D53        2.67969  -0.04920   0.00000  -0.01367  -0.01374   2.66595
   D54       -0.87368  -0.00685   0.00000  -0.00230  -0.00223  -0.87591
   D55       -2.11294  -0.06311   0.00000  -0.01800  -0.01805  -2.13099
   D56       -1.01404  -0.05254   0.00000  -0.01501  -0.01495  -1.02899
   D57        0.05897   0.02500   0.00000   0.00684   0.00684   0.06582
   D58        2.57454   0.02964   0.00000   0.00824   0.00824   2.58279
   D59       -1.08257  -0.00697   0.00000  -0.00191  -0.00190  -1.08447
   D60        1.43300  -0.00233   0.00000  -0.00051  -0.00050   1.43250
   D61       -1.73675  -0.03315   0.00000  -0.00889  -0.00891  -1.74566
   D62        0.59479   0.00972   0.00000   0.00239   0.00240   0.59720
   D63        0.92618   0.01850   0.00000   0.00498   0.00498   0.93117
   D64        2.26801   0.04353   0.00000   0.01201   0.01202   2.28003
   D65       -0.57717  -0.03424   0.00000  -0.00965  -0.00965  -0.58682
   D66        0.76465  -0.00921   0.00000  -0.00262  -0.00261   0.76204
   D67       -0.28450   0.00319   0.00000   0.00119   0.00116  -0.28334
   D68       -0.30798  -0.01223   0.00000  -0.00359  -0.00358  -0.31156
   D69       -1.92295  -0.02894   0.00000  -0.00816  -0.00818  -1.93113
   D70       -0.83813  -0.63158   0.00000  -0.02574  -0.02583  -0.86395
   D71       -0.59201   0.65720   0.00000   0.02853   0.02826  -0.56376
         Item               Value     Threshold  Converged?
 Maximum Force            6.255837     0.000450     NO 
 RMS     Force            0.541722     0.000300     NO 
 Maximum Displacement     0.209826     0.001800     NO 
 RMS     Displacement     0.044332     0.001200     NO 
 Predicted change in Energy=-1.362997D+00
 GradGradGradGradGradGradGradGradGradGradGradGradGradGradGradGradGradGrad

                          Input orientation:                          
 ---------------------------------------------------------------------
 Center     Atomic      Atomic             Coordinates (Angstroms)
 Number     Number       Type             X           Y           Z
 ---------------------------------------------------------------------
      1          7           0        4.324267    2.071322   -0.077265
      2          6           0        6.310441    3.209722   -0.679991
      3          6           0        4.715866    2.087987   -0.769303
      4          6           0        5.573448    0.862574   -1.133816
      5          6           0        5.503240    1.943811   -2.162174
      6          6           0        7.134678    1.507223   -1.694109
      7          6           0        7.751488    2.569851   -2.073526
      8          6           0        9.028710    2.431121   -1.307283
      9          7           0        9.562089    2.731172   -2.652304
     10          7           0       11.036762    3.459073   -2.483798
     11          6           0       11.526978    4.905032   -3.018795
     12          6           0       10.229345    4.433080   -1.728885
     13          6           0        8.347169    4.169798   -1.316192
     14          6           0        9.881420    5.542947   -2.355396
     15          7           0       10.723031    5.824381   -3.669515
     16          1           0        3.281240    0.859762   -0.128137
     17          1           0        2.930148    1.328734   -0.357375
     18          1           0        3.115283    2.153670   -1.219820
     19          1           0        5.268949    0.193900   -0.184415
     20          1           0        4.695564    3.196483   -1.830966
     21          1           0        7.494282    1.077659   -0.682265
     22          1           0        7.080014    3.700929   -2.249111
     23          1           0        9.944171    2.008711   -1.142084
     24          1           0       11.979844    4.417645   -1.950311
     25          1           0       11.072083    6.615966   -2.991344
 ---------------------------------------------------------------------
                    Distance matrix (angstroms):
                    1          2          3          4          5
     1  N    0.000000
     2  C    2.367302   0.000000
     3  C    0.795326   1.951649   0.000000
     4  C    2.034164   2.501643   1.539466   0.000000
     5  C    2.398558   2.109732   1.606498   1.493828   0.000000
     6  C    3.291018   2.146230   2.653904   1.779589   1.752508
     7  C    3.997428   2.104279   3.338891   2.922619   2.335466
     8  C    4.875878   2.896326   4.359792   3.798587   3.660225
     9  N    5.873755   3.833046   5.238822   4.659046   4.163462
    10  N    7.264629   5.064978   6.691270   6.197746   5.746244
    11  C    8.280190   5.962914   7.706309   7.439027   6.766687
    12  C    6.570821   4.237286   6.067842   5.897456   5.359130
    13  C    4.703433   2.339821   4.221302   4.320245   3.709264
    14  C    6.937147   4.582883   6.413688   6.477404   5.670942
    15  N    8.242202   5.936720   7.645777   7.587325   6.676610
    16  H    1.599490   3.873359   1.994437   2.503122   3.201523
    17  H    1.604203   3.881826   1.983668   2.794137   3.202565
    18  H    1.665489   3.408180   1.664074   2.777931   2.575735
    19  H    2.104428   3.228852   2.058048   1.200503   2.651153
    20  H    2.116440   1.983115   1.535025   2.589175   1.526835
    21  H    3.376742   2.438684   2.957691   1.984883   2.627660
    22  H    3.868679   1.815396   3.221896   3.401453   2.362465
    23  H    5.720234   3.854861   5.242178   4.518508   4.557045
    24  H    8.223223   5.934217   7.719292   7.372049   6.936220
    25  H    8.641682   6.294290   8.114281   8.172326   7.316323
                    6          7          8          9         10
     6  C    0.000000
     7  C    1.285920   0.000000
     8  C    2.142564   1.495885   0.000000
     9  N    2.882449   1.907691   1.477703   0.000000
    10  N    4.433913   3.428128   2.544238   1.653147   0.000000
    11  C    5.708958   4.538825   3.910352   2.953096   1.617817
    12  C    4.258969   3.119323   2.372154   2.048030   1.473264
    13  C    2.949960   1.867678   1.867505   2.308867   3.017009
    14  C    4.926354   3.668155   3.392509   2.845383   2.386175
    15  N    5.951165   4.687133   4.468230   3.456942   2.664401
    16  H    4.209567   5.166435   6.073958   7.023008   8.511972
    17  H    4.415517   5.266010   6.269772   7.156547   8.647382
    18  H    4.098582   4.732485   5.920578   6.629239   8.127210
    19  H    2.735861   3.921337   4.516835   5.564106   7.015425
    20  H    2.970118   3.128925   4.431272   4.957234   6.380120
    21  H    1.156576   2.056307   2.139387   3.300149   4.633122
    22  H    2.263484   1.327043   2.509356   2.695122   3.971073
    23  H    2.906798   2.447513   1.021660   1.717178   2.257764
    24  H    5.657900   4.616116   3.615101   3.030269   1.446677
    25  H    6.579152   5.314113   4.952208   4.181705   3.197628
                   11         12         13         14         15
    11  C    0.000000
    12  C    1.889565   0.000000
    13  C    3.681115   1.944792   0.000000
    14  C    1.885442   1.321125   2.306384   0.000000
    15  N    1.383824   2.438337   3.731018   1.585693   0.000000
    16  H    9.628723   7.975409   6.166964   8.393764   9.621281
    17  H    9.683932   8.049614   6.191534   8.370894   9.586978
    18  H    9.031219   7.487639   5.607735   7.652277   8.795053
    19  H    8.330150   6.705339   5.154040   7.389205   8.578768
    20  H    7.141309   5.671183   3.813995   5.716119   6.827625
    21  H    6.030820   4.453632   3.269649   5.332597   6.471464
    22  H    4.670949   3.274899   1.641907   3.354430   4.449513
    23  H    3.796840   2.510622   2.692772   3.737230   4.642614
    24  H    1.258687   1.764516   3.695925   2.415323   2.552283
    25  H    1.770587   2.658759   4.026789   1.724378   1.099255
                   16         17         18         19         20
    16  H    0.000000
    17  H    0.629087   0.000000
    18  H    1.701032   1.207727   0.000000
    19  H    2.097028   2.605332   3.090475   0.000000
    20  H    3.218727   2.962541   1.989534   3.472089   0.000000
    21  H    4.254910   4.582566   4.541188   2.445607   3.693474
    22  H    5.196291   5.140755   4.378646   4.454456   2.472835
    23  H    6.836872   7.090462   6.830868   5.105720   5.425240
    24  H    9.573117   9.694113   9.178216   8.123702   7.386895
    25  H   10.100944  10.059012   9.293065   9.099349   7.327983
                   21         22         23         24         25
    21  H    0.000000
    22  H    3.083532   0.000000
    23  H    2.660874   3.506066   0.000000
    24  H    5.734433   4.960977   3.255788   0.000000
    25  H    6.986083   4.998496   5.091046   2.596227   0.000000
 Stoichiometry    C11H10N4
 Framework group  C1[X(C11H10N4)]
 Deg. of freedom    69
 Full point group                 C1      NOp   1
 Largest Abelian subgroup         C1      NOp   1
 Largest concise Abelian subgroup C1      NOp   1
                         Standard orientation:                         
 ---------------------------------------------------------------------
 Center     Atomic      Atomic             Coordinates (Angstroms)
 Number     Number       Type             X           Y           Z
 ---------------------------------------------------------------------
      1          7           0       -4.078374   -0.758757   -0.581479
      2          6           0       -1.713596   -0.856949   -0.629433
      3          6           0       -3.546299   -0.582360   -0.017277
      4          6           0       -3.255821    0.905696    0.249681
      5          6           0       -2.554660   -0.069476    1.137900
      6          6           0       -1.483822    1.052867    0.322465
      7          6           0       -0.382965    0.394725    0.414945
      8          6           0        0.435168    1.085090   -0.629912
      9          7           0        1.393261    1.086011    0.495104
     10          7           0        2.927658    1.105971   -0.119813
     11          6           0        4.132771    0.051883    0.112427
     12          6           0        2.461410   -0.142785   -0.747290
     13          6           0        0.624692   -0.772753   -0.638547
     14          6           0        2.827589   -1.277392   -0.178123
     15          7           0        4.032073   -1.120200    0.841158
     16          1           0       -5.490542   -0.153912   -0.136154
     17          1           0       -5.519792   -0.726883    0.121916
     18          1           0       -4.759646   -1.360797    0.813967
     19          1           0       -4.072688    1.344541   -0.512783
     20          1           0       -2.781316   -1.558460    0.887340
     21          1           0       -1.645212    1.579912   -0.694317
     22          1           0       -0.407678   -0.914494    0.630302
     23          1           0        0.984408    1.874661   -0.974443
     24          1           0        4.009840    0.671784   -0.976106
     25          1           0        4.493501   -1.678797    0.014468
 ---------------------------------------------------------------------
 Rotational constants (GHZ):           2.3046088           0.3120774           0.2952316
 Standard basis: 6-31G(2df,p) (6D, 7F)
 There are   515 symmetry adapted cartesian basis functions of A   symmetry.
 There are   470 symmetry adapted basis functions of A   symmetry.
   470 basis functions,   730 primitive gaussians,   515 cartesian basis functions
    52 alpha electrons       52 beta electrons
       nuclear repulsion energy       912.5125263827 Hartrees.
 NAtoms=   25 NActive=   25 NUniq=   25 SFac= 1.00D+00 NAtFMM=   60 NAOKFM=F Big=F
 Integral buffers will be    131072 words long.
 Raffenetti 2 integral format.
 Two-electron integral symmetry is turned on.
 One-electron integrals computed using PRISM.
 PrsmSu:  requested number of processors reduced to:  12 ShMem   1 Linda.
 NBasis=   470 RedAO= T EigKep=  4.79D-05  NBF=   470
 NBsUse=   470 1.00D-06 EigRej= -1.00D+00 NBFU=   470
 Initial guess from the checkpoint file:  "NC1dCCdCCdCCdNNdC2CdC1CdN2.chk"
 B after Tr=    -0.000000    0.000000    0.000000
         Rot=    0.999995    0.002964   -0.000559   -0.000011 Ang=   0.35 deg.
[...]
   A18        2.21931   0.00002  -0.00077   0.00003  -0.00055   2.21876
   A19        2.18706   0.00002   0.00078  -0.00022   0.00040   2.18746
   A20        1.40969  -0.00019  -0.00070   0.00017  -0.00033   1.40936
   A21        2.25486   0.00018  -0.00090   0.00028  -0.00085   2.25401
   A22        2.56899   0.00018   0.00115   0.00082   0.00177   2.57075
   A23        2.01507   0.00023   0.00130   0.00019   0.00159   2.01666
   A24        2.13348  -0.00013  -0.00106  -0.00012  -0.00118   2.13230
   A25        1.56240   0.00012   0.00065   0.00029   0.00106   1.56346
   A26        2.45457  -0.00013  -0.00070  -0.00058  -0.00136   2.45321
   A27        2.10619  -0.00007  -0.00028   0.00002  -0.00035   2.10583
   A28        1.91003  -0.00033  -0.00069  -0.00054  -0.00116   1.90886
   A29        2.24764  -0.00045  -0.00044   0.00044  -0.00007   2.24757
   A30        2.12448   0.00078   0.00085  -0.00004   0.00086   2.12534
   A31        2.19095   0.00011  -0.00015  -0.00039  -0.00054   2.19041
   A32        1.89690  -0.00010   0.00006   0.00043   0.00049   1.89739
   A33        1.96432  -0.00002  -0.00027  -0.00045  -0.00072   1.96360
   A34        1.80016  -0.00269   0.00047  -0.00029   0.00018   1.80034
   A35        2.36600   0.00105   0.00010   0.00026   0.00036   2.36636
   A36        2.04714  -0.00134  -0.00018  -0.00003  -0.00021   2.04693
   A37        1.86705   0.00030   0.00004  -0.00021  -0.00017   1.86688
   A38        1.84597  -0.00019   0.00008   0.00013   0.00021   1.84618
   A39        2.21681   0.00003  -0.00073  -0.00030  -0.00104   2.21578
   A40        2.21880   0.00016   0.00075   0.00006   0.00081   2.21961
   A41        1.94249  -0.00016  -0.00019   0.00000  -0.00019   1.94229
   A42        1.72702   0.00010   0.00019  -0.00005   0.00014   1.72717
   A43        2.04122  -0.00005  -0.00011   0.00011   0.00000   2.04122
   A44        2.10525   0.00015   0.00045   0.00015   0.00060   2.10586
   A45        2.13664  -0.00010  -0.00034  -0.00026  -0.00059   2.13605
   A46        2.85204   0.00001  -0.00002   0.00050  -0.00621   2.84583
   A47        1.36587  -0.00009   0.00022  -0.00034  -0.00139   1.36448
   A48        0.63898   0.00009  -0.00222  -0.00143  -0.00353   0.63545
   A49        0.55004  -0.00021  -0.00066  -0.00022  -0.00082   0.54923
   A50        0.67200   0.00040  -0.00262  -0.00139  -0.00393   0.66807
   A51        3.27333  -0.00024  -0.00097  -0.00025  -0.00183   3.27150
   A52        4.20771   0.00026   0.00847   0.00194   0.01093   4.21864
    D1       -2.66905  -0.00030  -0.02428  -0.00184  -0.02681  -2.69586
    D2       -0.33855   0.00011  -0.01626   0.00080  -0.01604  -0.35459
    D3        1.93879   0.00035  -0.01694   0.00040  -0.01634   1.92246
    D4       -2.63868  -0.00030  -0.02610  -0.00197  -0.02720  -2.66588
    D5       -0.30817   0.00011  -0.01808   0.00067  -0.01644  -0.32461
    D6        1.96917   0.00036  -0.01876   0.00027  -0.01673   1.95243
    D7       -1.32786   0.00010  -0.01586   0.00065  -0.01830  -1.34615
    D8       -1.30421   0.00010  -0.01686   0.00039  -0.01835  -1.32257
    D9        2.96988   0.00011   0.00482   0.00097   0.00620   2.97608
   D10        0.37968  -0.00027  -0.00173  -0.00121  -0.00299   0.37669
   D11       -1.23782  -0.00015  -0.00365  -0.00097  -0.00473  -1.24255
   D12       -2.70063  -0.00022   0.00164   0.00037   0.00268  -2.69795
   D13       -1.30194  -0.00035  -0.00285  -0.00145  -0.00435  -1.30629
   D14       -1.89788   0.00032   0.00008   0.00045   0.00059  -1.89728
   D15        3.13521  -0.00059   0.00224   0.00138   0.00368   3.13889
   D16       -2.11355   0.00011  -0.00308  -0.00088  -0.00358  -2.11713
   D17        0.84141   0.00011  -0.00060  -0.00076  -0.00108   0.84033
   D18        0.63655   0.00011  -0.00044   0.00005  -0.00040   0.63616
   D19       -2.69167   0.00010   0.00204   0.00017   0.00210  -2.68957
   D20       -2.74602   0.00006  -0.01747  -0.00393  -0.02098  -2.76700
   D21        0.20894   0.00006  -0.01499  -0.00380  -0.01848   0.19046
   D22        1.66813   0.00004  -0.00045   0.00009  -0.00038   1.66775
   D23       -1.66009   0.00003   0.00203   0.00021   0.00211  -1.65798
   D24        0.55414   0.00022  -0.00117   0.00019  -0.00083   0.55331
   D25        2.64936   0.00007  -0.00009   0.00209   0.00386   2.65323
   D26       -2.97033   0.00002  -0.01745  -0.00158  -0.01866  -2.98900
   D27        0.44756   0.00008   0.00141   0.00334   0.00517   0.45274
   D28        2.60647  -0.00000  -0.01451  -0.00153  -0.01586   2.59061
   D29        2.27685   0.00011  -0.01479  -0.00098  -0.01531   2.26155
   D30       -0.00809   0.00005   0.00287   0.00135   0.00415  -0.00394
   D31       -2.03685   0.00015   0.00054  -0.00026   0.00028  -2.03657
   D32        1.35748   0.00001   0.00075  -0.00068   0.00004   1.35751
   D33        1.29848   0.00014  -0.00199  -0.00045  -0.00235   1.29613
   D34       -1.59038  -0.00001  -0.00178  -0.00087  -0.00259  -1.59298
   D35        3.05547   0.00031   0.00011   0.00010   0.00008   3.05555
   D36       -0.73925   0.00020  -0.00033  -0.00019  -0.00074  -0.73999
   D37        0.58670   0.00009   0.00351   0.00016   0.00402   0.59072
   D38        3.07516  -0.00002   0.00308  -0.00013   0.00321   3.07837
   D39        2.67093   0.00014   0.00067   0.00048   0.00114   2.67207
   D40       -0.51969  -0.00006  -0.00413  -0.00278  -0.00697  -0.52666
   D41        1.95781   0.00014  -0.00029   0.00032  -0.00001   1.95780
   D42       -1.23281  -0.00006  -0.00510  -0.00294  -0.00812  -1.24093
   D43       -0.71912   0.00027   0.00035   0.00087   0.00125  -0.71787
   D44        2.37344   0.00007  -0.00446  -0.00239  -0.00687   2.36658
   D45        3.11070   0.00007  -0.00012  -0.00053  -0.00065   3.11004
   D46        0.70847   0.00011   0.00046   0.00015   0.00061   0.70908
   D47        0.01403   0.00029   0.00438   0.00244   0.00682   0.02085
   D48       -2.38820   0.00033   0.00496   0.00312   0.00808  -2.38012
   D49        1.26806   0.00020   0.00199   0.00168   0.00370   1.27176
   D50        2.19010  -0.00052   0.00405   0.00312   0.00714   2.19724
   D51       -1.92789  -0.00005  -0.00343  -0.00195  -0.00536  -1.93325
   D52       -1.00585  -0.00077  -0.00137  -0.00051  -0.00192  -1.00777
   D53        1.60359   0.00014  -0.00088   0.00034  -0.00054   1.60304
   D54       -2.30107   0.00008  -0.00137  -0.00006  -0.00142  -2.30249
   D55       -3.09180   0.00016   0.00163  -0.00013   0.00151  -3.09029
   D56       -0.04621   0.00041   0.00104   0.00011   0.00115  -0.04506
   D57        3.04737   0.00006  -0.00024  -0.00054  -0.00078   3.04659
   D58       -0.03649   0.00010  -0.00199   0.00146  -0.00053  -0.03703
   D59       -0.00503  -0.00010   0.00032  -0.00076  -0.00044  -0.00548
   D60       -3.08890  -0.00007  -0.00144   0.00124  -0.00020  -3.08910
   D61       -3.04064  -0.00013   0.00004   0.00068   0.00072  -3.03993
   D62        0.03072   0.00012  -0.00038   0.00087   0.00049   0.03121
   D63       -0.02423   0.00006  -0.00017   0.00046   0.00029  -0.02393
   D64        3.12957  -0.00000  -0.00131   0.00059  -0.00072   3.12885
   D65        3.05955   0.00002   0.00152  -0.00155  -0.00003   3.05952
   D66       -0.06984  -0.00004   0.00038  -0.00143  -0.00105  -0.07089
   D67       -0.04100  -0.00008   0.00026  -0.00055  -0.00029  -0.04129
   D68        0.04021   0.00002  -0.00006   0.00007   0.00002   0.04023
   D69       -3.11382   0.00008   0.00111  -0.00005   0.00106  -3.11276
   D70       -1.14309   0.00001   0.02200  -0.00267   0.01789  -1.12520
   D71       -2.17254  -0.00006  -0.02636   0.00470  -0.02146  -2.19400
         Item               Value     Threshold  Converged?
 Maximum Force            0.002694     0.000450     NO 
 RMS     Force            0.000357     0.000300     NO 
 Maximum Displacement     0.057860     0.001800     NO 
 RMS     Displacement     0.009143     0.001200     NO 
 Predicted change in Energy=-4.438024D-06
 GradGradGradGradGradGradGradGradGradGradGradGradGradGradGradGradGradGrad

                          Input orientation:                          
 ---------------------------------------------------------------------
 Center     Atomic      Atomic             Coordinates (Angstroms)
 Number     Number       Type             X           Y           Z
 ---------------------------------------------------------------------
      1          7           0        4.086781    2.626290    0.231764
      2          6           0        7.313110    2.825538   -1.335622
      3          6           0        5.021205    2.494129   -0.595084
      4          6           0        5.654676    1.491371   -1.449083
      5          6           0        5.887304    3.099802   -1.626812
      6          6           0        7.128110    1.324480   -1.115308
      7          6           0        8.068757    1.685300   -2.191857
      8          6           0        9.465215    2.136391   -1.548375
      9          7           0       10.626546    2.520588   -2.278168
     10          7           0       10.490777    3.852479   -2.389659
     11          6           0       11.163038    4.818742   -2.973401
     12          6           0        9.282915    4.447574   -1.840658
     13          6           0        8.630093    3.381084   -1.277922
     14          6           0        9.206849    5.839996   -2.144980
     15          7           0       10.392505    5.979094   -2.799194
     16          1           0        1.586456    0.312433    0.178600
     17          1           0        2.133607    0.806704    0.286149
     18          1           0        3.888241    3.612528    0.413526
     19          1           0        5.080515    0.837941   -2.095907
     20          1           0        5.519144    3.763531   -2.402010
     21          1           0        7.465397    0.756309   -0.251674
     22          1           0        7.927607    1.626747   -3.262244
     23          1           0        9.697422    1.470942   -0.712096
     24          1           0       12.083045    4.726244   -3.521471
     25          1           0       10.711194    6.866313   -3.156695
 ---------------------------------------------------------------------
                    Distance matrix (angstroms):
                    1          2          3          4          5
     1  N    0.000000
     2  C    3.592435   0.000000
     3  C    1.254708   2.431266   0.000000
     4  C    2.563509   2.131496   1.461547   0.000000
     5  C    2.630665   1.480856   1.476966   1.634855   0.000000
     6  C    3.571973   1.528378   2.465311   1.519957   2.225535
     7  C    4.755579   1.613779   3.534326   2.533202   2.660607
     8  C    5.686514   2.269745   4.559163   3.866021   3.706179
     9  N    7.005673   3.458360   5.852634   5.144528   4.818732
    10  N    7.027557   3.501881   5.914544   5.463276   4.726566
    11  C    8.071762   4.634343   6.984435   6.613395   5.709766
    12  C    5.883180   2.601191   4.850729   4.696444   3.659562
    13  C    4.846704   1.430526   3.778495   3.528940   2.779161
    14  C    6.495530   3.650790   5.578228   5.657981   4.335499
    15  N    7.758231   4.644312   6.771554   6.664044   5.473723
    16  H    3.407108   6.434526   4.141966   4.537582   5.433804
    17  H    2.669970   5.790775   3.458641   3.984686   4.796661
    18  H    1.022312   3.925378   1.884600   3.330001   2.902088
    19  H    3.098991   3.084323   2.235831   1.083980   2.446828
    20  H    3.206516   2.288084   2.263693   2.467620   1.084901
    21  H    3.891733   2.340907   3.018613   2.291902   3.142187
    22  H    5.287638   2.350867   4.038968   2.910687   3.001227
    23  H    5.805600   2.812234   4.788279   4.109424   4.243453
    24  H    9.079472   5.580583   7.963396   7.488867   6.679990
    25  H    8.564011   5.584904   7.619306   7.574584   6.308492
                    6          7          8          9         10
     6  C    0.000000
     7  C    1.474437   0.000000
     8  C    2.511734   1.602388   0.000000
     9  N    3.875819   2.692107   1.424393   0.000000
    10  N    4.395711   3.256067   2.168984   1.343427   0.000000
    11  C    5.651816   4.472565   3.479699   2.460220   1.313908
    12  C    3.863034   3.037709   2.336713   2.389568   1.454122
    13  C    2.551865   2.006504   1.523100   2.393068   2.218179
    14  C    5.076541   4.308010   3.760236   3.612720   2.378773
    15  N    5.929349   4.919891   4.146176   3.505354   2.167918
    16  H    5.779997   7.037333   8.269468   9.624702   9.920423
    17  H    5.213179   6.491413   7.673723   9.035659   9.288648
    18  H    4.250794   5.289512   6.093494   7.337732   7.176970
    19  H    2.321840   3.107541   4.605579   5.798533   6.200376
    20  H    3.192702   3.296018   4.352901   5.257927   4.972444
    21  H    1.087402   2.234139   2.754149   4.148762   4.828061
    22  H    2.310822   1.081240   2.358245   3.008593   3.505014
    23  H    2.604879   2.210926   1.093667   2.101811   3.019164
    24  H    6.474026   5.208620   4.177736   2.920978   2.140043
    25  H    6.907798   5.895446   5.148914   4.434445   3.117712
                   11         12         13         14         15
    11  C    0.000000
    12  C    2.226148   0.000000
    13  C    3.370063   1.371222   0.000000
    14  C    2.357099   1.427318   2.670335   0.000000
    15  N    1.403741   2.120268   3.488556   1.361295   0.000000
    16  H   11.043226   8.967289   7.819903   9.696565  10.886910
    17  H   10.404409   8.300111   7.160871   9.015275  10.221661
    18  H    8.114733   5.906026   5.039813   6.308340   7.630705
    19  H    7.322148   5.545698   4.442541   6.484566   7.425854
    20  H    5.770051   3.866394   3.329841   4.239922   5.368065
    21  H    6.130555   4.410633   3.049450   5.697468   6.506559
    22  H    4.554149   3.437271   2.740204   4.542709   5.023252
    23  H    4.297592   3.210266   2.260087   4.624116   5.016229
    24  H    1.074872   3.277731   4.331957   3.377525   2.224689
    25  H    2.104830   3.101973   4.472985   2.083254   1.008230
                   16         17         18         19         20
    16  H    0.000000
    17  H    0.745148   0.000000
    18  H    4.030389   3.311739   0.000000
    19  H    4.202141   3.789384   3.926461   0.000000
    20  H    5.834009   5.237451   3.257282   2.974083   0.000000
    21  H    5.911354   5.359083   4.625638   3.015878   4.177946
    22  H    7.333282   6.843537   5.811289   3.176238   3.332648
    23  H    8.241556   7.658264   6.292853   4.861219   5.056657
    24  H   11.972913  11.351303   9.158569   8.135512   6.727913
    25  H   11.719146  11.052015   8.359801   8.316915   6.095423
                   21         22         23         24         25
    21  H    0.000000
    22  H    3.167780   0.000000
    23  H    2.388436   3.108019   0.000000
    24  H    6.911920   5.190544   4.917396   0.000000
    25  H    7.503766   5.934016   6.009479   2.568060   0.000000
 Stoichiometry    C11H10N4
 Framework group  C1[X(C11H10N4)]
 Deg. of freedom    69
 Full point group                 C1      NOp   1
 Largest Abelian subgroup         C1      NOp   1
 Largest concise Abelian subgroup C1      NOp   1
                         Standard orientation:                         
 ---------------------------------------------------------------------
 Center     Atomic      Atomic             Coordinates (Angstroms)
 Number     Number       Type             X           Y           Z
 ---------------------------------------------------------------------
      1          7           0       -4.207754   -1.214883   -0.614711
      2          6           0       -0.872506    0.009035   -0.082040
      3          6           0       -3.208622   -0.664400   -0.092222
      4          6           0       -2.814516    0.559471    0.602718
      5          6           0       -1.909305   -0.801891    0.596473
      6          6           0       -1.705583    1.289207   -0.137566
      7          6           0       -0.427696    1.407995    0.588286
      8          6           0        0.773508    1.523973   -0.465898
      9          7           0        2.149484    1.689747   -0.137109
     10          7           0        2.604346    0.426969   -0.079754
     11          6           0        3.749743   -0.145483    0.214724
     12          6           0        1.638099   -0.639589   -0.287823
     13          6           0        0.475129    0.033435   -0.561300
     14          6           0        2.226058   -1.921504   -0.068200
     15          7           0        3.501506   -1.526995    0.197729
     16          1           0       -7.292890   -0.116494    0.325427
     17          1           0       -6.650965   -0.351729    0.029047
     18          1           0       -4.033764   -2.205934   -0.795451
     19          1           0       -3.385105    0.961951    1.431844
     20          1           0       -1.730263   -1.509005    1.399557
     21          1           0       -1.898740    1.891229   -1.022271
     22          1           0       -0.257622    1.469750    1.654279
     23          1           0        0.458094    2.173730   -1.287139
     24          1           0        4.670181    0.345882    0.472996
     25          1           0        4.242146   -2.184750    0.385712
 ---------------------------------------------------------------------
 Rotational constants (GHZ):           1.7106520           0.3694188           0.3183386
 Standard basis: 6-31G(2df,p) (6D, 7F)
 There are   515 symmetry adapted cartesian basis functions of A   symmetry.
 There are   470 symmetry adapted basis functions of A   symmetry.
   470 basis functions,   730 primitive gaussians,   515 cartesian basis functions
    52 alpha electrons       52 beta electrons
       nuclear repulsion energy       926.0628696523 Hartrees.
 NAtoms=   25 NActive=   25 NUniq=   25 SFac= 1.00D+00 NAtFMM=   60 NAOKFM=F Big=F
 Integral buffers will be    131072 words long.
 Raffenetti 2 integral format.
 Two-electron integral symmetry is turned on.
 One-electron integrals computed using PRISM.
 PrsmSu:  requested number of processors reduced to:  12 ShMem   1 Linda.
 NBasis=   470 RedAO= T EigKep=  1.86D-04  NBF=   470
 NBsUse=   470 1.00D-06 EigRej= -1.00D+00 NBFU=   470
 Initial guess from the checkpoint file:  "NC1dCCdCCdCCdNNdC2CdC1CdN2.chk"
 B after Tr=     0.000000   -0.000000   -0.000000
         Rot=    1.000000    0.000056    0.000056    0.000100 Ang=   0.01 deg.
 ExpMin= 1.61D-01 ExpMax= 4.17D+03 ExpMxC= 6.27D+02 IAcc=2 IRadAn=         4 AccDes= 0.00D+00
 Harris functional with IExCor=  402 and IRadAn=       4 diagonalized for initial guess.
 HarFok:  IExCor=  402 AccDes= 0.00D+00 IRadAn=         4 IDoV= 1 UseB2=F ITyADJ=14
 ICtDFT=  3500011 ScaDFX=  1.000000  1.000000  1.000000  1.000000
 FoFCou: FMM=F IPFlag=           0 FMFlag=      100000 FMFlg1=           0
         NFxFlg=           0 DoJE=T BraDBF=F KetDBF=T FulRan=T
         wScrn=  0.000000 ICntrl=       500 IOpCl=  0 I1Cent=   200000004 NGrid=           0
         NMat0=    1 NMatS0=      1 NMatT0=    0 NMatD0=    1 NMtDS0=    0 NMtDT0=    0
 Petite list used in FoFCou.
 Requested convergence on RMS density matrix=1.00D-08 within 128 cycles.
 Requested convergence on MAX density matrix=1.00D-06.
 Requested convergence on             energy=1.00D-06.
 No special actions if energy rises.
 Integral accuracy reduced to 1.0D-05 until final iterations.
 Initial convergence to 1.0D-05 achieved.  Increase integral accuracy.
 SCF Done:  E(RB3LYP) =  -643.856962073     A.U. after   10 cycles
            NFock= 10  Conv=0.50D-08     -V/T= 2.0075
 PrsmSu:  requested number of processors reduced to:  13 ShMem   1 Linda.
 Calling FoFJK, ICntrl=      2127 FMM=F ISym2X=0 I1Cent= 0 IOpClX= 0 NMat=1 NMatS=1 NMatT=0.
slurmstepd: error: *** JOB 27504864 ON lewis4-r630-hpc4-node231 CANCELLED AT 2023-05-30T02:40:06 DUE TO TIME LIMIT ***
