### Starting Gaussian ###
 Entering Gaussian System, Link 0=g16
 Initial command:
 /cluster/software/gaussian/gaussian-16-A.03/avx2/g16/l1.exe "/local/scratch/yxie/Gau-6756.inp" -scrdir="/local/scratch/yxie/"
 Entering Link 1 = /cluster/software/gaussian/gaussian-16-A.03/avx2/g16/l1.exe PID=      6759.
  
 Copyright (c) 1988,1990,1992,1993,1995,1998,2003,2009,2016,
            Gaussian, Inc.  All Rights Reserved.
  
 This is part of the Gaussian(R) 16 program.  It is based on
 the Gaussian(R) 09 system (copyright 2009, Gaussian, Inc.),
 the Gaussian(R) 03 system (copyright 2003, Gaussian, Inc.),
 the Gaussian(R) 98 system (copyright 1998, Gaussian, Inc.),
 the Gaussian(R) 94 system (copyright 1995, Gaussian, Inc.),
 the Gaussian 92(TM) system (copyright 1992, Gaussian, Inc.),
 the Gaussian 90(TM) system (copyright 1990, Gaussian, Inc.),
 the Gaussian 88(TM) system (copyright 1988, Gaussian, Inc.),
 the Gaussian 86(TM) system (copyright 1986, Carnegie Mellon
 University), and the Gaussian 82(TM) system (copyright 1983,
 Carnegie Mellon University). Gaussian is a federally registered
 trademark of Gaussian, Inc.
  
 This software contains proprietary and confidential information,
 including trade secrets, belonging to Gaussian, Inc.
  
 This software is provided under written license and may be
 used, copied, transmitted, or stored only in accord with that
 written license.
  
 The following legend is applicable only to US Government
 contracts under FAR:
  
                    RESTRICTED RIGHTS LEGEND
  
 Use, reproduction and disclosure by the US Government is
 subject to restrictions as set forth in subparagraphs (a)
 and (c) of the Commercial Computer Software - Restricted
 Rights clause in FAR 52.227-19.
  
 Gaussian, Inc.
 340 Quinnipiac St., Bldg. 40, Wallingford CT 06492
  
  
 ---------------------------------------------------------------
 Warning -- This program may not be used in any manner that
 competes with the business of Gaussian, Inc. or will provide
 assistance to any competitor of Gaussian, Inc.  The licensee
 of this program is prohibited from giving any competitor of
 Gaussian, Inc. access to this program.  By using this program,
 the user acknowledges that Gaussian, Inc. is engaged in the
 business of creating and licensing software in the field of
 computational chemistry and represents and warrants to the
 licensee that it is not a competitor of Gaussian, Inc. and that
 it will not use this program in any manner prohibited above.
 ---------------------------------------------------------------
  

 Cite this work as:
 Gaussian 16, Revision A.03,
 M. J. Frisch, G. W. Trucks, H. B. Schlegel, G. E. Scuseria, 
 M. A. Robb, J. R. Cheeseman, G. Scalmani, V. Barone, 
 G. A. Petersson, H. Nakatsuji, X. Li, M. Caricato, A. V. Marenich, 
 J. Bloino, B. G. Janesko, R. Gomperts, B. Mennucci, H. P. Hratchian, 
 J. V. Ortiz, A. F. Izmaylov, J. L. Sonnenberg, D. Williams-Young, 
 F. Ding, F. Lipparini, F. Egidi, J. Goings, B. Peng, A. Petrone, 
 T. Henderson, D. Ranasinghe, V. G. Zakrzewski, J. Gao, N. Rega, 
 G. Zheng, W. Liang, M. Hada, M. Ehara, K. Toyota, R. Fukuda, 
 J. Hasegawa, M. Ishida, T. Nakajima, Y. Honda, O. Kitao, H. Nakai, 
 T. Vreven, K. Throssell, J. A. Montgomery, Jr., J. E. Peralta, 
 F. Ogliaro, M. J. Bearpark, J. J. Heyd, E. N. Brothers, K. N. Kudin, 
 V. N. Staroverov, T. A. Keith, R. Kobayashi, J. Normand, 
 K. Raghavachari, A. P. Rendell, J. C. Burant, S. S. Iyengar, 
 J. Tomasi, M. Cossi, J. M. Millam, M. Klene, C. Adamo, R. Cammi, 
 J. W. Ochterski, R. L. Martin, K. Morokuma, O. Farkas, 
 J. B. Foresman, and D. J. Fox, Gaussian, Inc., Wallingford CT, 2016.
 
 ******************************************
 Gaussian 16:  ES64L-G16RevA.03 25-Dec-2016
                27-May-2023 
 ******************************************
 %chk=NC1dNN2CdCCdCC2dCSCdCNCC1dO.chk
 %NProcShared=20
 Will use up to   20 processors via shared memory.
 -----------------------------
 # opt freq b3lyp/6-31g(2df,p)
 -----------------------------
 1/18=20,19=15,26=3,38=1/1,3;
 2/9=110,12=2,17=6,18=5,40=1/2;
 3/5=1,6=6,7=104,11=2,25=1,30=1,71=1,74=-5/1,2,3;
 4//1;
 5/5=2,38=5/2;
 6/7=2,8=2,9=2,10=2,28=1/1;
 7//1,2,3,16;
 1/18=20,19=15,26=3/3(2);
 2/9=110/2;
 99//99;
 2/9=110/2;
 3/5=1,6=6,7=104,11=2,25=1,30=1,71=1,74=-5/1,2,3;
 4/5=5,16=3,69=1/1;
 5/5=2,38=5/2;
 7//1,2,3,16;
 1/18=20,19=15,26=3/3(-5);
 2/9=110/2;
 6/7=2,8=2,9=2,10=2,19=2,28=1/1;
 99/9=1/99;
 -------------------
 Title Card Required
 -------------------
 Symbolic Z-matrix:
 Charge =  0 Multiplicity = 1
 N                     0.55901  -0.27408  -0.12763 
 C                     1.71762   0.35542  -0.53325 
 N                     2.72624  -0.09707   0.3162 
 N                     4.22538  -0.04722   0.62093 
 C                     4.93112  -0.96587   1.54304 
 C                     6.28796  -1.03266   1.71539 
 C                     7.13751  -0.14498   0.95336 
 C                     6.55173   0.75076   0.13932 
 C                     5.07318   0.9046    0.03246 
 C                     4.63547   2.06502  -0.48071 
 S                     3.36392   2.92171   0.33867 
 C                     2.64449   3.64821  -1.02088 
 C                     1.30326   3.7955   -0.99786 
 N                     0.56259   3.88706  -2.12452 
 C                     0.047     2.51469  -2.3781 
 C                     1.35941   1.26896  -2.06825 
 O                     1.96983   0.92856  -3.07181 
 H                     0.43642  -0.24668   0.87813 
 H                    -0.25851  -0.18238  -0.70368 
 H                     4.32437  -1.63946   2.14468 
 H                     6.82197  -1.72249   2.38354 
 H                     8.22532  -0.18813   1.06987 
 H                     7.18686   1.46896  -0.3665 
 H                     5.2843    2.64138  -1.11449 
 H                     3.16126   3.76755  -1.96363 
 H                     0.70781   3.35415  -0.19739 
 H                     1.03873   4.33509  -2.91982 
 H                    -0.29902   2.55889  -3.4349 
 H                    -0.88415   2.4873   -1.79097 
 

 GradGradGradGradGradGradGradGradGradGradGradGradGradGradGradGradGradGrad
 Berny optimization.
 Initialization pass.
                           ----------------------------
                           !    Initial Parameters    !
                           ! (Angstroms and Degrees)  !
 --------------------------                            --------------------------
 ! Name  Definition              Value          Derivative Info.                !
 --------------------------------------------------------------------------------
 ! R1    R(1,2)                  1.3796         estimate D2E/DX2                !
 ! R2    R(1,18)                 1.0136         estimate D2E/DX2                !
 ! R3    R(1,19)                 1.0043         estimate D2E/DX2                !
 ! R4    R(2,3)                  1.3941         estimate D2E/DX2                !
 ! R5    R(2,16)                 1.8218         estimate D2E/DX2                !
 ! R6    R(3,4)                  1.5306         estimate D2E/DX2                !
 ! R7    R(4,5)                  1.4806         estimate D2E/DX2                !
 ! R8    R(4,9)                  1.4039         estimate D2E/DX2                !
 ! R9    R(5,6)                  1.3694         estimate D2E/DX2                !
 ! R10   R(5,20)                 1.088          estimate D2E/DX2                !
 ! R11   R(6,7)                  1.4458         estimate D2E/DX2                !
 ! R12   R(6,21)                 1.0988         estimate D2E/DX2                !
 ! R13   R(7,8)                  1.3447         estimate D2E/DX2                !
 ! R14   R(7,22)                 1.0949         estimate D2E/DX2                !
 ! R15   R(8,9)                  1.4904         estimate D2E/DX2                !
 ! R16   R(8,23)                 1.084          estimate D2E/DX2                !
 ! R17   R(9,10)                 1.3422         estimate D2E/DX2                !
 ! R18   R(10,11)                1.7384         estimate D2E/DX2                !
 ! R19   R(10,24)                1.0746         estimate D2E/DX2                !
 ! R20   R(11,12)                1.7011         estimate D2E/DX2                !
 ! R21   R(12,13)                1.3495         estimate D2E/DX2                !
 ! R22   R(12,25)                1.0817         estimate D2E/DX2                !
 ! R23   R(13,14)                1.3514         estimate D2E/DX2                !
 ! R24   R(13,26)                1.0909         estimate D2E/DX2                !
 ! R25   R(14,15)                1.4878         estimate D2E/DX2                !
 ! R26   R(14,27)                1.0295         estimate D2E/DX2                !
 ! R27   R(15,28)                1.1129         estimate D2E/DX2                !
 ! R28   R(15,29)                1.1011         estimate D2E/DX2                !
 ! R29   R(16,17)                1.223          estimate D2E/DX2                !
 ! A1    A(2,1,18)             112.3955         estimate D2E/DX2                !
 ! A2    A(2,1,19)             118.2518         estimate D2E/DX2                !
 ! A3    A(18,1,19)            117.9206         estimate D2E/DX2                !
 ! A4    A(1,2,3)              106.2813         estimate D2E/DX2                !
 ! A5    A(1,2,16)             108.1442         estimate D2E/DX2                !
 ! A6    A(3,2,16)             144.9218         estimate D2E/DX2                !
 ! A7    A(2,3,4)              145.0179         estimate D2E/DX2                !
 ! A8    A(3,4,5)              124.7942         estimate D2E/DX2                !
 ! A9    A(3,4,9)              122.0115         estimate D2E/DX2                !
 ! A10   A(5,4,9)              113.1942         estimate D2E/DX2                !
 ! A11   A(4,5,6)              125.516          estimate D2E/DX2                !
 ! A12   A(4,5,20)             117.5598         estimate D2E/DX2                !
 ! A13   A(6,5,20)             116.9208         estimate D2E/DX2                !
 ! A14   A(5,6,7)              119.0735         estimate D2E/DX2                !
 ! A15   A(5,6,21)             126.0631         estimate D2E/DX2                !
 ! A16   A(7,6,21)             114.857          estimate D2E/DX2                !
 ! A17   A(6,7,8)              118.1696         estimate D2E/DX2                !
 ! A18   A(6,7,22)             120.2326         estimate D2E/DX2                !
 ! A19   A(8,7,22)             121.5666         estimate D2E/DX2                !
 ! A20   A(7,8,9)              122.9797         estimate D2E/DX2                !
 ! A21   A(7,8,23)             117.9429         estimate D2E/DX2                !
 ! A22   A(9,8,23)             118.6476         estimate D2E/DX2                !
 ! A23   A(4,9,8)              119.9373         estimate D2E/DX2                !
 ! A24   A(4,9,10)             123.3309         estimate D2E/DX2                !
 ! A25   A(8,9,10)             116.1156         estimate D2E/DX2                !
 ! A26   A(9,10,11)            118.9717         estimate D2E/DX2                !
 ! A27   A(9,10,24)            119.4906         estimate D2E/DX2                !
 ! A28   A(11,10,24)           117.0836         estimate D2E/DX2                !
 ! A29   A(10,11,12)            98.2274         estimate D2E/DX2                !
 ! A30   A(11,12,13)           116.9563         estimate D2E/DX2                !
 ! A31   A(11,12,25)           122.7944         estimate D2E/DX2                !
 ! A32   A(13,12,25)           118.5314         estimate D2E/DX2                !
 ! A33   A(12,13,14)           122.5399         estimate D2E/DX2                !
 ! A34   A(12,13,26)           120.7201         estimate D2E/DX2                !
 ! A35   A(14,13,26)           109.8759         estimate D2E/DX2                !
 ! A36   A(13,14,15)           105.6363         estimate D2E/DX2                !
 ! A37   A(13,14,27)           114.836          estimate D2E/DX2                !
 ! A38   A(15,14,27)           115.4691         estimate D2E/DX2                !
 ! A39   A(14,15,28)           103.4717         estimate D2E/DX2                !
 ! A40   A(14,15,29)           103.0095         estimate D2E/DX2                !
 ! A41   A(28,15,29)           104.1461         estimate D2E/DX2                !
 ! A42   A(2,16,17)            116.9808         estimate D2E/DX2                !
 ! D1    D(18,1,2,3)            46.1226         estimate D2E/DX2                !
 ! D2    D(18,1,2,16)         -140.7185         estimate D2E/DX2                !
 ! D3    D(19,1,2,3)          -171.0927         estimate D2E/DX2                !
 ! D4    D(19,1,2,16)            2.0662         estimate D2E/DX2                !
 ! D5    D(1,2,3,4)            176.3269         estimate D2E/DX2                !
 ! D6    D(16,2,3,4)             7.6863         estimate D2E/DX2                !
 ! D7    D(1,2,16,17)         -117.5875         estimate D2E/DX2                !
 ! D8    D(3,2,16,17)           50.9365         estimate D2E/DX2                !
 ! D9    D(2,3,4,5)           -166.6757         estimate D2E/DX2                !
 ! D10   D(2,3,4,9)             13.4182         estimate D2E/DX2                !
 ! D11   D(3,4,5,6)            172.3331         estimate D2E/DX2                !
 ! D12   D(3,4,5,20)            -8.3661         estimate D2E/DX2                !
 ! D13   D(9,4,5,6)             -7.7535         estimate D2E/DX2                !
 ! D14   D(9,4,5,20)           171.5473         estimate D2E/DX2                !
 ! D15   D(3,4,9,8)           -167.7398         estimate D2E/DX2                !
 ! D16   D(3,4,9,10)            21.6163         estimate D2E/DX2                !
 ! D17   D(5,4,9,8)             12.3441         estimate D2E/DX2                !
 ! D18   D(5,4,9,10)          -158.2998         estimate D2E/DX2                !
 ! D19   D(4,5,6,7)              0.1798         estimate D2E/DX2                !
 ! D20   D(4,5,6,21)          -178.8465         estimate D2E/DX2                !
 ! D21   D(20,5,6,7)          -179.125          estimate D2E/DX2                !
 ! D22   D(20,5,6,21)            1.8487         estimate D2E/DX2                !
 ! D23   D(5,6,7,8)              2.5276         estimate D2E/DX2                !
 ! D24   D(5,6,7,22)          -179.4731         estimate D2E/DX2                !
 ! D25   D(21,6,7,8)          -178.3398         estimate D2E/DX2                !
 ! D26   D(21,6,7,22)           -0.3405         estimate D2E/DX2                !
 ! D27   D(6,7,8,9)              2.6043         estimate D2E/DX2                !
 ! D28   D(6,7,8,23)           174.9694         estimate D2E/DX2                !
 ! D29   D(22,7,8,9)          -175.367          estimate D2E/DX2                !
 ! D30   D(22,7,8,23)           -3.0018         estimate D2E/DX2                !
 ! D31   D(7,8,9,4)            -10.8418         estimate D2E/DX2                !
 ! D32   D(7,8,9,10)           160.4575         estimate D2E/DX2                !
 ! D33   D(23,8,9,4)           176.8441         estimate D2E/DX2                !
 ! D34   D(23,8,9,10)          -11.8566         estimate D2E/DX2                !
 ! D35   D(4,9,10,11)           38.5929         estimate D2E/DX2                !
 ! D36   D(4,9,10,24)         -165.7625         estimate D2E/DX2                !
 ! D37   D(8,9,10,11)         -132.3803         estimate D2E/DX2                !
 ! D38   D(8,9,10,24)           23.2642         estimate D2E/DX2                !
 ! D39   D(9,10,11,12)        -149.1575         estimate D2E/DX2                !
 ! D40   D(24,10,11,12)         54.6194         estimate D2E/DX2                !
 ! D41   D(10,11,12,13)        145.1449         estimate D2E/DX2                !
 ! D42   D(10,11,12,25)        -19.6815         estimate D2E/DX2                !
 ! D43   D(11,12,13,14)       -155.3936         estimate D2E/DX2                !
 ! D44   D(11,12,13,26)         -7.3691         estimate D2E/DX2                !
 ! D45   D(25,12,13,14)         10.1027         estimate D2E/DX2                !
 ! D46   D(25,12,13,26)        158.1271         estimate D2E/DX2                !
 ! D47   D(12,13,14,15)         96.7816         estimate D2E/DX2                !
 ! D48   D(12,13,14,27)        -31.6513         estimate D2E/DX2                !
 ! D49   D(26,13,14,15)        -54.266          estimate D2E/DX2                !
 ! D50   D(26,13,14,27)        177.3011         estimate D2E/DX2                !
 ! D51   D(13,14,15,28)       -164.3957         estimate D2E/DX2                !
 ! D52   D(13,14,15,29)         87.3474         estimate D2E/DX2                !
 ! D53   D(27,14,15,28)        -36.3399         estimate D2E/DX2                !
 ! D54   D(27,14,15,29)       -144.5968         estimate D2E/DX2                !
 --------------------------------------------------------------------------------
 Trust Radius=3.00D-01 FncErr=1.00D-07 GrdErr=1.00D-06 EigMax=2.50D+02 EigMin=1.00D-04
 Number of steps in this run=    135 maximum allowed number of steps=    174.
 GradGradGradGradGradGradGradGradGradGradGradGradGradGradGradGradGradGrad

                          Input orientation:                          
 ---------------------------------------------------------------------
 Center     Atomic      Atomic             Coordinates (Angstroms)
 Number     Number       Type             X           Y           Z
 ---------------------------------------------------------------------
      1          7           0        0.559010   -0.274080   -0.127630
      2          6           0        1.717620    0.355420   -0.533250
      3          7           0        2.726240   -0.097070    0.316200
      4          7           0        4.225380   -0.047220    0.620930
      5          6           0        4.931120   -0.965870    1.543040
      6          6           0        6.287960   -1.032660    1.715390
      7          6           0        7.137510   -0.144980    0.953360
      8          6           0        6.551730    0.750760    0.139320
      9          6           0        5.073180    0.904600    0.032460
     10          6           0        4.635470    2.065020   -0.480710
     11         16           0        3.363920    2.921710    0.338670
     12          6           0        2.644490    3.648210   -1.020880
     13          6           0        1.303260    3.795500   -0.997860
     14          7           0        0.562590    3.887060   -2.124520
     15          6           0        0.047000    2.514690   -2.378100
     16          6           0        1.359410    1.268960   -2.068250
     17          8           0        1.969830    0.928560   -3.071810
     18          1           0        0.436420   -0.246680    0.878130
     19          1           0       -0.258510   -0.182380   -0.703680
     20          1           0        4.324370   -1.639460    2.144680
     21          1           0        6.821970   -1.722490    2.383540
     22          1           0        8.225320   -0.188130    1.069870
     23          1           0        7.186860    1.468960   -0.366500
     24          1           0        5.284300    2.641380   -1.114490
     25          1           0        3.161260    3.767550   -1.963630
     26          1           0        0.707810    3.354150   -0.197390
     27          1           0        1.038730    4.335090   -2.919820
     28          1           0       -0.299020    2.558890   -3.434900
     29          1           0       -0.884150    2.487300   -1.790970
 ---------------------------------------------------------------------
                    Distance matrix (angstroms):
                    1          2          3          4          5
     1  N    0.000000
     2  C    1.379556   0.000000
     3  N    2.219280   1.394140   0.000000
     4  N    3.748877   2.789823   1.530610   0.000000
     5  C    4.731285   4.047638   2.668604   1.480633   0.000000
     6  C    6.065726   5.279314   3.939405   2.534398   1.369372
     7  C    6.667973   5.642306   4.457305   2.932672   2.426879
     8  C    6.085577   4.896658   3.922305   2.506117   2.746566
     9  C    4.668259   3.446942   2.567485   1.403931   2.408462
    10  C    4.713129   3.382210   2.992467   2.417301   3.656401
    11  S    4.277620   3.171182   3.085478   3.104244   4.361181
    12  C    4.531168   3.455335   3.977636   4.341769   5.752573
    13  C    4.227610   3.495956   4.347842   5.091735   6.502937
    14  N    4.615481   4.042118   5.148960   6.035900   7.489057
    15  C    3.619946   3.294979   4.610734   5.745992   7.165491
    16  C    2.605306   1.821838   3.069180   4.144611   5.549143
    17  O    3.479217   2.614648   3.619763   4.435762   5.801288
    18  H    1.013574   1.998998   2.362504   3.802914   4.600181
    19  H    1.004282   2.055083   3.155339   4.677406   5.709104
    20  H    4.604953   4.236272   2.876860   2.206092   1.088044
    21  H    6.901343   6.235364   4.867329   3.557471   2.203231
    22  H    7.759749   6.724255   5.551233   4.027521   3.417678
    23  H    6.857379   5.583938   4.776574   3.470473   3.829243
    24  H    5.639341   4.276057   4.011191   3.370692   4.494380
    25  H    5.145617   3.971488   4.508010   4.729141   6.150968
    26  H    3.631950   3.181965   4.030974   4.961075   6.287131
    27  H    5.410259   4.689817   5.741390   6.472734   7.947830
    28  H    4.438465   4.164335   5.502461   6.611487   8.034811
    29  H    3.531944   3.591097   4.914677   6.192604   7.540383
                    6          7          8          9         10
     6  C    0.000000
     7  C    1.445822   0.000000
     8  C    2.394610   1.344674   0.000000
     9  C    2.839176   2.492215   1.490368   0.000000
    10  C    4.141159   3.633299   2.404947   1.342203   0.000000
    11  S    5.107094   4.901266   3.861981   2.661591   1.738431
    12  C    6.532426   6.202672   5.000780   3.812539   2.600438
    13  C    7.451180   7.305691   6.173334   4.861189   3.790202
    14  N    8.469263   8.304232   7.129597   5.821774   4.755028
    15  C    8.263772   8.273319   7.194468   5.802213   4.985614
    16  C    6.626009   6.672016   5.665870   4.282269   3.726468
    17  O    6.738688   6.637725   5.597926   4.389516   3.887284
    18  H    5.963161   6.702284   6.240011   4.851819   4.982211
    19  H    7.030729   7.579465   6.925371   5.490933   5.389950
    20  H    2.099567   3.400951   3.833504   3.390344   4.551113
    21  H    1.098843   2.152561   3.350600   3.935409   5.227805
    22  H    2.209817   1.094882   2.132684   3.493747   4.513093
    23  H    3.376446   2.085490   1.084000   2.223806   2.622579
    24  H    4.744905   3.933725   2.598627   2.092002   1.074639
    25  H    6.808337   6.295021   5.001870   3.979484   2.696471
    26  H    7.351252   7.410073   6.406435   5.010946   4.143506
    27  H    8.823397   8.501039   7.252512   6.063085   4.902960
    28  H    9.100166   9.048189   7.935815   6.604528   5.772377
    29  H    8.724898   8.877346   7.876160   6.428034   5.688700
                   11         12         13         14         15
    11  S    0.000000
    12  C    1.701105   0.000000
    13  C    2.606941   1.349490   0.000000
    14  N    3.853136   2.368413   1.351421   0.000000
    15  C    4.306793   3.142271   2.263565   1.487795   0.000000
    16  C    3.541597   2.899870   2.744502   2.737250   1.835830
    17  O    4.188975   3.472460   3.600685   3.410338   2.587338
    18  H    4.347409   4.863330   4.539820   5.110737   4.287172
    19  H    4.883018   4.816788   4.283596   4.387862   3.189233
    20  H    4.998841   6.387662   6.967170   7.932180   7.483876
    21  H    6.140700   7.608274   8.505189   9.537793   9.301996
    22  H    5.817127   7.087623   8.249832   9.248175   9.277858
    23  H    4.150014   5.080400   6.358314   7.267654   7.491174
    24  H    2.424483   2.826847   4.146598   4.986625   5.389070
    25  H    2.461118   1.081698   2.094196   2.606387   3.382316
    26  H    2.743954   2.124932   1.090918   2.004722   2.428345
    27  H    4.245222   2.579969   2.013719   1.029535   2.142626
    28  H    5.271489   3.959591   3.167912   2.055116   1.112884
    29  H    4.771811   3.793686   2.669302   2.040500   1.101141
                   16         17         18         19         20
    16  C    0.000000
    17  O    1.222954   0.000000
    18  H    3.439510   4.397108   0.000000
    19  H    2.566341   3.436237   1.728926   0.000000
    20  H    5.915968   6.272986   4.319738   5.589188   0.000000
    21  H    7.655506   7.767379   6.724546   7.876298   2.510369
    22  H    7.688409   7.584963   7.791480   8.667230   4.298719
    23  H    6.074136   5.901537   7.075377   7.633751   4.915501
    24  H    4.265906   4.213142   5.984427   6.234190   5.465276
    25  H    3.082298   3.272221   5.622668   5.374407   6.889615
    26  H    2.876233   3.967174   3.767807   3.700966   6.595524
    27  H    3.198306   3.534755   5.981623   5.196311   8.493517
    28  H    2.506400   2.817355   5.197530   3.869853   8.374580
    29  H    2.568034   3.495057   4.042604   2.949715   7.723223
                   21         22         23         24         25
    21  H    0.000000
    22  H    2.459549   0.000000
    23  H    4.228619   2.426418   0.000000
    24  H    5.800345   4.628947   2.356649   0.000000
    25  H    7.901849   7.105929   4.903039   2.548842   0.000000
    26  H    8.355622   8.406346   6.749861   4.721586   3.051216
    27  H    9.912909   9.382122   7.248010   4.914543   2.396150
    28  H   10.143617  10.025141   8.163420   6.046864   3.949561
    29  H    9.722816   9.915885   8.258773   6.207346   4.246669
                   26         27         28         29
    26  H    0.000000
    27  H    2.912624   0.000000
    28  H    3.482473   2.282492   0.000000
    29  H    2.413558   2.895876   1.746427   0.000000
 Stoichiometry    C11H12N4OS
 Framework group  C1[X(C11H12N4OS)]
 Deg. of freedom    81
 Full point group                 C1      NOp   1
 Largest Abelian subgroup         C1      NOp   1
 Largest concise Abelian subgroup C1      NOp   1
                         Standard orientation:                         
 ---------------------------------------------------------------------
 Center     Atomic      Atomic             Coordinates (Angstroms)
 Number     Number       Type             X           Y           Z
 ---------------------------------------------------------------------
      1          7           0       -1.231035    2.744270   -0.667360
      2          6           0       -0.770882    1.576827   -0.094202
      3          7           0        0.592208    1.512136   -0.379556
      4          7           0        1.883859    0.721561   -0.157304
      5          6           0        3.242681    1.216571   -0.474859
      6          6           0        4.414722    0.588033   -0.148606
      7          6           0        4.363121   -0.669391    0.563168
      8          6           0        3.156121   -1.197881    0.831492
      9          6           0        1.879423   -0.575485    0.379983
     10          6           0        0.806522   -1.381485    0.352488
     11         16           0       -0.204554   -1.389603   -1.061654
     12          6           0       -1.683272   -1.749413   -0.301597
     13          6           0       -2.791991   -1.181618   -0.820707
     14          7           0       -3.909821   -0.969891   -0.091347
     15          6           0       -3.832174    0.445751    0.359722
     16          6           0       -2.123690    0.856903    0.891047
     17          8           0       -1.937411    0.750494    2.095038
     18          1           0       -0.896975    2.866297   -1.616489
     19          1           0       -2.167201    3.040497   -0.456591
     20          1           0        3.321944    2.153098   -1.023014
     21          1           0        5.427598    0.955669   -0.363972
     22          1           0        5.288738   -1.183943    0.841084
     23          1           0        3.121994   -2.179260    1.290608
     24          1           0        0.788360   -2.259405    0.971984
     25          1           0       -1.743149   -2.194689    0.682382
     26          1           0       -2.717034   -0.432752   -1.610443
     27          1           0       -4.079248   -1.662515    0.651288
     28          1           0       -4.588322    0.500100    1.174460
     29          1           0       -4.294510    0.997195   -0.473745
 ---------------------------------------------------------------------
 Rotational constants (GHZ):           0.8363437           0.2820587           0.2446504
 Standard basis: 6-31G(2df,p) (6D, 7F)
 There are   591 symmetry adapted cartesian basis functions of A   symmetry.
 There are   540 symmetry adapted basis functions of A   symmetry.
   540 basis functions,   856 primitive gaussians,   591 cartesian basis functions
    65 alpha electrons       65 beta electrons
       nuclear repulsion energy      1290.4791268359 Hartrees.
 NAtoms=   29 NActive=   29 NUniq=   29 SFac= 1.00D+00 NAtFMM=   60 NAOKFM=F Big=F
 Integral buffers will be    131072 words long.
 Raffenetti 2 integral format.
 Two-electron integral symmetry is turned on.
 One-electron integrals computed using PRISM.
 PrsmSu:  requested number of processors reduced to:  12 ShMem   1 Linda.
 NBasis=   540 RedAO= T EigKep=  1.68D-04  NBF=   540
 NBsUse=   540 1.00D-06 EigRej= -1.00D+00 NBFU=   540
 ExpMin= 1.17D-01 ExpMax= 2.19D+04 ExpMxC= 3.30D+03 IAcc=3 IRadAn=         5 AccDes= 0.00D+00
 Harris functional with IExCor=  402 and IRadAn=       5 diagonalized for initial guess.
 HarFok:  IExCor=  402 AccDes= 0.00D+00 IRadAn=         5 IDoV= 1 UseB2=F ITyADJ=14
 ICtDFT=  3500011 ScaDFX=  1.000000  1.000000  1.000000  1.000000
 FoFCou: FMM=F IPFlag=           0 FMFlag=      100000 FMFlg1=           0
         NFxFlg=           0 DoJE=T BraDBF=F KetDBF=T FulRan=T
         wScrn=  0.000000 ICntrl=       500 IOpCl=  0 I1Cent=   200000004 NGrid=           0
         NMat0=    1 NMatS0=      1 NMatT0=    0 NMatD0=    1 NMtDS0=    0 NMtDT0=    0
 Petite list used in FoFCou.
 Requested convergence on RMS density matrix=1.00D-08 within 128 cycles.
 Requested convergence on MAX density matrix=1.00D-06.
 Requested convergence on             energy=1.00D-06.
 No special actions if energy rises.
 Integral accuracy reduced to 1.0D-05 until final iterations.
 Initial convergence to 1.0D-05 achieved.  Increase integral accuracy.
 SCF Done:  E(RB3LYP) =  -1118.53189984     A.U. after   17 cycles
            NFock= 17  Conv=0.71D-08     -V/T= 2.0068

 **********************************************************************

            Population analysis using the SCF density.

 **********************************************************************

 Orbital symmetries:
       Occupied  (A) (A) (A) (A) (A) (A) (A) (A) (A) (A) (A) (A)
                 (A) (A) (A) (A) (A) (A) (A) (A) (A) (A) (A) (A)
                 (A) (A) (A) (A) (A) (A) (A) (A) (A) (A) (A) (A)
                 (A) (A) (A) (A) (A) (A) (A) (A) (A) (A) (A) (A)
                 (A) (A) (A) (A) (A) (A) (A) (A) (A) (A) (A) (A)
                 (A) (A) (A) (A) (A)
       Virtual   (A) (A) (A) (A) (A) (A) (A) (A) (A) (A) (A) (A)
                 (A) (A) (A) (A) (A) (A) (A) (A) (A) (A) (A) (A)
                 (A) (A) (A) (A) (A) (A) (A) (A) (A) (A) (A) (A)
                 (A) (A) (A) (A) (A) (A) (A) (A) (A) (A) (A) (A)
                 (A) (A) (A) (A) (A) (A) (A) (A) (A) (A) (A) (A)
                 (A) (A) (A) (A) (A) (A) (A) (A) (A) (A) (A) (A)
                 (A) (A) (A) (A) (A) (A) (A) (A) (A) (A) (A) (A)
                 (A) (A) (A) (A) (A) (A) (A) (A) (A) (A) (A) (A)
                 (A) (A) (A) (A) (A) (A) (A) (A) (A) (A) (A) (A)
                 (A) (A) (A) (A) (A) (A) (A) (A) (A) (A) (A) (A)
                 (A) (A) (A) (A) (A) (A) (A) (A) (A) (A) (A) (A)
                 (A) (A) (A) (A) (A) (A) (A) (A) (A) (A) (A) (A)
                 (A) (A) (A) (A) (A) (A) (A) (A) (A) (A) (A) (A)
                 (A) (A) (A) (A) (A) (A) (A) (A) (A) (A) (A) (A)
                 (A) (A) (A) (A) (A) (A) (A) (A) (A) (A) (A) (A)
                 (A) (A) (A) (A) (A) (A) (A) (A) (A) (A) (A) (A)
                 (A) (A) (A) (A) (A) (A) (A) (A) (A) (A) (A) (A)
                 (A) (A) (A) (A) (A) (A) (A) (A) (A) (A) (A) (A)
                 (A) (A) (A) (A) (A) (A) (A) (A) (A) (A) (A) (A)
                 (A) (A) (A) (A) (A) (A) (A) (A) (A) (A) (A) (A)
                 (A) (A) (A) (A) (A) (A) (A) (A) (A) (A) (A) (A)
                 (A) (A) (A) (A) (A) (A) (A) (A) (A) (A) (A) (A)
                 (A) (A) (A) (A) (A) (A) (A) (A) (A) (A) (A) (A)
                 (A) (A) (A) (A) (A) (A) (A) (A) (A) (A) (A) (A)
                 (A) (A) (A) (A) (A) (A) (A) (A) (A) (A) (A) (A)
                 (A) (A) (A) (A) (A) (A) (A) (A) (A) (A) (A) (A)
                 (A) (A) (A) (A) (A) (A) (A) (A) (A) (A) (A) (A)
                 (A) (A) (A) (A) (A) (A) (A) (A) (A) (A) (A) (A)
                 (A) (A) (A) (A) (A) (A) (A) (A) (A) (A) (A) (A)
                 (A) (A) (A) (A) (A) (A) (A) (A) (A) (A) (A) (A)
                 (A) (A) (A) (A) (A) (A) (A) (A) (A) (A) (A) (A)
                 (A) (A) (A) (A) (A) (A) (A) (A) (A) (A) (A) (A)
                 (A) (A) (A) (A) (A) (A) (A) (A) (A) (A) (A) (A)
                 (A) (A) (A) (A) (A) (A) (A) (A) (A) (A) (A) (A)
                 (A) (A) (A) (A) (A) (A) (A) (A) (A) (A) (A) (A)
                 (A) (A) (A) (A) (A) (A) (A) (A) (A) (A) (A) (A)
                 (A) (A) (A) (A) (A) (A) (A) (A) (A) (A) (A) (A)
                 (A) (A) (A) (A) (A) (A) (A) (A) (A) (A) (A) (A)
                 (A) (A) (A) (A) (A) (A) (A) (A) (A) (A) (A) (A)
                 (A) (A) (A) (A) (A) (A) (A)
 The electronic state is 1-A.
 Alpha  occ. eigenvalues --  -88.87032 -19.16303 -14.41380 -14.36326 -14.35212
 Alpha  occ. eigenvalues --  -14.34567 -10.31472 -10.29942 -10.25476 -10.23777
 Alpha  occ. eigenvalues --  -10.22264 -10.21021 -10.19725 -10.19034 -10.18911
 Alpha  occ. eigenvalues --  -10.18517 -10.17055  -7.93276  -5.89751  -5.89379
 Alpha  occ. eigenvalues --   -5.88881  -1.05189  -0.96387  -0.94592  -0.93296
 Alpha  occ. eigenvalues --   -0.82807  -0.81907  -0.77917  -0.76944  -0.72042
 Alpha  occ. eigenvalues --   -0.68546  -0.65537  -0.62449  -0.61206  -0.59632
 Alpha  occ. eigenvalues --   -0.58043  -0.54602  -0.52294  -0.50613  -0.49428
 Alpha  occ. eigenvalues --   -0.49315  -0.47172  -0.46146  -0.45730  -0.45055
 Alpha  occ. eigenvalues --   -0.44090  -0.42790  -0.41331  -0.40671  -0.39869
 Alpha  occ. eigenvalues --   -0.39076  -0.38490  -0.37054  -0.35681  -0.35177
 Alpha  occ. eigenvalues --   -0.33944  -0.31947  -0.30616  -0.29461  -0.27487
 Alpha  occ. eigenvalues --   -0.26073  -0.23774  -0.22003  -0.19493  -0.15065
 Alpha virt. eigenvalues --   -0.05629  -0.02911  -0.00684   0.00206   0.00631
 Alpha virt. eigenvalues --    0.01388   0.03378   0.06418   0.07812   0.08351
 Alpha virt. eigenvalues --    0.10041   0.11098   0.12221   0.12397   0.13094
 Alpha virt. eigenvalues --    0.14057   0.14709   0.15561   0.16093   0.17215
 Alpha virt. eigenvalues --    0.18327   0.18868   0.19978   0.20742   0.22035
 Alpha virt. eigenvalues --    0.24589   0.24642   0.27187   0.28514   0.29116
 Alpha virt. eigenvalues --    0.30143   0.31869   0.32512   0.35176   0.36098
 Alpha virt. eigenvalues --    0.37544   0.38378   0.39694   0.41362   0.42177
 Alpha virt. eigenvalues --    0.42734   0.43942   0.44678   0.45822   0.46272
 Alpha virt. eigenvalues --    0.47494   0.47574   0.48203   0.49418   0.50328
 Alpha virt. eigenvalues --    0.51008   0.51675   0.51911   0.53909   0.54021
 Alpha virt. eigenvalues --    0.54174   0.54601   0.55083   0.56111   0.57477
 Alpha virt. eigenvalues --    0.57692   0.58549   0.59260   0.60023   0.60932
 Alpha virt. eigenvalues --    0.62029   0.64092   0.64887   0.65342   0.65866
 Alpha virt. eigenvalues --    0.67078   0.68646   0.69715   0.70461   0.70742
 Alpha virt. eigenvalues --    0.71883   0.72727   0.73176   0.73308   0.73462
 Alpha virt. eigenvalues --    0.74684   0.75652   0.75802   0.77109   0.77462
 Alpha virt. eigenvalues --    0.77652   0.78239   0.79423   0.79832   0.80254
 Alpha virt. eigenvalues --    0.80777   0.81172   0.82274   0.82835   0.83795
 Alpha virt. eigenvalues --    0.83927   0.84459   0.85261   0.85537   0.86952
 Alpha virt. eigenvalues --    0.87260   0.88618   0.89617   0.90908   0.91144
 Alpha virt. eigenvalues --    0.91826   0.93258   0.93625   0.94455   0.95349
 Alpha virt. eigenvalues --    0.96109   0.96793   0.96970   0.99541   1.00266
 Alpha virt. eigenvalues --    1.00830   1.02553   1.03323   1.04385   1.06456
 Alpha virt. eigenvalues --    1.07997   1.08798   1.10943   1.12206   1.13634
 Alpha virt. eigenvalues --    1.14629   1.18131   1.18843   1.19801   1.21975
 Alpha virt. eigenvalues --    1.22227   1.22608   1.24171   1.24588   1.27050
 Alpha virt. eigenvalues --    1.27389   1.28526   1.29811   1.30789   1.31520
 Alpha virt. eigenvalues --    1.34285   1.34765   1.35602   1.36592   1.37631
 Alpha virt. eigenvalues --    1.38396   1.39664   1.40846   1.41978   1.42605
 Alpha virt. eigenvalues --    1.43153   1.44489   1.44979   1.47394   1.47739
 Alpha virt. eigenvalues --    1.49115   1.50804   1.51599   1.52716   1.53634
 Alpha virt. eigenvalues --    1.54838   1.55698   1.57441   1.59627   1.60052
 Alpha virt. eigenvalues --    1.61406   1.62668   1.63576   1.63681   1.64943
 Alpha virt. eigenvalues --    1.66524   1.67997   1.70025   1.71568   1.72856
 Alpha virt. eigenvalues --    1.73211   1.74179   1.75357   1.75910   1.76751
 Alpha virt. eigenvalues --    1.80258   1.80835   1.81417   1.83388   1.83981
 Alpha virt. eigenvalues --    1.85771   1.87318   1.88279   1.88647   1.89842
 Alpha virt. eigenvalues --    1.91820   1.93878   1.94373   1.95462   1.96648
 Alpha virt. eigenvalues --    1.98063   2.00872   2.01454   2.03918   2.04634
 Alpha virt. eigenvalues --    2.06027   2.08570   2.09333   2.11588   2.12975
 Alpha virt. eigenvalues --    2.17018   2.17395   2.20521   2.22545   2.23741
 Alpha virt. eigenvalues --    2.26117   2.26614   2.28152   2.29767   2.33405
 Alpha virt. eigenvalues --    2.34172   2.36318   2.36850   2.39065   2.39924
 Alpha virt. eigenvalues --    2.40448   2.42664   2.45240   2.46739   2.48132
 Alpha virt. eigenvalues --    2.52007   2.53060   2.55319   2.56023   2.58165
 Alpha virt. eigenvalues --    2.60353   2.61244   2.63583   2.66131   2.68646
 Alpha virt. eigenvalues --    2.69457   2.71305   2.74637   2.76361   2.78208
 Alpha virt. eigenvalues --    2.79696   2.81307   2.82925   2.84583   2.85662
 Alpha virt. eigenvalues --    2.86266   2.87545   2.88813   2.90013   2.91070
 Alpha virt. eigenvalues --    2.92957   2.93780   2.95106   2.95866   2.97031
 Alpha virt. eigenvalues --    2.98355   2.98546   2.99906   3.01256   3.02740
 Alpha virt. eigenvalues --    3.04509   3.06113   3.06719   3.07587   3.08958
 Alpha virt. eigenvalues --    3.09823   3.10233   3.11057   3.13629   3.14001
 Alpha virt. eigenvalues --    3.14814   3.16486   3.17511   3.17839   3.19663
 Alpha virt. eigenvalues --    3.19991   3.21489   3.22541   3.23491   3.24343
 Alpha virt. eigenvalues --    3.25589   3.26815   3.27120   3.28260   3.29429
 Alpha virt. eigenvalues --    3.30870   3.31587   3.32183   3.34372   3.36268
 Alpha virt. eigenvalues --    3.38339   3.38870   3.39577   3.41418   3.42248
 Alpha virt. eigenvalues --    3.42537   3.45404   3.46243   3.48473   3.49050
 Alpha virt. eigenvalues --    3.51041   3.51938   3.53076   3.55304   3.56964
 Alpha virt. eigenvalues --    3.58443   3.59320   3.59873   3.61091   3.64342
 Alpha virt. eigenvalues --    3.64624   3.66209   3.67009   3.68440   3.70270
 Alpha virt. eigenvalues --    3.72965   3.74497   3.74894   3.77141   3.78529
 Alpha virt. eigenvalues --    3.80434   3.81238   3.82969   3.85433   3.86859
 Alpha virt. eigenvalues --    3.88702   3.90128   3.94195   3.96516   3.99187
 Alpha virt. eigenvalues --    4.01072   4.02178   4.04025   4.05431   4.06185
 Alpha virt. eigenvalues --    4.08549   4.10980   4.12060   4.13296   4.14254
 Alpha virt. eigenvalues --    4.15419   4.17123   4.17671   4.17876   4.18562
 Alpha virt. eigenvalues --    4.20604   4.21345   4.23986   4.25246   4.25847
 Alpha virt. eigenvalues --    4.26603   4.27826   4.31324   4.31620   4.32570
 Alpha virt. eigenvalues --    4.34733   4.35942   4.37120   4.37721   4.39966
 Alpha virt. eigenvalues --    4.41475   4.42768   4.43285   4.43547   4.45009
 Alpha virt. eigenvalues --    4.45864   4.46623   4.47344   4.48160   4.49141
 Alpha virt. eigenvalues --    4.49869   4.50428   4.51090   4.51822   4.53710
 Alpha virt. eigenvalues --    4.54282   4.54712   4.55955   4.56716   4.57106
 Alpha virt. eigenvalues --    4.57579   4.59106   4.59621   4.61303   4.62182
 Alpha virt. eigenvalues --    4.63614   4.65237   4.66124   4.66575   4.68002
 Alpha virt. eigenvalues --    4.68814   4.69510   4.71587   4.72848   4.73933
 Alpha virt. eigenvalues --    4.74915   4.76222   4.77467   4.79618   4.80223
 Alpha virt. eigenvalues --    4.83117   4.83295   4.86332   4.87395   4.89800
 Alpha virt. eigenvalues --    4.90150   4.91614   4.93473   4.94908   4.96653
 Alpha virt. eigenvalues --    4.97594   4.98194   5.00063   5.01619   5.02864
 Alpha virt. eigenvalues --    5.05461   5.06193   5.06515   5.07457   5.08473
 Alpha virt. eigenvalues --    5.09399   5.13261   5.14028   5.15957   5.18541
 Alpha virt. eigenvalues --    5.21216   5.23422   5.27333   5.28971   5.33774
 Alpha virt. eigenvalues --    5.38105   5.39801   5.41018   5.42366   5.42869
 Alpha virt. eigenvalues --    5.44003   5.47645   5.47997   5.49663   5.52951
 Alpha virt. eigenvalues --    5.57091   5.61043   5.67286   5.69496   5.71525
 Alpha virt. eigenvalues --    5.78958   5.80529   5.87210   5.97299   6.02548
 Alpha virt. eigenvalues --    6.09465   6.18362   6.31043   6.79823   6.84210
 Alpha virt. eigenvalues --    8.89737   9.82833  10.33572  10.59247  10.75250
 Alpha virt. eigenvalues --   10.82419  11.19859  11.21185  11.26094  11.38718
 Alpha virt. eigenvalues --   11.42365  11.52506  11.70046  11.81758  11.86419
 Alpha virt. eigenvalues --   12.04784  12.47576  12.96586  15.12621  21.48653
          Condensed to atoms (all electrons):
               1          2          3          4          5          6
     1  N    6.499843   0.370729  -0.066358   0.001576  -0.000094  -0.000000
     2  C    0.370729   4.759131   0.550094  -0.031865   0.001204  -0.000035
     3  N   -0.066358   0.550094   6.644152   0.267756  -0.019125   0.001165
     4  N    0.001576  -0.031865   0.267756   6.302641   0.395118  -0.005818
     5  C   -0.000094   0.001204  -0.019125   0.395118   4.802620   0.600818
     6  C   -0.000000  -0.000035   0.001165  -0.005818   0.600818   4.822201
     7  C    0.000000  -0.000006   0.000381  -0.023034  -0.007492   0.454364
     8  C    0.000001   0.000042   0.001720  -0.003923  -0.033120   0.007934
     9  C    0.000083  -0.000183  -0.033937   0.364543  -0.067088  -0.022561
    10  C    0.000267   0.002227  -0.006054  -0.023230   0.000528   0.002611
    11  S   -0.002560   0.015711  -0.009556  -0.016426   0.000858  -0.000167
    12  C    0.000198  -0.004011  -0.000114   0.000275  -0.000005   0.000000
    13  C   -0.000450   0.002094   0.000462   0.000012  -0.000000   0.000000
    14  N   -0.000013   0.000965  -0.000020  -0.000000   0.000000   0.000000
    15  C    0.003326  -0.028791   0.000316  -0.000002  -0.000000  -0.000000
    16  C   -0.042587   0.226867  -0.027776  -0.000285   0.000019   0.000000
    17  O    0.000629  -0.044002  -0.000664  -0.000032  -0.000002  -0.000000
    18  H    0.329295  -0.021642   0.003142  -0.000600   0.000072   0.000001
    19  H    0.348821  -0.046601   0.005553  -0.000059   0.000003   0.000000
    20  H   -0.000046   0.000145   0.004721  -0.033627   0.354247  -0.036044
    21  H   -0.000000   0.000000  -0.000032   0.001901  -0.034085   0.367681
    22  H    0.000000  -0.000000   0.000003   0.000254   0.004145  -0.044618
    23  H   -0.000000   0.000000  -0.000048   0.002790   0.000993   0.004694
    24  H   -0.000003  -0.000065  -0.000052   0.002768  -0.000052  -0.000072
    25  H   -0.000001  -0.000100  -0.000066   0.000004   0.000000  -0.000000
    26  H    0.000844   0.001034  -0.000172  -0.000008   0.000000   0.000000
    27  H   -0.000002  -0.000001  -0.000000  -0.000000   0.000000   0.000000
    28  H   -0.000025   0.000788  -0.000001   0.000000   0.000000   0.000000
    29  H   -0.000033   0.001683  -0.000014   0.000000   0.000000   0.000000
               7          8          9         10         11         12
     1  N    0.000000   0.000001   0.000083   0.000267  -0.002560   0.000198
     2  C   -0.000006   0.000042  -0.000183   0.002227   0.015711  -0.004011
     3  N    0.000381   0.001720  -0.033937  -0.006054  -0.009556  -0.000114
     4  N   -0.023034  -0.003923   0.364543  -0.023230  -0.016426   0.000275
     5  C   -0.007492  -0.033120  -0.067088   0.000528   0.000858  -0.000005
     6  C    0.454364   0.007934  -0.022561   0.002611  -0.000167   0.000000
     7  C    4.764960   0.622304   0.000889  -0.000411  -0.000046  -0.000001
     8  C    0.622304   4.831776   0.440592  -0.062743   0.004082  -0.000024
     9  C    0.000889   0.440592   4.507198   0.540295  -0.023415   0.001429
    10  C   -0.000411  -0.062743   0.540295   5.175779   0.280877  -0.024857
    11  S   -0.000046   0.004082  -0.023415   0.280877  15.744817   0.295829
    12  C   -0.000001  -0.000024   0.001429  -0.024857   0.295829   4.878493
    13  C   -0.000000  -0.000001  -0.000060  -0.000078  -0.067238   0.682712
    14  N   -0.000000  -0.000000  -0.000001  -0.000065   0.009143  -0.057412
    15  C    0.000000   0.000000   0.000003   0.000154   0.002690  -0.014187
    16  C   -0.000000  -0.000003   0.000184   0.001089  -0.006084   0.022806
    17  O    0.000000   0.000002   0.000019   0.000160   0.000341  -0.001601
    18  H   -0.000000  -0.000000   0.000009   0.000018   0.000226  -0.000042
    19  H   -0.000000  -0.000000   0.000002   0.000003  -0.000091   0.000006
    20  H    0.002218   0.001766   0.001510  -0.000214   0.000075  -0.000000
    21  H   -0.036761   0.002435   0.001069   0.000002  -0.000001  -0.000000
    22  H    0.361775  -0.035538   0.003624  -0.000230   0.000009  -0.000000
    23  H   -0.045626   0.368296  -0.042773  -0.003965  -0.000122   0.000002
    24  H    0.000682  -0.009047  -0.029375   0.367453  -0.068299  -0.001531
    25  H    0.000000  -0.000005   0.000275  -0.000734  -0.047509   0.354553
    26  H   -0.000000  -0.000000   0.000019   0.000166  -0.001370  -0.049579
    27  H   -0.000000   0.000000   0.000000   0.000005   0.000164  -0.007132
    28  H   -0.000000  -0.000000   0.000000  -0.000002  -0.000115   0.000533
    29  H   -0.000000  -0.000000  -0.000000  -0.000000   0.000101  -0.000121
              13         14         15         16         17         18
     1  N   -0.000450  -0.000013   0.003326  -0.042587   0.000629   0.329295
     2  C    0.002094   0.000965  -0.028791   0.226867  -0.044002  -0.021642
     3  N    0.000462  -0.000020   0.000316  -0.027776  -0.000664   0.003142
     4  N    0.000012  -0.000000  -0.000002  -0.000285  -0.000032  -0.000600
     5  C   -0.000000   0.000000  -0.000000   0.000019  -0.000002   0.000072
     6  C    0.000000   0.000000  -0.000000   0.000000  -0.000000   0.000001
     7  C   -0.000000  -0.000000   0.000000  -0.000000   0.000000  -0.000000
     8  C   -0.000001  -0.000000   0.000000  -0.000003   0.000002  -0.000000
     9  C   -0.000060  -0.000001   0.000003   0.000184   0.000019   0.000009
    10  C   -0.000078  -0.000065   0.000154   0.001089   0.000160   0.000018
    11  S   -0.067238   0.009143   0.002690  -0.006084   0.000341   0.000226
    12  C    0.682712  -0.057412  -0.014187   0.022806  -0.001601  -0.000042
    13  C    4.871301   0.424272  -0.123002   0.013767  -0.003808  -0.000067
    14  N    0.424272   6.292542   0.390555  -0.046459   0.001898   0.000007
    15  C   -0.123002   0.390555   5.179180   0.228338  -0.032660  -0.000335
    16  C    0.013767  -0.046459   0.228338   4.810730   0.657684   0.004159
    17  O   -0.003808   0.001898  -0.032660   0.657684   7.650818  -0.000059
    18  H   -0.000067   0.000007  -0.000335   0.004159  -0.000059   0.439585
    19  H    0.000072  -0.000022   0.001768   0.002651   0.000271  -0.023826
    20  H   -0.000000   0.000000  -0.000000   0.000002  -0.000000   0.000041
    21  H   -0.000000   0.000000   0.000000  -0.000000   0.000000  -0.000000
    22  H   -0.000000  -0.000000   0.000000  -0.000000   0.000000   0.000000
    23  H   -0.000000   0.000000  -0.000000   0.000000  -0.000000   0.000000
    24  H    0.000109   0.000011   0.000005  -0.000019  -0.000018   0.000000
    25  H   -0.041019  -0.005960   0.001273  -0.000441   0.000594   0.000001
    26  H    0.354273  -0.042431   0.000913  -0.005699   0.000103   0.000132
    27  H   -0.050550   0.343933  -0.038895  -0.001844   0.000459   0.000000
    28  H    0.008537  -0.021189   0.340506  -0.005420   0.000420   0.000004
    29  H   -0.006747  -0.033375   0.348989  -0.023967   0.001922   0.000112
              19         20         21         22         23         24
     1  N    0.348821  -0.000046  -0.000000   0.000000  -0.000000  -0.000003
     2  C   -0.046601   0.000145   0.000000  -0.000000   0.000000  -0.000065
     3  N    0.005553   0.004721  -0.000032   0.000003  -0.000048  -0.000052
     4  N   -0.000059  -0.033627   0.001901   0.000254   0.002790   0.002768
     5  C    0.000003   0.354247  -0.034085   0.004145   0.000993  -0.000052
     6  C    0.000000  -0.036044   0.367681  -0.044618   0.004694  -0.000072
     7  C   -0.000000   0.002218  -0.036761   0.361775  -0.045626   0.000682
     8  C   -0.000000   0.001766   0.002435  -0.035538   0.368296  -0.009047
     9  C    0.000002   0.001510   0.001069   0.003624  -0.042773  -0.029375
    10  C    0.000003  -0.000214   0.000002  -0.000230  -0.003965   0.367453
    11  S   -0.000091   0.000075  -0.000001   0.000009  -0.000122  -0.068299
    12  C    0.000006  -0.000000  -0.000000  -0.000000   0.000002  -0.001531
    13  C    0.000072  -0.000000  -0.000000  -0.000000  -0.000000   0.000109
    14  N   -0.000022   0.000000   0.000000  -0.000000   0.000000   0.000011
    15  C    0.001768  -0.000000   0.000000   0.000000  -0.000000   0.000005
    16  C    0.002651   0.000002  -0.000000  -0.000000   0.000000  -0.000019
    17  O    0.000271  -0.000000   0.000000   0.000000  -0.000000  -0.000018
    18  H   -0.023826   0.000041  -0.000000   0.000000   0.000000   0.000000
    19  H    0.453233   0.000001   0.000000  -0.000000   0.000000  -0.000000
    20  H    0.000001   0.577723  -0.004897  -0.000212   0.000026   0.000004
    21  H    0.000000  -0.004897   0.594353  -0.003769  -0.000294  -0.000000
    22  H   -0.000000  -0.000212  -0.003769   0.622403  -0.007699  -0.000014
    23  H    0.000000   0.000026  -0.000294  -0.007699   0.617385   0.004275
    24  H   -0.000000   0.000004  -0.000000  -0.000014   0.004275   0.628396
    25  H   -0.000000   0.000000  -0.000000   0.000000   0.000000   0.006384
    26  H    0.000082   0.000000  -0.000000   0.000000   0.000000   0.000015
    27  H    0.000001  -0.000000   0.000000   0.000000   0.000000  -0.000001
    28  H   -0.000015   0.000000  -0.000000  -0.000000   0.000000  -0.000000
    29  H    0.000505   0.000000  -0.000000  -0.000000   0.000000  -0.000000
              25         26         27         28         29
     1  N   -0.000001   0.000844  -0.000002  -0.000025  -0.000033
     2  C   -0.000100   0.001034  -0.000001   0.000788   0.001683
     3  N   -0.000066  -0.000172  -0.000000  -0.000001  -0.000014
     4  N    0.000004  -0.000008  -0.000000   0.000000   0.000000
     5  C    0.000000   0.000000   0.000000   0.000000   0.000000
     6  C   -0.000000   0.000000   0.000000   0.000000   0.000000
     7  C    0.000000  -0.000000  -0.000000  -0.000000  -0.000000
     8  C   -0.000005  -0.000000   0.000000  -0.000000  -0.000000
     9  C    0.000275   0.000019   0.000000   0.000000  -0.000000
    10  C   -0.000734   0.000166   0.000005  -0.000002  -0.000000
    11  S   -0.047509  -0.001370   0.000164  -0.000115   0.000101
    12  C    0.354553  -0.049579  -0.007132   0.000533  -0.000121
    13  C   -0.041019   0.354273  -0.050550   0.008537  -0.006747
    14  N   -0.005960  -0.042431   0.343933  -0.021189  -0.033375
    15  C    0.001273   0.000913  -0.038895   0.340506   0.348989
    16  C   -0.000441  -0.005699  -0.001844  -0.005420  -0.023967
    17  O    0.000594   0.000103   0.000459   0.000420   0.001922
    18  H    0.000001   0.000132   0.000000   0.000004   0.000112
    19  H   -0.000000   0.000082   0.000001  -0.000015   0.000505
    20  H    0.000000   0.000000  -0.000000   0.000000   0.000000
    21  H   -0.000000  -0.000000   0.000000  -0.000000  -0.000000
    22  H    0.000000   0.000000   0.000000  -0.000000  -0.000000
    23  H    0.000000   0.000000   0.000000   0.000000   0.000000
    24  H    0.006384   0.000015  -0.000001  -0.000000  -0.000000
    25  H    0.608097   0.006738   0.006718  -0.000032   0.000032
    26  H    0.006738   0.620134   0.008006  -0.000076   0.006221
    27  H    0.006718   0.008006   0.500121  -0.005814   0.005714
    28  H   -0.000032  -0.000076  -0.005814   0.578064  -0.036473
    29  H    0.000032   0.006221   0.005714  -0.036473   0.601091
 Mulliken charges:
               1
     1  N   -0.443439
     2  C    0.244587
     3  N   -0.315475
     4  N   -0.200730
     5  C    0.000437
     6  C   -0.152155
     7  C   -0.094199
     8  C   -0.136548
     9  C    0.357646
    10  C   -0.249049
    11  S   -0.111929
    12  C   -0.076221
    13  C   -0.064592
    14  N   -0.256381
    15  C   -0.260143
    16  C    0.192285
    17  O   -0.232476
    18  H    0.269767
    19  H    0.257641
    20  H    0.132560
    21  H    0.112399
    22  H    0.099866
    23  H    0.102064
    24  H    0.098442
    25  H    0.111199
    26  H    0.100656
    27  H    0.239118
    28  H    0.140309
    29  H    0.134360
 Sum of Mulliken charges =  -0.00000
 Mulliken charges with hydrogens summed into heavy atoms:
               1
     1  N    0.083969
     2  C    0.244587
     3  N   -0.315475
     4  N   -0.200730
     5  C    0.132996
     6  C   -0.039755
     7  C    0.005667
     8  C   -0.034484
     9  C    0.357646
    10  C   -0.150607
    11  S   -0.111929
    12  C    0.034978
    13  C    0.036064
    14  N   -0.017263
    15  C    0.014526
    16  C    0.192285
    17  O   -0.232476
 Electronic spatial extent (au):  <R**2>=           4567.3831
 Charge=             -0.0000 electrons
 Dipole moment (field-independent basis, Debye):
    X=             -1.7378    Y=              0.9833    Z=             -0.7160  Tot=              2.1212
 Quadrupole moment (field-independent basis, Debye-Ang):
   XX=            -84.1353   YY=            -99.5679   ZZ=           -109.5525
   XY=             -4.8388   XZ=             -0.0197   YZ=            -11.6195
 Traceless Quadrupole moment (field-independent basis, Debye-Ang):
   XX=             13.6166   YY=             -1.8160   ZZ=            -11.8006
   XY=             -4.8388   XZ=             -0.0197   YZ=            -11.6195
 Octapole moment (field-independent basis, Debye-Ang**2):
  XXX=             10.3698  YYY=             17.4113  ZZZ=            -12.2953  XYY=            -22.1820
  XXY=             19.2138  XXZ=             14.4151  XZZ=             -6.9812  YZZ=              6.6547
  YYZ=              2.8728  XYZ=              5.4161
 Hexadecapole moment (field-independent basis, Debye-Ang**3):
 XXXX=          -3941.4935 YYYY=          -1210.6071 ZZZZ=           -529.9279 XXXY=            -46.2966
 XXXZ=           -101.6858 YYYX=            -43.8581 YYYZ=            -72.4414 ZZZX=              8.3519
 ZZZY=            -33.0457 XXYY=           -845.6733 XXZZ=           -833.8164 YYZZ=           -268.3730
 XXYZ=            -82.9558 YYXZ=             -6.2439 ZZXY=             -1.1643
 N-N= 1.290479126836D+03 E-N=-5.203829488075D+03  KE= 1.110958930521D+03
 PrsmSu:  requested number of processors reduced to:  13 ShMem   1 Linda.
 Calling FoFJK, ICntrl=      2127 FMM=F ISym2X=0 I1Cent= 0 IOpClX= 0 NMat=1 NMatS=1 NMatT=0.
 ***** Axes restored to original set *****
 -------------------------------------------------------------------
 Center     Atomic                   Forces (Hartrees/Bohr)
 Number     Number              X              Y              Z
 -------------------------------------------------------------------
      1        7          -0.003639335    0.011041671    0.002288601
      2        6           0.064118481   -0.010580542    0.025854174
      3        7           0.001358009   -0.010807050   -0.006815587
      4        7          -0.004625108    0.004437537   -0.009107400
      5        6          -0.030004249   -0.001594670   -0.003662589
      6        6          -0.003932956    0.012484524   -0.014175884
      7        6          -0.002273765   -0.004938587    0.000478221
      8        6          -0.012688068   -0.009358305   -0.004841863
      9        6           0.029486074   -0.004541579    0.000500017
     10        6          -0.006753307    0.012946937    0.000304353
     11       16           0.019541818    0.005054150    0.016389751
     12        6          -0.040177690    0.009396723   -0.005198745
     13        6           0.031756657   -0.017972681    0.019223083
     14        7          -0.026222043    0.000715345   -0.043643981
     15        6           0.004260035    0.023406652   -0.004871475
     16        6           0.017854834   -0.013794917   -0.038652477
     17        8          -0.026438024    0.017526332    0.050649641
     18        1          -0.004436436   -0.008307044   -0.005252988
     19        1          -0.003697285    0.005737020    0.001554421
     20        1          -0.008118400    0.005508981   -0.008207371
     21        1          -0.019471830    0.001687688   -0.001574535
     22        1          -0.007247106    0.000952314   -0.000515431
     23        1          -0.006882536    0.003150081   -0.004737541
     24        1           0.006178023    0.006409134    0.000574575
     25        1           0.008050215    0.003722181    0.001760669
     26        1           0.005581625    0.009033749    0.008919514
     27        1          -0.002762835   -0.013479130    0.008283937
     28        1           0.011827398   -0.018864682    0.006733271
     29        1           0.009357806   -0.018971832    0.007743638
 -------------------------------------------------------------------
 Cartesian Forces:  Max     0.064118481 RMS     0.016395235

 GradGradGradGradGradGradGradGradGradGradGradGradGradGradGradGradGradGrad
 Berny optimization.
 FormGI is forming the generalized inverse of G from B-inverse, IUseBI=4.
 Internal  Forces:  Max     0.168710412 RMS     0.036139883
 Search for a local minimum.
 Step number   1 out of a maximum of  135
 All quantities printed in internal units (Hartrees-Bohrs-Radians)
 Mixed Optimization -- RFO/linear search
 Second derivative matrix not updated -- first step.
 ITU=  0
     Eigenvalues ---    0.00230   0.00230   0.00530   0.00904   0.01177
     Eigenvalues ---    0.01185   0.01324   0.01456   0.01564   0.01678
     Eigenvalues ---    0.01769   0.01810   0.01946   0.01962   0.02047
     Eigenvalues ---    0.02150   0.02334   0.02375   0.02565   0.02757
     Eigenvalues ---    0.02791   0.02853   0.03096   0.03675   0.03847
     Eigenvalues ---    0.07049   0.12207   0.13229   0.15017   0.15476
     Eigenvalues ---    0.15771   0.15875   0.15990   0.15998   0.15999
     Eigenvalues ---    0.16000   0.16000   0.16000   0.16000   0.21998
     Eigenvalues ---    0.22075   0.22210   0.22267   0.22343   0.22942
     Eigenvalues ---    0.24168   0.24594   0.24691   0.24953   0.25000
     Eigenvalues ---    0.25000   0.25000   0.25000   0.29367   0.31636
     Eigenvalues ---    0.32297   0.32439   0.33556   0.33692   0.33810
     Eigenvalues ---    0.33820   0.34254   0.34707   0.35040   0.35515
     Eigenvalues ---    0.35758   0.35790   0.36650   0.37759   0.42851
     Eigenvalues ---    0.43827   0.45379   0.46606   0.46943   0.49184
     Eigenvalues ---    0.49376   0.54576   0.54720   0.55130   0.56714
     Eigenvalues ---    0.94086
 RFO step:  Lambda=-3.51894828D-01 EMin= 2.30000000D-03
 Linear search not attempted -- first point.
 Maximum step size (   0.300) exceeded in Quadratic search.
    -- Step size scaled by   0.638
 Iteration  1 RMS(Cart)=  0.40110222 RMS(Int)=  0.03071909
 Iteration  2 RMS(Cart)=  0.42463370 RMS(Int)=  0.01562259
 Iteration  3 RMS(Cart)=  0.03747855 RMS(Int)=  0.00091188
 Iteration  4 RMS(Cart)=  0.00053850 RMS(Int)=  0.00089340
 Iteration  5 RMS(Cart)=  0.00000062 RMS(Int)=  0.00089340
 Iteration  1 RMS(Cart)=  0.40150356 RMS(Int)=  0.02604269
 Iteration  2 RMS(Cart)=  0.35355638 RMS(Int)=  0.01063680
 Iteration  3 RMS(Cart)=  0.02379335 RMS(Int)=  0.00072677
 Iteration  4 RMS(Cart)=  0.00014997 RMS(Int)=  0.00072225
 Iteration  5 RMS(Cart)=  0.00000007 RMS(Int)=  0.00072225
 ITry= 2 IFail=0 DXMaxC= 2.85D+00 DCOld= 3.13D+00 DXMaxT= 3.00D-01 DXLimC= 3.00D+00 Rises=F
 Variable       Old X    -DE/DX   Delta X   Delta X   Delta X     New X
                                 (Linear)    (Quad)   (Total)
    R1        2.60698   0.00561   0.00000   0.00424   0.00381   2.61080
    R2        1.91538  -0.00490   0.00000  -0.00388  -0.00349   1.91189
    R3        1.89782   0.00264   0.00000   0.00205   0.00185   1.89966
    R4        2.63454  -0.05334   0.00000  -0.04157  -0.03741   2.59713
    R5        3.44278  -0.00655   0.00000  -0.00862  -0.00776   3.43501
    R6        2.89243  -0.04979   0.00000  -0.04917  -0.04425   2.84818
    R7        2.79799  -0.06528   0.00000  -0.06043  -0.05431   2.74368
    R8        2.65305  -0.01364   0.00000  -0.01125  -0.01004   2.64301
    R9        2.58774  -0.02075   0.00000  -0.01558  -0.01407   2.57367
   R10        2.05611  -0.00342   0.00000  -0.00311  -0.00280   2.05331
   R11        2.73221   0.01377   0.00000   0.01228   0.01091   2.74312
   R12        2.07651  -0.01148   0.00000  -0.01061  -0.00955   2.06697
   R13        2.54107   0.00681   0.00000   0.00532   0.00471   2.54578
   R14        2.06903  -0.00729   0.00000  -0.00669  -0.00603   2.06300
   R15        2.81639  -0.03310   0.00000  -0.03042  -0.02729   2.78909
   R16        2.04846   0.00027   0.00000   0.00024   0.00022   2.04868
   R17        2.53640  -0.01172   0.00000  -0.00813  -0.00732   2.52908
   R18        3.28516  -0.01713   0.00000  -0.01635  -0.01471   3.27045
   R19        2.03077   0.00683   0.00000   0.00606   0.00545   2.03623
   R20        3.21462  -0.00970   0.00000  -0.00871  -0.00784   3.20678
   R21        2.55017  -0.03749   0.00000  -0.02646  -0.02382   2.52635
   R22        2.04411   0.00272   0.00000   0.00244   0.00220   2.04631
   R23        2.55382   0.02157   0.00000   0.01529   0.01376   2.56758
   R24        2.06154  -0.00016   0.00000  -0.00014  -0.00013   2.06141
   R25        2.81153   0.00286   0.00000   0.00264   0.00238   2.81390
   R26        1.94554  -0.01354   0.00000  -0.01106  -0.00996   1.93558
   R27        2.10305  -0.01082   0.00000  -0.01022  -0.00920   2.09385
   R28        2.08086  -0.00331   0.00000  -0.00307  -0.00276   2.07809
   R29        2.31105  -0.05964   0.00000  -0.02941  -0.02647   2.28458
    A1        1.96167   0.01210   0.00000   0.01518   0.01366   1.97533
    A2        2.06388  -0.00468   0.00000  -0.00572  -0.00515   2.05874
    A3        2.05810  -0.00520   0.00000  -0.00632  -0.00569   2.05241
    A4        1.85496   0.01680   0.00000   0.01819   0.01632   1.87128
    A5        1.88747  -0.02104   0.00000  -0.02193  -0.01980   1.86767
    A6        2.52936   0.00596   0.00000   0.00671   0.00600   2.53536
    A7        2.53104  -0.04336   0.00000  -0.04593  -0.04133   2.48971
    A8        2.17807  -0.01798   0.00000  -0.01840  -0.01664   2.16143
    A9        2.12950  -0.01476   0.00000  -0.01500  -0.01356   2.11594
   A10        1.97561   0.03274   0.00000   0.03338   0.03013   2.00574
   A11        2.19067  -0.02402   0.00000  -0.02769  -0.02488   2.16579
   A12        2.05180  -0.00053   0.00000  -0.00177  -0.00162   2.05018
   A13        2.04065   0.02451   0.00000   0.02940   0.02643   2.06708
   A14        2.07822   0.01012   0.00000   0.01177   0.01041   2.08863
   A15        2.20022  -0.02151   0.00000  -0.02636  -0.02364   2.17658
   A16        2.00463   0.01142   0.00000   0.01465   0.01327   2.01790
   A17        2.06245   0.00300   0.00000   0.00519   0.00448   2.06693
   A18        2.09845  -0.00110   0.00000  -0.00206  -0.00175   2.09670
   A19        2.12174  -0.00182   0.00000  -0.00299  -0.00260   2.11914
   A20        2.14640  -0.02560   0.00000  -0.02677  -0.02402   2.12238
   A21        2.05849   0.02265   0.00000   0.02592   0.02335   2.08184
   A22        2.07079   0.00341   0.00000   0.00175   0.00148   2.07228
   A23        2.09330   0.00469   0.00000   0.00565   0.00520   2.09850
   A24        2.15253  -0.10549   0.00000  -0.11161  -0.10087   2.05166
   A25        2.02660   0.10337   0.00000   0.11043   0.09937   2.12597
   A26        2.07645  -0.03885   0.00000  -0.03940  -0.03736   2.03909
   A27        2.08550   0.05210   0.00000   0.06763   0.05912   2.14462
   A28        2.04349   0.01454   0.00000   0.01974   0.01567   2.05916
   A29        1.71439  -0.11085   0.00000  -0.11741  -0.10567   1.60872
   A30        2.04127  -0.05682   0.00000  -0.06601  -0.06258   1.97869
   A31        2.14317   0.01380   0.00000   0.01037   0.00604   2.14921
   A32        2.06876   0.02093   0.00000   0.01899   0.01382   2.08258
   A33        2.13872  -0.03276   0.00000  -0.03859  -0.03552   2.10321
   A34        2.10696   0.00200   0.00000  -0.00255  -0.00313   2.10383
   A35        1.91770   0.00841   0.00000   0.00550   0.00406   1.92176
   A36        1.84370  -0.09111   0.00000  -0.10262  -0.09298   1.75072
   A37        2.00427   0.03138   0.00000   0.03066   0.02633   2.03060
   A38        2.01532   0.01012   0.00000   0.00303   0.00239   2.01771
   A39        1.80592   0.03337   0.00000   0.04322   0.03847   1.84439
   A40        1.79786   0.03089   0.00000   0.04016   0.03570   1.83356
   A41        1.81769   0.00547   0.00000   0.01236   0.00990   1.82759
   A42        2.04170  -0.00423   0.00000  -0.00448  -0.00403   2.03767
    D1        0.80499  -0.01023   0.00000  -0.01737  -0.01559   0.78940
    D2       -2.45600  -0.00067   0.00000  -0.00121  -0.00113  -2.45713
    D3       -2.98613  -0.00874   0.00000  -0.01494  -0.01340  -2.99953
    D4        0.03606   0.00082   0.00000   0.00123   0.00106   0.03712
    D5        3.07748  -0.00285   0.00000  -0.00420  -0.00368   3.07380
    D6        0.13415  -0.01577   0.00000  -0.02791  -0.02522   0.10893
    D7       -2.05229  -0.01122   0.00000  -0.01954  -0.01755  -2.06984
    D8        0.88901   0.00423   0.00000   0.00696   0.00622   0.89523
    D9       -2.90904  -0.03808   0.00000  -0.06854  -0.06171  -2.97075
   D10        0.23419  -0.03100   0.00000  -0.05578  -0.05019   0.18400
   D11        3.00778   0.01022   0.00000   0.01849   0.01708   3.02486
   D12       -0.14602   0.00678   0.00000   0.01241   0.01144  -0.13458
   D13       -0.13532   0.00365   0.00000   0.00669   0.00619  -0.12914
   D14        2.99407   0.00022   0.00000   0.00061   0.00054   2.99461
   D15       -2.92761  -0.00758   0.00000  -0.01590  -0.01468  -2.94229
   D16        0.37727  -0.03666   0.00000  -0.06003  -0.05291   0.32437
   D17        0.21544  -0.00121   0.00000  -0.00446  -0.00410   0.21135
   D18       -2.76285  -0.03029   0.00000  -0.04859  -0.04232  -2.80517
   D19        0.00314  -0.00036   0.00000  -0.00067  -0.00076   0.00237
   D20       -3.12146  -0.00270   0.00000  -0.00439  -0.00405  -3.12551
   D21       -3.12632   0.00320   0.00000   0.00557   0.00511  -3.12121
   D22        0.03227   0.00087   0.00000   0.00184   0.00182   0.03409
   D23        0.04412  -0.00306   0.00000  -0.00497  -0.00459   0.03952
   D24       -3.13240  -0.00052   0.00000  -0.00035  -0.00015  -3.13254
   D25       -3.11262  -0.00129   0.00000  -0.00205  -0.00195  -3.11457
   D26       -0.00594   0.00124   0.00000   0.00258   0.00250  -0.00345
   D27        0.04545   0.00124   0.00000   0.00254   0.00261   0.04807
   D28        3.05379   0.00572   0.00000   0.01080   0.01028   3.06408
   D29       -3.06073  -0.00135   0.00000  -0.00218  -0.00191  -3.06264
   D30       -0.05239   0.00313   0.00000   0.00608   0.00576  -0.04663
   D31       -0.18923   0.00533   0.00000   0.00683   0.00576  -0.18347
   D32        2.80051   0.01397   0.00000   0.02830   0.02710   2.82761
   D33        3.08651  -0.00055   0.00000  -0.00321  -0.00347   3.08304
   D34       -0.20694   0.00809   0.00000   0.01826   0.01787  -0.18907
   D35        0.67357  -0.03468   0.00000  -0.05927  -0.05425   0.61932
   D36       -2.89310   0.04080   0.00000   0.06977   0.06307  -2.83003
   D37       -2.31047  -0.05510   0.00000  -0.09373  -0.08463  -2.39511
   D38        0.40604   0.02038   0.00000   0.03530   0.03269   0.43872
   D39       -2.60329   0.16871   0.00000   0.29180   0.26191  -2.34138
   D40        0.95329   0.08554   0.00000   0.15381   0.13915   1.09244
   D41        2.53326  -0.11503   0.00000  -0.19670  -0.17648   2.35678
   D42       -0.34351  -0.02200   0.00000  -0.04025  -0.03678  -0.38029
   D43       -2.71213   0.10369   0.00000   0.17354   0.15571  -2.55642
   D44       -0.12862   0.05839   0.00000   0.09877   0.08870  -0.03992
   D45        0.17633   0.01431   0.00000   0.02337   0.02122   0.19754
   D46        2.75984  -0.03099   0.00000  -0.05140  -0.04579   2.71405
   D47        1.68916  -0.05524   0.00000  -0.08931  -0.08042   1.60874
   D48       -0.55242  -0.01725   0.00000  -0.03209  -0.02868  -0.58110
   D49       -0.94712  -0.01407   0.00000  -0.02112  -0.01921  -0.96633
   D50        3.09449   0.02392   0.00000   0.03610   0.03253   3.12702
   D51       -2.86925   0.02485   0.00000   0.03821   0.03438  -2.83487
   D52        1.52450  -0.00194   0.00000  -0.00223  -0.00311   1.52139
   D53       -0.63425  -0.00127   0.00000  -0.00350  -0.00204  -0.63629
   D54       -2.52369  -0.02806   0.00000  -0.04394  -0.03954  -2.56323
         Item               Value     Threshold  Converged?
 Maximum Force            0.168710     0.000450     NO 
 RMS     Force            0.036140     0.000300     NO 
 Maximum Displacement     2.852767     0.001800     NO 
 RMS     Displacement     0.745267     0.001200     NO 
 Predicted change in Energy=-1.908910D-01
 GradGradGradGradGradGradGradGradGradGradGradGradGradGradGradGradGradGrad

                          Input orientation:                          
 ---------------------------------------------------------------------
 Center     Atomic      Atomic             Coordinates (Angstroms)
 Number     Number       Type             X           Y           Z
 ---------------------------------------------------------------------
      1          7           0        0.495864    0.713633   -0.317313
      2          6           0        1.769482    1.183428   -0.574097
      3          7           0        2.638122    0.443466    0.191889
      4          7           0        4.102976    0.234420    0.478473
      5          6           0        4.621937   -0.858834    1.280642
      6          6           0        5.947664   -1.129329    1.435976
      7          6           0        6.933769   -0.292992    0.776229
      8          6           0        6.502656    0.763655    0.060337
      9          6           0        5.071214    1.115575   -0.013683
     10          6           0        4.662157    2.327203   -0.408343
     11         16           0        3.375248    3.049925    0.495355
     12          6           0        2.554616    3.509056   -0.917238
     13          6           0        1.243669    3.250112   -0.876891
     14          7           0        0.574598    2.900581   -2.006603
     15          6           0        0.683091    1.417339   -1.932427
     16          6           0        1.626687    2.400441   -1.916720
     17          8           0        2.220055    2.153222   -2.940611
     18          1           0        0.313250    0.576365    0.668284
     19          1           0       -0.257346    1.058375   -0.886848
     20          1           0        3.901742   -1.485944    1.798980
     21          1           0        6.349228   -1.958292    2.025847
     22          1           0        7.998143   -0.508059    0.888701
     23          1           0        7.228718    1.439088   -0.377757
     24          1           0        5.251767    2.964483   -1.046538
     25          1           0        3.044069    3.619549   -1.876831
     26          1           0        0.803115    2.753540   -0.011280
     27          1           0        0.902657    3.325354   -2.878994
     28          1           0        0.457748    1.049271   -2.952939
     29          1           0       -0.175816    1.098159   -1.324401
 ---------------------------------------------------------------------
                    Distance matrix (angstroms):
                    1          2          3          4          5
     1  N    0.000000
     2  C    1.381574   0.000000
     3  N    2.218456   1.374342   0.000000
     4  N    3.724805   2.730149   1.507192   0.000000
     5  C    4.695805   3.968298   2.610917   1.451895   0.000000
     6  C    6.016032   5.181355   3.869690   2.485859   1.361928
     7  C    6.607249   5.538326   4.397318   2.894859   2.432935
     8  C    6.018860   4.793919   3.880006   2.492668   2.767439
     9  C    4.602996   3.349642   2.532573   1.398619   2.403209
    10  C    4.468768   3.115007   2.829392   2.340698   3.606261
    11  S    3.795990   2.684404   2.725632   2.908082   4.177236
    12  C    3.523175   2.478453   3.261132   3.881839   5.308762
    13  C    2.702974   2.153914   3.311201   4.371161   5.740303
    14  N    2.764533   2.535436   3.889591   5.072817   6.428074
    15  C    1.771680   1.754998   3.046850   4.348258   5.569495
    16  C    2.584992   1.817732   3.049424   4.069472   5.460542
    17  O    3.453541   2.596903   3.593133   4.349406   5.714936
    18  H    1.011727   2.008145   2.376899   3.809853   4.582528
    19  H    1.005258   2.054625   3.150480   4.642781   5.672840
    20  H    4.573493   4.159757   2.811068   2.178047   1.086565
    21  H    6.847732   6.132225   4.785827   3.499714   2.178915
    22  H    7.696180   6.617940   5.488239   3.986463   3.416932
    23  H    6.772094   5.468746   4.731737   3.457545   3.850459
    24  H    5.311940   3.939755   3.836713   3.331460   4.519978
    25  H    4.167708   3.042429   3.812072   4.257680   5.702211
    26  H    2.085492   1.927661   2.957189   4.180300   5.413105
    27  H    3.680866   3.263707   4.554936   5.573912   6.974456
    28  H    2.657185   2.719840   3.874400   5.072105   6.237350
    29  H    1.270134   2.086722   3.262822   4.722760   5.799526
                    6          7          8          9         10
     6  C    0.000000
     7  C    1.451594   0.000000
     8  C    2.404950   1.347169   0.000000
     9  C    2.812342   2.465185   1.475925   0.000000
    10  C    4.123306   3.664540   2.460037   1.338330   0.000000
    11  S    4.996824   4.890507   3.898327   2.622428   1.730645
    12  C    6.210073   6.041555   4.907128   3.588652   2.469307
    13  C    6.830551   6.903885   5.892182   4.466707   3.571744
    14  N    7.547275   7.640819   6.631785   5.232354   4.426210
    15  C    6.748879   7.023747   6.185931   4.798777   4.357023
    16  C    6.509277   6.532356   5.510254   4.139710   3.390375
    17  O    6.620024   6.482127   5.410847   4.215771   3.522288
    18  H    5.936781   6.678226   6.222012   4.836739   4.810151
    19  H    6.977371   7.503610   6.832398   5.399930   5.102980
    20  H    2.108255   3.415016   3.853353   3.379543   4.471085
    21  H    1.093792   2.162511   3.360917   3.904056   5.209314
    22  H    2.211323   1.091694   2.130709   3.466612   4.566162
    23  H    3.395216   2.102090   1.084114   2.211795   2.716049
    24  H    4.838021   4.094235   2.762886   2.125524   1.077525
    25  H    6.477452   6.121803   4.885752   3.721629   2.538666
    26  H    6.605876   6.891041   6.037346   4.571608   3.902772
    27  H    7.994702   7.926374   6.823633   5.519963   4.608065
    28  H    7.358535   7.592576   6.760349   5.470620   5.077906
    29  H    7.076608   7.542821   6.828718   5.408290   5.075007
                   11         12         13         14         15
    11  S    0.000000
    12  C    1.696955   0.000000
    13  C    2.542983   1.336885   0.000000
    14  N    3.758422   2.340391   1.358704   0.000000
    15  C    3.975823   2.984711   2.188027   1.489054   0.000000
    16  C    3.049164   1.757569   1.396385   1.168380   1.362758
    17  O    3.734222   2.458507   2.532872   2.034317   1.979954
    18  H    3.940081   4.017248   3.225239   3.553210   2.758209
    19  H    4.367207   3.730134   2.656475   2.310780   1.451383
    20  H    4.748762   5.843169   6.054409   6.692829   5.719455
    21  H    6.022391   7.276862   7.849846   8.556614   7.692068
    22  H    5.846805   7.002186   7.928687   8.666639   8.073159
    23  H    4.266891   5.140335   6.272939   7.004743   6.727757
    24  H    2.430239   2.754614   4.021842   4.775114   4.904208
    25  H    2.461995   1.082862   2.092320   2.575275   3.229092
    26  H    2.638255   2.111711   1.090850   2.013742   2.343212
    27  H    4.192350   2.571226   2.032331   1.024266   2.141196
    28  H    4.940157   3.819880   3.125916   2.082440   1.108015
    29  H    4.441954   3.665170   2.616506   2.068150   1.099678
                   16         17         18         19         20
    16  C    0.000000
    17  O    1.208948   0.000000
    18  H    3.425583   4.375672   0.000000
    19  H    2.532066   3.399140   1.725210   0.000000
    20  H    5.838347   6.207683   4.290557   5.566440   0.000000
    21  H    7.539547   7.656390   6.685843   7.825017   2.502951
    22  H    7.544879   7.425116   7.764157   8.588329   4.308754
    23  H    5.888579   5.671413   7.047141   7.513008   4.935865
    24  H    3.770486   3.665642   5.747406   5.831730   5.452142
    25  H    1.869970   1.990161   4.816217   4.294068   6.349271
    26  H    2.105624   3.308940   2.332780   2.182838   5.554436
    27  H    1.518438   1.764434   4.526314   3.233179   7.350275
    28  H    2.065388   2.079564   3.654829   2.186361   6.392898
    29  H    2.301260   3.076604   2.117132   0.446858   5.749746
                   21         22         23         24         25
    21  H    0.000000
    22  H    2.472892   0.000000
    23  H    4.253587   2.446898   0.000000
    24  H    5.905733   4.831798   2.585041   0.000000
    25  H    7.567514   7.016278   4.951053   2.447944   0.000000
    26  H    7.557156   7.950875   6.568902   4.572391   3.041731
    27  H    9.035458   8.901488   7.059266   4.733168   2.382546
    28  H    8.279086   8.604709   7.254623   5.503183   3.801761
    29  H    7.946209   8.619243   7.472583   5.746219   4.126771
                   26         27         28         29
    26  H    0.000000
    27  H    2.925862   0.000000
    28  H    3.417187   2.320337   0.000000
    29  H    2.328707   2.922372   1.748121   0.000000
 Stoichiometry    C11H12N4OS
 Framework group  C1[X(C11H12N4OS)]
 Deg. of freedom    81
 Full point group                 C1      NOp   1
[...]
   R27        2.06334  -0.00003   0.00004   0.00000   0.00004   2.06339
   R28        2.06966   0.00013  -0.00018  -0.00003  -0.00021   2.06944
   R29        2.28320   0.00037   0.00005  -0.00009  -0.00005   2.28315
    A1        1.98906   0.00008   0.00179   0.00052   0.00227   1.99134
    A2        2.07398  -0.00010   0.00205   0.00075   0.00277   2.07675
    A3        2.00954   0.00003   0.00236   0.00050   0.00281   2.01236
    A4        2.02317   0.00130  -0.00055  -0.00000  -0.00055   2.02261
    A5        2.00417   0.00074   0.00143   0.00030   0.00173   2.00590
    A6        2.25585  -0.00204  -0.00087  -0.00030  -0.00118   2.25467
    A7        2.11030  -0.00502  -0.00022  -0.00106  -0.00127   2.10903
    A8        2.04088  -0.00049   0.00035  -0.00079  -0.00044   2.04043
    A9        2.03974   0.00060   0.00078   0.00139   0.00216   2.04191
   A10        2.11819   0.00002   0.00049   0.00012   0.00060   2.11880
   A11        2.14631   0.00026  -0.00023   0.00023   0.00000   2.14631
   A12        1.98916  -0.00013   0.00037  -0.00004   0.00033   1.98948
   A13        2.14772  -0.00014  -0.00013  -0.00019  -0.00033   2.14739
   A14        2.06306  -0.00011  -0.00019  -0.00020  -0.00039   2.06267
   A15        2.09008   0.00001   0.00016   0.00001   0.00016   2.09024
   A16        2.12974   0.00010   0.00003   0.00020   0.00023   2.12997
   A17        2.08808  -0.00009   0.00021  -0.00007   0.00014   2.08822
   A18        2.09566   0.00006  -0.00008   0.00011   0.00003   2.09569
   A19        2.09935   0.00004  -0.00013  -0.00004  -0.00017   2.09918
   A20        2.15279   0.00045  -0.00030   0.00019  -0.00011   2.15268
   A21        2.10859  -0.00019  -0.00006   0.00000  -0.00005   2.10853
   A22        2.02168  -0.00026   0.00035  -0.00018   0.00017   2.02185
   A23        1.99528  -0.00052  -0.00010  -0.00013  -0.00023   1.99505
   A24        2.22637   0.00273  -0.00013   0.00021   0.00008   2.22646
   A25        2.06099  -0.00219   0.00022  -0.00007   0.00015   2.06113
   A26        2.32524   0.00529  -0.00062  -0.00022  -0.00084   2.32441
   A27        1.99128  -0.00217   0.00036  -0.00008   0.00027   1.99154
   A28        1.95734  -0.00289   0.00071   0.00032   0.00102   1.95836
   A29        1.73801   0.00857  -0.00018  -0.00080  -0.00098   1.73703
   A30        2.12451  -0.00079   0.00004   0.00078   0.00082   2.12533
   A31        2.02521   0.00016  -0.00062  -0.00092  -0.00155   2.02366
   A32        2.12659   0.00084   0.00068  -0.00001   0.00067   2.12725
   A33        2.20039   0.00168   0.00026  -0.00026  -0.00000   2.20038
   A34        2.09527  -0.00068   0.00014   0.00011   0.00025   2.09552
   A35        1.98276  -0.00090  -0.00044   0.00013  -0.00032   1.98244
   A36        1.92829   0.00100  -0.00240  -0.00006  -0.00247   1.92583
   A37        1.92899  -0.00028  -0.00107  -0.00022  -0.00131   1.92768
   A38        1.90704   0.00043  -0.00147  -0.00021  -0.00168   1.90536
   A39        1.90800   0.00002  -0.00022  -0.00017  -0.00038   1.90762
   A40        1.89073  -0.00026  -0.00032  -0.00009  -0.00042   1.89031
   A41        1.88903   0.00006   0.00014  -0.00011   0.00003   1.88906
   A42        2.12515  -0.00070   0.00062  -0.00053   0.00008   2.12523
    D1        0.18516   0.00036  -0.00043  -0.00016  -0.00060   0.18456
    D2       -2.95652  -0.00037   0.00206  -0.00056   0.00149  -2.95503
    D3        2.64319   0.00039   0.00909   0.00251   0.01161   2.65480
    D4       -0.49849  -0.00034   0.01159   0.00211   0.01371  -0.48479
    D5        2.96020   0.00075  -0.00197   0.00061  -0.00136   2.95884
    D6       -0.18129   0.00160  -0.00490   0.00108  -0.00381  -0.18510
    D7       -2.35601   0.00052  -0.01459  -0.00258  -0.01716  -2.37317
    D8        0.78548  -0.00033  -0.01169  -0.00304  -0.01473   0.77075
    D9       -1.19901   0.00238   0.00133  -0.00338  -0.00205  -1.20107
   D10        2.36562   0.00208  -0.00260  -0.00514  -0.00774   2.35788
   D11       -2.71026  -0.00064  -0.00207  -0.00293  -0.00499  -2.71525
   D12        0.43221  -0.00044  -0.00289  -0.00381  -0.00670   0.42552
   D13       -0.01192  -0.00019   0.00213  -0.00078   0.00135  -0.01057
   D14        3.13055   0.00002   0.00130  -0.00166  -0.00036   3.13019
   D15        2.65089   0.00045   0.00103   0.00379   0.00483   2.65572
   D16       -0.52727   0.00106   0.00055   0.00411   0.00467  -0.52260
   D17       -0.04772   0.00026  -0.00306   0.00217  -0.00089  -0.04861
   D18        3.05731   0.00087  -0.00354   0.00249  -0.00105   3.05626
   D19        0.05691  -0.00002  -0.00001  -0.00096  -0.00097   0.05594
   D20       -3.11066   0.00007  -0.00014  -0.00070  -0.00084  -3.11150
   D21       -3.08564  -0.00024   0.00089  -0.00000   0.00089  -3.08475
   D22        0.02998  -0.00014   0.00076   0.00026   0.00102   0.03100
   D23       -0.03837   0.00015  -0.00091   0.00114   0.00022  -0.03815
   D24        3.08887   0.00001  -0.00107   0.00105  -0.00003   3.08884
   D25        3.12981   0.00005  -0.00079   0.00087   0.00009   3.12990
   D26       -0.02613  -0.00009  -0.00094   0.00079  -0.00016  -0.02629
   D27       -0.02441  -0.00008  -0.00024   0.00041   0.00017  -0.02423
   D28        3.13468  -0.00030   0.00011  -0.00029  -0.00017   3.13450
   D29        3.13157   0.00006  -0.00008   0.00050   0.00042   3.13199
   D30        0.00747  -0.00016   0.00027  -0.00020   0.00007   0.00754
   D31        0.06589  -0.00013   0.00216  -0.00201   0.00015   0.06604
   D32       -3.04285  -0.00078   0.00260  -0.00231   0.00030  -3.04256
   D33       -3.09239   0.00008   0.00183  -0.00134   0.00048  -3.09191
   D34        0.08205  -0.00057   0.00227  -0.00164   0.00063   0.08268
   D35       -0.18578   0.00077   0.00492   0.00027   0.00519  -0.18058
   D36        3.11696  -0.00081   0.00104   0.00011   0.00115   3.11811
   D37        2.91805   0.00143   0.00441   0.00060   0.00501   2.92306
   D38       -0.06239  -0.00014   0.00053   0.00044   0.00097  -0.06142
   D39       -0.81333  -0.00199  -0.00495  -0.00446  -0.00941  -0.82274
   D40        2.16946  -0.00040  -0.00115  -0.00433  -0.00548   2.16398
   D41        2.29177   0.00393   0.00704   0.00162   0.00867   2.30044
   D42       -0.72626   0.00196   0.00616   0.00302   0.00918  -0.71709
   D43       -2.96253  -0.00171  -0.00113   0.00179   0.00066  -2.96187
   D44        0.06724  -0.00061  -0.00169   0.00157  -0.00012   0.06712
   D45        0.04833   0.00031  -0.00029   0.00025  -0.00003   0.04830
   D46        3.07810   0.00141  -0.00085   0.00003  -0.00082   3.07728
   D47        2.01629   0.00178  -0.00794  -0.00257  -0.01051   2.00578
   D48       -0.09658   0.00077  -0.00379  -0.00213  -0.00592  -0.10250
   D49       -1.01970   0.00074  -0.00744  -0.00236  -0.00980  -1.02950
   D50       -3.13257  -0.00027  -0.00328  -0.00192  -0.00520  -3.13778
   D51       -2.96870  -0.00028   0.00021   0.00131   0.00152  -2.96718
   D52        1.25955  -0.00022   0.00035   0.00159   0.00193   1.26149
   D53       -0.84283   0.00029  -0.00365   0.00086  -0.00278  -0.84561
   D54       -2.89776   0.00035  -0.00351   0.00114  -0.00237  -2.90013
         Item               Value     Threshold  Converged?
 Maximum Force            0.008575     0.000450     NO 
 RMS     Force            0.001344     0.000300     NO 
 Maximum Displacement     0.040963     0.001800     NO 
 RMS     Displacement     0.008076     0.001200     NO 
 Predicted change in Energy=-7.850464D-06
 GradGradGradGradGradGradGradGradGradGradGradGradGradGradGradGradGradGrad

                          Input orientation:                          
 ---------------------------------------------------------------------
 Center     Atomic      Atomic             Coordinates (Angstroms)
 Number     Number       Type             X           Y           Z
 ---------------------------------------------------------------------
      1          7           0        0.448568    0.757255    0.775550
      2          6           0        1.646860    0.714689    0.102003
      3          7           0        2.701657    0.931375    0.814034
      4          7           0        3.983683    0.700342    0.290118
      5          6           0        4.336791   -0.618002    0.056032
      6          6           0        5.618959   -1.040816    0.023328
      7          6           0        6.650838   -0.092129    0.310168
      8          6           0        6.324627    1.195785    0.559083
      9          6           0        4.961769    1.694581    0.524755
     10          6           0        4.763531    3.042845    0.677358
     11         16           0        3.370827    4.092382    0.427660
     12          6           0        2.854832    3.520159   -1.165374
     13          6           0        1.582701    3.216280   -1.423991
     14          7           0        1.100875    2.564035   -2.584159
     15          6           0        0.533872    1.247530   -2.234318
     16          6           0        1.534917    0.417109   -1.397982
     17          8           0        2.274179   -0.364107   -1.948366
     18          1           0        0.517060    1.118986    1.717903
     19          1           0       -0.383340    1.018484    0.274287
     20          1           0        3.496796   -1.276211   -0.096848
     21          1           0        5.836856   -2.077924   -0.191750
     22          1           0        7.687618   -0.409330    0.340724
     23          1           0        7.090396    1.928691    0.784896
     24          1           0        5.669807    3.604258    0.871846
     25          1           0        3.650146    3.317899   -1.878862
     26          1           0        0.819367    3.376312   -0.666029
     27          1           0        1.851557    2.435896   -3.257033
     28          1           0        0.331656    0.687037   -3.149304
     29          1           0       -0.416326    1.409375   -1.714529
 ---------------------------------------------------------------------
                    Distance matrix (angstroms):
                    1          2          3          4          5
     1  N    0.000000
     2  C    1.375275   0.000000
     3  N    2.260135   1.290945   0.000000
     4  N    3.568743   2.344427   1.404085   0.000000
     5  C    4.186564   3.002317   2.376720   1.384743   0.000000
     6  C    5.525563   4.343450   3.609073   2.403526   1.350480
     7  C    6.277435   5.072878   4.110654   2.782468   2.386618
     8  C    5.896375   4.724604   3.641542   2.407867   2.737587
     9  C    4.616326   3.482461   2.402972   1.414290   2.440971
    10  C    4.883899   3.932554   2.954371   2.499088   3.737641
    11  S    4.447887   3.806170   3.254080   3.449702   4.822750
    12  C    4.146195   3.306979   3.262411   3.368105   4.562063
    13  C    3.488702   2.930996   3.388453   3.877220   4.947444
    14  N    3.870091   3.306607   4.095827   4.477210   5.250440
    15  C    3.050730   2.642170   3.753892   4.309686   4.815403
    16  C    2.453589   1.533311   2.553189   2.987702   3.322064
    17  O    3.465549   2.400280   3.080887   3.011024   2.887290
    18  H    1.011716   2.012718   2.371632   3.772440   4.513234
    19  H    1.005771   2.060020   3.133069   4.378625   5.000536
    20  H    3.766664   2.724975   2.517020   2.072091   1.078054
    21  H    6.165027   5.043912   4.460601   3.374198   2.107834
    22  H    7.345328   6.149079   5.184720   3.866920   3.369368
    23  H    6.744348   5.618917   4.500724   3.377175   3.820894
    24  H    5.947776   5.012622   3.994691   3.407954   4.502218
    25  H    4.883944   3.835843   3.721132   3.415747   4.439214
    26  H    3.012491   2.891169   3.422180   4.252990   5.371051
    27  H    4.587803   3.779891   4.422651   4.487804   5.145782
    28  H    3.927223   3.507353   4.624355   5.016683   5.293242
    29  H    2.715474   2.835333   4.042764   4.886862   5.462350
                    6          7          8          9         10
     6  C    0.000000
     7  C    1.430755   0.000000
     8  C    2.405699   1.351701   0.000000
     9  C    2.857573   2.468062   1.451674   0.000000
    10  C    4.223246   3.677611   2.421290   1.371278   0.000000
    11  S    5.618479   5.318121   4.139140   2.879232   1.761675
    12  C    5.464056   5.443851   4.518401   3.260132   2.695667
    13  C    6.042266   6.295943   5.522757   4.187038   3.816206
    14  N    6.340901   6.799591   6.248173   5.032674   4.927657
    15  C    6.015946   6.759170   6.429512   5.236279   5.439764
    16  C    4.563450   5.417542   5.232377   4.131849   4.650320
    17  O    3.941201   4.932555   5.012654   4.192572   4.969771
    18  H    5.793591   6.408724   5.922550   4.637925   4.776660
    19  H    6.350692   7.121405   6.716351   5.393518   5.545339
    20  H    2.138557   3.393478   3.812826   3.370183   4.567084
    21  H    1.081356   2.204058   3.393942   3.938394   5.303740
    22  H    2.186062   1.084649   2.117031   3.448269   4.536643
    23  H    3.400454   2.121860   1.083764   2.157205   2.582093
    24  H    4.722212   3.865382   2.515423   2.066073   1.083673
    25  H    5.147130   5.042251   4.195211   3.183221   2.801703
    26  H    6.559140   6.854859   6.046775   4.626627   4.179989
    27  H    6.086182   6.492221   6.009074   4.952261   4.932282
    28  H    6.403643   7.246179   7.065880   5.995982   6.311473
    29  H    6.741532   7.503248   7.117260   5.832636   5.934666
                   11         12         13         14         15
    11  S    0.000000
    12  C    1.769590   0.000000
    13  C    2.719111   1.333245   0.000000
    14  N    4.069347   2.450202   1.415475   0.000000
    15  C    4.819506   3.419699   2.373321   1.475489   0.000000
    16  C    4.495684   3.380119   2.799700   2.490923   1.546334
    17  O    5.168020   4.004717   3.684058   3.217902   2.389103
    18  H    4.318541   4.420870   3.925013   4.575668   3.954347
    19  H    4.854497   4.337829   3.402907   3.572441   2.680828
    20  H    5.395625   4.955707   5.060390   5.164750   4.440379
    21  H    6.673653   6.417082   6.902525   7.049888   6.584252
    22  H    6.237600   6.408201   7.316371   7.796219   7.781524
    23  H    4.317912   4.927101   6.072213   6.901344   7.250355
    24  H    2.391835   3.475834   4.703810   5.822472   6.448276
    25  H    2.449059   1.087428   2.119331   2.750371   3.758184
    26  H    2.866855   2.100751   1.087564   2.101967   2.659465
    27  H    4.316143   2.560707   2.010305   1.016220   2.048036
    28  H    5.798932   4.281235   3.307399   2.105756   1.091898
    29  H    5.111755   3.931597   2.710245   2.095565   1.095103
                   16         17         18         19         20
    16  C    0.000000
    17  O    1.208192   0.000000
    18  H    3.352224   4.327650   0.000000
    19  H    2.614927   3.730167   1.704361   0.000000
    20  H    2.899871   2.398926   4.231916   4.523143   0.000000
    21  H    5.117311   4.326145   6.493630   6.963891   2.475405
    22  H    6.446847   5.877695   7.459844   8.196550   4.301853
    23  H    6.157369   5.993629   6.688413   7.546252   4.895184
    24  H    5.692746   5.935639   5.783009   6.609379   5.429486
    25  H    3.622158   3.931321   5.252444   5.117848   4.930004
    26  H    3.131238   4.213265   3.296974   2.808924   5.398014
    27  H    2.762576   3.119493   5.316495   4.412940   5.145222
    28  H    2.141921   2.514071   4.889853   3.513126   4.815594
    29  H    2.211819   3.230903   3.568911   2.027134   5.014159
                   21         22         23         24         25
    21  H    0.000000
    22  H    2.548147   0.000000
    23  H    4.310240   2.453631   0.000000
    24  H    5.783281   4.523554   2.198444   0.000000
    25  H    6.061597   5.926211   4.567365   3.424533   0.000000
    26  H    7.426226   7.906801   6.597468   5.093504   3.080209
    27  H    6.756710   7.422855   6.636254   5.743844   2.431503
    28  H    6.833693   8.215381   7.918345   7.292166   4.421293
    29  H    7.320000   8.556031   7.928915   6.967630   4.495071
                   26         27         28         29
    26  H    0.000000
    27  H    2.943315   0.000000
    28  H    3.692793   2.319528   0.000000
    29  H    2.548555   2.928542   1.771956   0.000000
 Stoichiometry    C11H12N4OS
 Framework group  C1[X(C11H12N4OS)]
 Deg. of freedom    81
 Full point group                 C1      NOp   1
 Largest Abelian subgroup         C1      NOp   1
 Largest concise Abelian subgroup C1      NOp   1
                         Standard orientation:                         
 ---------------------------------------------------------------------
 Center     Atomic      Atomic             Coordinates (Angstroms)
 Number     Number       Type             X           Y           Z
 ---------------------------------------------------------------------
      1          7           0       -1.863665    1.019817   -2.146215
      2          6           0       -1.006942    0.951168   -1.072579
      3          7           0        0.132103    0.386052   -1.295649
      4          7           0        1.165745    0.451011   -0.347588
      5          6           0        1.750302    1.689313   -0.141638
      6          6           0        3.004788    1.839742    0.335263
      7          6           0        3.782856    0.662871    0.573268
      8          6           0        3.235674   -0.554716    0.360740
      9          6           0        1.865289   -0.748103   -0.077441
     10          6           0        1.384040   -2.030337   -0.145855
     11         16           0       -0.233076   -2.702344   -0.337790
     12          6           0       -1.098409   -1.730023    0.861059
     13          6           0       -2.253074   -1.127782    0.575406
     14          7           0       -2.916617   -0.172355    1.381904
     15          6           0       -2.958644    1.134864    0.698911
     16          6           0       -1.548739    1.559318    0.226517
     17          8           0       -0.867770    2.267457    0.929759
     18          1           0       -1.571040    0.470628   -2.943918
     19          1           0       -2.855114    1.039323   -1.978213
     20          1           0        1.114757    2.521891   -0.396777
     21          1           0        3.400021    2.832276    0.502588
     22          1           0        4.810479    0.749441    0.909360
     23          1           0        3.809954   -1.458347    0.528665
     24          1           0        2.119200   -2.791987    0.086044
     25          1           0       -0.576181   -1.555509    1.798781
     26          1           0       -2.719969   -1.277245   -0.395400
     27          1           0       -2.440054   -0.067904    2.273353
     28          1           0       -3.309749    1.896313    1.398313
     29          1           0       -3.676733    1.069407   -0.125294
 ---------------------------------------------------------------------
 Rotational constants (GHZ):           0.6188288           0.4097908           0.3060061
 Standard basis: 6-31G(2df,p) (6D, 7F)
 There are   591 symmetry adapted cartesian basis functions of A   symmetry.
 There are   540 symmetry adapted basis functions of A   symmetry.
   540 basis functions,   856 primitive gaussians,   591 cartesian basis functions
    65 alpha electrons       65 beta electrons
       nuclear repulsion energy      1347.3629000562 Hartrees.
 NAtoms=   29 NActive=   29 NUniq=   29 SFac= 1.00D+00 NAtFMM=   60 NAOKFM=F Big=F
 Integral buffers will be    131072 words long.
 Raffenetti 2 integral format.
 Two-electron integral symmetry is turned on.
 One-electron integrals computed using PRISM.
 PrsmSu:  requested number of processors reduced to:  12 ShMem   1 Linda.
slurmstepd: error: *** JOB 27505083 ON lewis4-r630-hpc4-node539 CANCELLED AT 2023-05-28T09:58:00 DUE TO TIME LIMIT ***
