### Starting Gaussian ###
 Entering Gaussian System, Link 0=g16
 Initial command:
 /cluster/software/gaussian/gaussian-16-A.03/avx2/g16/l1.exe "/local/scratch/cz9n3/Gau-26417.inp" -scrdir="/local/scratch/cz9n3/"
 Entering Link 1 = /cluster/software/gaussian/gaussian-16-A.03/avx2/g16/l1.exe PID=     26418.
  
 Copyright (c) 1988,1990,1992,1993,1995,1998,2003,2009,2016,
            Gaussian, Inc.  All Rights Reserved.
  
 This is part of the Gaussian(R) 16 program.  It is based on
 the Gaussian(R) 09 system (copyright 2009, Gaussian, Inc.),
 the Gaussian(R) 03 system (copyright 2003, Gaussian, Inc.),
 the Gaussian(R) 98 system (copyright 1998, Gaussian, Inc.),
 the Gaussian(R) 94 system (copyright 1995, Gaussian, Inc.),
 the Gaussian 92(TM) system (copyright 1992, Gaussian, Inc.),
 the Gaussian 90(TM) system (copyright 1990, Gaussian, Inc.),
 the Gaussian 88(TM) system (copyright 1988, Gaussian, Inc.),
 the Gaussian 86(TM) system (copyright 1986, Carnegie Mellon
 University), and the Gaussian 82(TM) system (copyright 1983,
 Carnegie Mellon University). Gaussian is a federally registered
 trademark of Gaussian, Inc.
  
 This software contains proprietary and confidential information,
 including trade secrets, belonging to Gaussian, Inc.
  
 This software is provided under written license and may be
 used, copied, transmitted, or stored only in accord with that
 written license.
  
 The following legend is applicable only to US Government
 contracts under FAR:
  
                    RESTRICTED RIGHTS LEGEND
  
 Use, reproduction and disclosure by the US Government is
 subject to restrictions as set forth in subparagraphs (a)
 and (c) of the Commercial Computer Software - Restricted
 Rights clause in FAR 52.227-19.
  
 Gaussian, Inc.
 340 Quinnipiac St., Bldg. 40, Wallingford CT 06492
  
  
 ---------------------------------------------------------------
 Warning -- This program may not be used in any manner that
 competes with the business of Gaussian, Inc. or will provide
 assistance to any competitor of Gaussian, Inc.  The licensee
 of this program is prohibited from giving any competitor of
 Gaussian, Inc. access to this program.  By using this program,
 the user acknowledges that Gaussian, Inc. is engaged in the
 business of creating and licensing software in the field of
 computational chemistry and represents and warrants to the
 licensee that it is not a competitor of Gaussian, Inc. and that
 it will not use this program in any manner prohibited above.
 ---------------------------------------------------------------
  

 Cite this work as:
 Gaussian 16, Revision A.03,
 M. J. Frisch, G. W. Trucks, H. B. Schlegel, G. E. Scuseria, 
 M. A. Robb, J. R. Cheeseman, G. Scalmani, V. Barone, 
 G. A. Petersson, H. Nakatsuji, X. Li, M. Caricato, A. V. Marenich, 
 J. Bloino, B. G. Janesko, R. Gomperts, B. Mennucci, H. P. Hratchian, 
 J. V. Ortiz, A. F. Izmaylov, J. L. Sonnenberg, D. Williams-Young, 
 F. Ding, F. Lipparini, F. Egidi, J. Goings, B. Peng, A. Petrone, 
 T. Henderson, D. Ranasinghe, V. G. Zakrzewski, J. Gao, N. Rega, 
 G. Zheng, W. Liang, M. Hada, M. Ehara, K. Toyota, R. Fukuda, 
 J. Hasegawa, M. Ishida, T. Nakajima, Y. Honda, O. Kitao, H. Nakai, 
 T. Vreven, K. Throssell, J. A. Montgomery, Jr., J. E. Peralta, 
 F. Ogliaro, M. J. Bearpark, J. J. Heyd, E. N. Brothers, K. N. Kudin, 
 V. N. Staroverov, T. A. Keith, R. Kobayashi, J. Normand, 
 K. Raghavachari, A. P. Rendell, J. C. Burant, S. S. Iyengar, 
 J. Tomasi, M. Cossi, J. M. Millam, M. Klene, C. Adamo, R. Cammi, 
 J. W. Ochterski, R. L. Martin, K. Morokuma, O. Farkas, 
 J. B. Foresman, and D. J. Fox, Gaussian, Inc., Wallingford CT, 2016.
 
 ******************************************
 Gaussian 16:  ES64L-G16RevA.03 25-Dec-2016
                28-May-2023 
 ******************************************
 %chk=NdC1CdCCdCC2qCC2rNCdC1.chk
 %NProcShared=20
 Will use up to   20 processors via shared memory.
 -----------------------------
 # opt freq b3lyp/6-31g(2df,p)
 -----------------------------
 1/18=20,19=15,26=3,38=1/1,3;
 2/9=110,12=2,17=6,18=5,40=1/2;
 3/5=1,6=6,7=104,11=2,25=1,30=1,71=1,74=-5/1,2,3;
 4//1;
 5/5=2,38=5/2;
 6/7=2,8=2,9=2,10=2,28=1/1;
 7//1,2,3,16;
 1/18=20,19=15,26=3/3(2);
 2/9=110/2;
 99//99;
 2/9=110/2;
 3/5=1,6=6,7=104,11=2,25=1,30=1,71=1,74=-5/1,2,3;
 4/5=5,16=3,69=1/1;
 5/5=2,38=5/2;
 7//1,2,3,16;
 1/18=20,19=15,26=3/3(-5);
 2/9=110/2;
 6/7=2,8=2,9=2,10=2,19=2,28=1/1;
 99/9=1/99;
 -------------------
 Title Card Required
 -------------------
 Symbolic Z-matrix:
 Charge =  0 Multiplicity = 1
 N                     2.42519   0.5533   -0.31708 
 C                     3.46793  -0.2045   -0.56831 
 C                     3.04322  -1.58311  -0.4773 
 C                     4.12667  -2.10396   0.12093 
 C                     4.71399  -3.12326  -0.61047 
 C                     6.0132   -3.06157  -0.31293 
 C                     7.00443  -3.38967  -1.22215 
 C                     7.30937  -4.83042  -0.76838 
 C                     6.97586  -4.55935  -2.20485 
 N                     7.5368   -1.94919  -1.38708 
 C                     6.56534  -0.58924  -1.20079 
 C                     5.25252   0.04006  -0.90579 
 H                     1.56733  -0.06549  -0.15415 
 H                     2.27891  -2.0635   -1.02612 
 H                     4.76759  -1.40719   0.68067 
 H                     4.36322  -3.57122  -1.53051 
 H                     6.39405  -2.3914    0.4589 
 H                     6.49602  -5.3485   -0.21126 
 H                     8.21056  -5.3493   -0.47692 
 H                     6.00663  -4.89928  -2.57206 
 H                     7.73661  -4.91439  -2.89766 
 H                     8.2354   -1.82271  -0.61684 
 H                     7.42483   0.00982  -1.55271 
 H                     5.27144   1.0798   -0.47332 
 

 GradGradGradGradGradGradGradGradGradGradGradGradGradGradGradGradGradGrad
 Berny optimization.
 Initialization pass.
                           ----------------------------
                           !    Initial Parameters    !
                           ! (Angstroms and Degrees)  !
 --------------------------                            --------------------------
 ! Name  Definition              Value          Derivative Info.                !
 --------------------------------------------------------------------------------
 ! R1    R(1,2)                  1.3133         estimate D2E/DX2                !
 ! R2    R(1,13)                 1.0702         estimate D2E/DX2                !
 ! R3    R(2,3)                  1.4454         estimate D2E/DX2                !
 ! R4    R(2,12)                 1.8326         estimate D2E/DX2                !
 ! R5    R(3,4)                  1.3428         estimate D2E/DX2                !
 ! R6    R(3,14)                 1.0565         estimate D2E/DX2                !
 ! R7    R(4,5)                  1.3852         estimate D2E/DX2                !
 ! R8    R(4,15)                 1.0998         estimate D2E/DX2                !
 ! R9    R(5,6)                  1.3343         estimate D2E/DX2                !
 ! R10   R(5,16)                 1.0817         estimate D2E/DX2                !
 ! R11   R(6,7)                  1.3845         estimate D2E/DX2                !
 ! R12   R(6,17)                 1.0908         estimate D2E/DX2                !
 ! R13   R(7,8)                  1.541          estimate D2E/DX2                !
 ! R14   R(7,9)                  1.528          estimate D2E/DX2                !
 ! R15   R(7,10)                 1.5445         estimate D2E/DX2                !
 ! R16   R(8,9)                  1.4994         estimate D2E/DX2                !
 ! R17   R(8,18)                 1.1137         estimate D2E/DX2                !
 ! R18   R(8,19)                 1.08           estimate D2E/DX2                !
 ! R19   R(9,20)                 1.0908         estimate D2E/DX2                !
 ! R20   R(9,21)                 1.0885         estimate D2E/DX2                !
 ! R21   R(10,11)                1.6816         estimate D2E/DX2                !
 ! R22   R(10,22)                1.0475         estimate D2E/DX2                !
 ! R23   R(11,12)                1.4854         estimate D2E/DX2                !
 ! R24   R(11,23)                1.1052         estimate D2E/DX2                !
 ! R25   R(12,24)                1.1263         estimate D2E/DX2                !
 ! A1    A(2,1,13)             109.3866         estimate D2E/DX2                !
 ! A2    A(1,2,3)              107.759          estimate D2E/DX2                !
 ! A3    A(1,2,12)             137.0056         estimate D2E/DX2                !
 ! A4    A(3,2,12)             115.1512         estimate D2E/DX2                !
 ! A5    A(2,3,4)               99.2609         estimate D2E/DX2                !
 ! A6    A(2,3,14)             127.8471         estimate D2E/DX2                !
 ! A7    A(4,3,14)             129.7021         estimate D2E/DX2                !
 ! A8    A(3,4,5)              113.0975         estimate D2E/DX2                !
 ! A9    A(3,4,15)             116.8215         estimate D2E/DX2                !
 ! A10   A(5,4,15)             119.1974         estimate D2E/DX2                !
 ! A11   A(4,5,6)              105.1343         estimate D2E/DX2                !
 ! A12   A(4,5,16)             128.0465         estimate D2E/DX2                !
 ! A13   A(6,5,16)             121.6379         estimate D2E/DX2                !
 ! A14   A(5,6,7)              122.6651         estimate D2E/DX2                !
 ! A15   A(5,6,17)             121.7461         estimate D2E/DX2                !
 ! A16   A(7,6,17)             111.1182         estimate D2E/DX2                !
 ! A17   A(6,7,8)               99.7797         estimate D2E/DX2                !
 ! A18   A(6,7,9)              126.1842         estimate D2E/DX2                !
 ! A19   A(6,7,10)              95.5021         estimate D2E/DX2                !
 ! A20   A(8,7,10)             146.6363         estimate D2E/DX2                !
 ! A21   A(9,7,10)             130.6707         estimate D2E/DX2                !
 ! A22   A(7,8,18)             115.9581         estimate D2E/DX2                !
 ! A23   A(7,8,19)             133.9319         estimate D2E/DX2                !
 ! A24   A(9,8,18)             113.6349         estimate D2E/DX2                !
 ! A25   A(9,8,19)             122.0748         estimate D2E/DX2                !
 ! A26   A(18,8,19)            104.5313         estimate D2E/DX2                !
 ! A27   A(7,9,20)             118.1443         estimate D2E/DX2                !
 ! A28   A(7,9,21)             130.2397         estimate D2E/DX2                !
 ! A29   A(8,9,20)             117.6343         estimate D2E/DX2                !
 ! A30   A(8,9,21)             113.2883         estimate D2E/DX2                !
 ! A31   A(20,9,21)            107.7644         estimate D2E/DX2                !
 ! A32   A(7,10,11)            122.9069         estimate D2E/DX2                !
 ! A33   A(7,10,22)            105.3051         estimate D2E/DX2                !
 ! A34   A(11,10,22)           101.8976         estimate D2E/DX2                !
 ! A35   A(10,11,12)           151.0637         estimate D2E/DX2                !
 ! A36   A(10,11,23)            87.3531         estimate D2E/DX2                !
 ! A37   A(12,11,23)           121.3936         estimate D2E/DX2                !
 ! A38   A(2,12,11)            147.2108         estimate D2E/DX2                !
 ! A39   A(2,12,24)             93.9476         estimate D2E/DX2                !
 ! A40   A(11,12,24)           116.9051         estimate D2E/DX2                !
 ! D1    D(13,1,2,3)            -1.9571         estimate D2E/DX2                !
 ! D2    D(13,1,2,12)         -178.2892         estimate D2E/DX2                !
 ! D3    D(1,2,3,4)           -140.9717         estimate D2E/DX2                !
 ! D4    D(1,2,3,14)            57.8837         estimate D2E/DX2                !
 ! D5    D(12,2,3,4)            36.2659         estimate D2E/DX2                !
 ! D6    D(12,2,3,14)         -124.8788         estimate D2E/DX2                !
 ! D7    D(1,2,12,11)          179.8734         estimate D2E/DX2                !
 ! D8    D(1,2,12,24)           19.0169         estimate D2E/DX2                !
 ! D9    D(3,2,12,11)            3.7327         estimate D2E/DX2                !
 ! D10   D(3,2,12,24)         -157.1238         estimate D2E/DX2                !
 ! D11   D(2,3,4,5)           -121.9836         estimate D2E/DX2                !
 ! D12   D(2,3,4,15)            22.1025         estimate D2E/DX2                !
 ! D13   D(14,3,4,5)            38.6446         estimate D2E/DX2                !
 ! D14   D(14,3,4,15)         -177.2693         estimate D2E/DX2                !
 ! D15   D(3,4,5,6)            149.4489         estimate D2E/DX2                !
 ! D16   D(3,4,5,16)            -4.9308         estimate D2E/DX2                !
 ! D17   D(15,4,5,6)             6.294          estimate D2E/DX2                !
 ! D18   D(15,4,5,16)         -148.0856         estimate D2E/DX2                !
 ! D19   D(4,5,6,7)           -147.2882         estimate D2E/DX2                !
 ! D20   D(4,5,6,17)             6.8651         estimate D2E/DX2                !
 ! D21   D(16,5,6,7)             9.1356         estimate D2E/DX2                !
 ! D22   D(16,5,6,17)          163.2889         estimate D2E/DX2                !
 ! D23   D(5,6,7,8)            -98.5574         estimate D2E/DX2                !
 ! D24   D(5,6,7,9)            -40.6303         estimate D2E/DX2                !
 ! D25   D(5,6,7,10)           111.2111         estimate D2E/DX2                !
 ! D26   D(17,6,7,8)           104.8603         estimate D2E/DX2                !
 ! D27   D(17,6,7,9)           162.7874         estimate D2E/DX2                !
 ! D28   D(17,6,7,10)          -45.3712         estimate D2E/DX2                !
 ! D29   D(6,7,8,18)            23.0208         estimate D2E/DX2                !
 ! D30   D(6,7,8,19)          -125.9056         estimate D2E/DX2                !
 ! D31   D(10,7,8,18)          139.0407         estimate D2E/DX2                !
 ! D32   D(10,7,8,19)           -9.8857         estimate D2E/DX2                !
 ! D33   D(6,7,9,20)            29.4533         estimate D2E/DX2                !
 ! D34   D(6,7,9,21)          -175.5904         estimate D2E/DX2                !
 ! D35   D(10,7,9,20)         -112.2798         estimate D2E/DX2                !
 ! D36   D(10,7,9,21)           42.6766         estimate D2E/DX2                !
 ! D37   D(6,7,10,11)          -29.1172         estimate D2E/DX2                !
 ! D38   D(6,7,10,22)           86.457          estimate D2E/DX2                !
 ! D39   D(8,7,10,11)         -146.2839         estimate D2E/DX2                !
 ! D40   D(8,7,10,22)          -30.7097         estimate D2E/DX2                !
 ! D41   D(9,7,10,11)          120.7381         estimate D2E/DX2                !
 ! D42   D(9,7,10,22)         -123.6877         estimate D2E/DX2                !
 ! D43   D(18,8,9,20)           -1.1548         estimate D2E/DX2                !
 ! D44   D(18,8,9,21)         -128.0452         estimate D2E/DX2                !
 ! D45   D(19,8,9,20)          125.534          estimate D2E/DX2                !
 ! D46   D(19,8,9,21)           -1.3565         estimate D2E/DX2                !
 ! D47   D(7,10,11,12)           0.6602         estimate D2E/DX2                !
 ! D48   D(7,10,11,23)        -173.147          estimate D2E/DX2                !
 ! D49   D(22,10,11,12)       -116.5749         estimate D2E/DX2                !
 ! D50   D(22,10,11,23)         69.618          estimate D2E/DX2                !
 ! D51   D(10,11,12,2)          -5.7802         estimate D2E/DX2                !
 ! D52   D(10,11,12,24)        152.6972         estimate D2E/DX2                !
 ! D53   D(23,11,12,2)         166.9674         estimate D2E/DX2                !
 ! D54   D(23,11,12,24)        -34.5552         estimate D2E/DX2                !
 --------------------------------------------------------------------------------
 Trust Radius=3.00D-01 FncErr=1.00D-07 GrdErr=1.00D-06 EigMax=2.50D+02 EigMin=1.00D-04
 Number of steps in this run=    129 maximum allowed number of steps=    144.
 GradGradGradGradGradGradGradGradGradGradGradGradGradGradGradGradGradGrad

                          Input orientation:                          
 ---------------------------------------------------------------------
 Center     Atomic      Atomic             Coordinates (Angstroms)
 Number     Number       Type             X           Y           Z
 ---------------------------------------------------------------------
      1          7           0        2.425190    0.553300   -0.317080
      2          6           0        3.467930   -0.204500   -0.568310
      3          6           0        3.043220   -1.583110   -0.477300
      4          6           0        4.126670   -2.103960    0.120930
      5          6           0        4.713990   -3.123260   -0.610470
      6          6           0        6.013200   -3.061570   -0.312930
      7          6           0        7.004430   -3.389670   -1.222150
      8          6           0        7.309370   -4.830420   -0.768380
      9          6           0        6.975860   -4.559350   -2.204850
     10          7           0        7.536800   -1.949190   -1.387080
     11          6           0        6.565340   -0.589240   -1.200790
     12          6           0        5.252520    0.040060   -0.905790
     13          1           0        1.567330   -0.065490   -0.154150
     14          1           0        2.278910   -2.063500   -1.026120
     15          1           0        4.767590   -1.407190    0.680670
     16          1           0        4.363220   -3.571220   -1.530510
     17          1           0        6.394050   -2.391400    0.458900
     18          1           0        6.496020   -5.348500   -0.211260
     19          1           0        8.210560   -5.349300   -0.476920
     20          1           0        6.006630   -4.899280   -2.572060
     21          1           0        7.736610   -4.914390   -2.897660
     22          1           0        8.235400   -1.822710   -0.616840
     23          1           0        7.424830    0.009820   -1.552710
     24          1           0        5.271440    1.079800   -0.473320
 ---------------------------------------------------------------------
                    Distance matrix (angstroms):
                    1          2          3          4          5
     1  N    0.000000
     2  C    1.313272   0.000000
     3  C    2.229771   1.445416   0.000000
     4  C    3.185580   2.125309   1.342769   0.000000
     5  C    4.340712   3.173894   2.276240   1.385230   0.000000
     6  C    5.093242   3.834901   3.321693   2.159687   1.334272
     7  C    6.110287   4.804128   4.416972   3.426137   2.385632
     8  C    7.283085   6.016297   5.369338   4.284161   3.110519
     9  C    7.100103   5.826539   5.225714   4.422225   3.117765
    10  N    5.791020   4.502225   4.599345   3.731894   3.154333
    11  C    4.384881   3.184651   3.730489   3.160448   3.193310
    12  C    2.933222   1.832611   2.774760   2.630307   3.222394
    13  H    1.070220   1.950162   2.141459   3.283481   4.411310
    14  H    2.715102   2.253717   1.056479   2.175219   2.688024
    15  H    3.213388   2.166917   2.084537   1.099807   2.148211
    16  H    4.715934   3.614163   2.608492   2.221725   1.081749
    17  H    5.002525   3.794716   3.571815   2.310380   2.121738
    18  H    7.170362   5.979762   5.115737   4.031279   2.878662
    19  H    8.266604   6.997847   6.394184   5.250506   4.147179
    20  H    6.902338   5.700962   4.915974   4.312802   2.944996
    21  H    8.047746   6.769827   6.243675   5.481065   4.192328
    22  H    6.284411   5.034851   5.199578   4.183906   3.753905
    23  H    5.178663   4.083140   4.784604   4.259929   4.248842
    24  H    2.898750   2.216100   3.472185   3.435107   4.242084
                    6          7          8          9         10
     6  C    0.000000
     7  C    1.384510   0.000000
     8  C    2.239715   1.540992   0.000000
     9  C    2.597965   1.527962   1.499385   0.000000
    10  N    2.170840   1.544540   2.955673   2.792192   0.000000
    11  C    2.684319   2.834725   4.327605   4.115633   1.681637
    12  C    3.248111   3.864236   5.288770   5.080554   3.067033
    13  H    5.363531   6.461645   7.486846   7.324776   6.379891
    14  H    3.930611   4.911995   5.746982   5.447936   5.271505
    15  H    2.296902   3.543219   4.503209   4.810280   3.498268
    16  H    2.112979   2.665340   3.293361   2.873504   3.566954
    17  H    1.090824   2.048179   2.879730   3.483400   2.215642
    18  H    2.339551   2.262166   1.113700   2.197136   3.744474
    19  H    3.176317   2.418733   1.079967   2.265888   3.583726
    20  H    2.912197   2.257606   2.226013   1.090781   3.528261
    21  H    3.617169   2.380797   2.173343   1.088476   3.333795
    22  H    2.562286   2.082559   3.150685   3.405498   1.047525
    23  H    3.600443   3.441299   4.904735   4.637259   1.969185
    24  H    4.210330   4.851821   6.258668   6.140298   3.891220
                   11         12         13         14         15
    11  C    0.000000
    12  C    1.485443   0.000000
    13  H    5.133213   3.762543   0.000000
    14  H    4.536236   3.644420   2.293190   0.000000
    15  H    2.727790   2.201487   3.569138   3.088269   0.000000
    16  H    3.721593   3.771269   4.690577   2.621446   3.120234
    17  H    2.455950   3.012884   5.392858   4.387161   1.913955
    18  H    4.861536   5.573620   7.225333   5.407332   4.395103
    19  H    5.088114   6.162721   8.494430   6.803130   5.360437
    20  H    4.557300   5.267088   6.994226   4.932289   4.930534
    21  H    4.791468   5.889382   8.312562   6.435583   5.824086
    22  H    2.156744   3.528594   6.911227   5.975388   3.725842
    23  H    1.105189   2.266793   6.022620   5.572831   3.749244
    24  H    2.233626   1.126254   3.890243   4.375061   2.787593
                   16         17         18         19         20
    16  H    0.000000
    17  H    3.077986   0.000000
    18  H    3.073757   3.033802   0.000000
    19  H    4.367338   3.595086   1.735000   0.000000
    20  H    2.355709   3.953008   2.452484   3.073994   0.000000
    21  H    3.879815   4.408451   2.990696   2.504747   1.760419
    22  H    4.345786   2.207078   3.952358   3.529452   4.272655
    23  H    4.711454   3.297717   5.601229   5.522215   5.210531
    24  H    4.855358   3.765437   6.549146   7.069071   6.379233
                   21         22         23         24
    21  H    0.000000
    22  H    3.874199   0.000000
    23  H    5.114092   2.211570   0.000000
    24  H    6.919884   4.150930   2.635722   0.000000
 Stoichiometry    C10H12N2
 Framework group  C1[X(C10H12N2)]
 Deg. of freedom    66
 Full point group                 C1      NOp   1
 Largest Abelian subgroup         C1      NOp   1
 Largest concise Abelian subgroup C1      NOp   1
                         Standard orientation:                         
 ---------------------------------------------------------------------
 Center     Atomic      Atomic             Coordinates (Angstroms)
 Number     Number       Type             X           Y           Z
 ---------------------------------------------------------------------
      1          7           0        4.022915   -0.155714    0.165908
      2          6           0        2.723419    0.033597    0.178358
      3          6           0        2.088802   -1.265002    0.189713
      4          6           0        1.060552   -1.010239   -0.635409
      5          6           0       -0.174460   -1.240352   -0.051752
      6          6           0       -1.002446   -0.371267   -0.634343
      7          6           0       -2.075565    0.198554    0.029424
      8          6           0       -3.210332   -0.712908   -0.476736
      9          6           0       -3.019261   -0.514029    0.997066
     10          7           0       -1.486347    1.625828    0.065656
     11          6           0        0.167025    1.931089    0.098504
     12          6           0        1.575986    1.460630    0.104622
     13          1           0        4.229389   -1.205199    0.202273
     14          1           0        2.209822   -2.039445    0.898048
     15          1           0        1.177544   -0.163375   -1.327298
     16          1           0       -0.383227   -1.655590    0.925067
     17          1           0       -0.685771    0.248560   -1.474241
     18          1           0       -2.902465   -1.721545   -0.834782
     19          1           0       -4.157800   -0.530669   -0.961939
     20          1           0       -2.627392   -1.352615    1.574139
     21          1           0       -3.913153   -0.152331    1.501954
     22          1           0       -1.769003    2.064790   -0.842489
     23          1           0       -0.084632    2.997094    0.245972
     24          1           0        2.348380    2.159097   -0.324330
 ---------------------------------------------------------------------
 Rotational constants (GHZ):           2.1097888           0.5875641           0.4943127
 Standard basis: 6-31G(2df,p) (6D, 7F)
 There are   432 symmetry adapted cartesian basis functions of A   symmetry.
 There are   396 symmetry adapted basis functions of A   symmetry.
   396 basis functions,   612 primitive gaussians,   432 cartesian basis functions
    43 alpha electrons       43 beta electrons
       nuclear repulsion energy       652.5994280866 Hartrees.
 NAtoms=   24 NActive=   24 NUniq=   24 SFac= 1.00D+00 NAtFMM=   60 NAOKFM=F Big=F
 Integral buffers will be    131072 words long.
 Raffenetti 2 integral format.
 Two-electron integral symmetry is turned on.
 One-electron integrals computed using PRISM.
 PrsmSu:  requested number of processors reduced to:  13 ShMem   1 Linda.
 NBasis=   396 RedAO= T EigKep=  3.46D-04  NBF=   396
 NBsUse=   396 1.00D-06 EigRej= -1.00D+00 NBFU=   396
 ExpMin= 1.61D-01 ExpMax= 4.17D+03 ExpMxC= 6.27D+02 IAcc=3 IRadAn=         5 AccDes= 0.00D+00
 Harris functional with IExCor=  402 and IRadAn=       5 diagonalized for initial guess.
 HarFok:  IExCor=  402 AccDes= 0.00D+00 IRadAn=         5 IDoV= 1 UseB2=F ITyADJ=14
 ICtDFT=  3500011 ScaDFX=  1.000000  1.000000  1.000000  1.000000
 FoFCou: FMM=F IPFlag=           0 FMFlag=      100000 FMFlg1=           0
         NFxFlg=           0 DoJE=T BraDBF=F KetDBF=T FulRan=T
         wScrn=  0.000000 ICntrl=       500 IOpCl=  0 I1Cent=   200000004 NGrid=           0
         NMat0=    1 NMatS0=      1 NMatT0=    0 NMatD0=    1 NMtDS0=    0 NMtDT0=    0
 Petite list used in FoFCou.
 Requested convergence on RMS density matrix=1.00D-08 within 128 cycles.
 Requested convergence on MAX density matrix=1.00D-06.
 Requested convergence on             energy=1.00D-06.
 No special actions if energy rises.
 Integral accuracy reduced to 1.0D-05 until final iterations.
 Initial convergence to 1.0D-05 achieved.  Increase integral accuracy.
 SCF Done:  E(RB3LYP) =  -497.328855145     A.U. after   18 cycles
            NFock= 18  Conv=0.48D-08     -V/T= 2.0085

 **********************************************************************

            Population analysis using the SCF density.

 **********************************************************************

 Orbital symmetries:
       Occupied  (A) (A) (A) (A) (A) (A) (A) (A) (A) (A) (A) (A)
                 (A) (A) (A) (A) (A) (A) (A) (A) (A) (A) (A) (A)
                 (A) (A) (A) (A) (A) (A) (A) (A) (A) (A) (A) (A)
                 (A) (A) (A) (A) (A) (A) (A)
       Virtual   (A) (A) (A) (A) (A) (A) (A) (A) (A) (A) (A) (A)
                 (A) (A) (A) (A) (A) (A) (A) (A) (A) (A) (A) (A)
                 (A) (A) (A) (A) (A) (A) (A) (A) (A) (A) (A) (A)
                 (A) (A) (A) (A) (A) (A) (A) (A) (A) (A) (A) (A)
                 (A) (A) (A) (A) (A) (A) (A) (A) (A) (A) (A) (A)
                 (A) (A) (A) (A) (A) (A) (A) (A) (A) (A) (A) (A)
                 (A) (A) (A) (A) (A) (A) (A) (A) (A) (A) (A) (A)
                 (A) (A) (A) (A) (A) (A) (A) (A) (A) (A) (A) (A)
                 (A) (A) (A) (A) (A) (A) (A) (A) (A) (A) (A) (A)
                 (A) (A) (A) (A) (A) (A) (A) (A) (A) (A) (A) (A)
                 (A) (A) (A) (A) (A) (A) (A) (A) (A) (A) (A) (A)
                 (A) (A) (A) (A) (A) (A) (A) (A) (A) (A) (A) (A)
                 (A) (A) (A) (A) (A) (A) (A) (A) (A) (A) (A) (A)
                 (A) (A) (A) (A) (A) (A) (A) (A) (A) (A) (A) (A)
                 (A) (A) (A) (A) (A) (A) (A) (A) (A) (A) (A) (A)
                 (A) (A) (A) (A) (A) (A) (A) (A) (A) (A) (A) (A)
                 (A) (A) (A) (A) (A) (A) (A) (A) (A) (A) (A) (A)
                 (A) (A) (A) (A) (A) (A) (A) (A) (A) (A) (A) (A)
                 (A) (A) (A) (A) (A) (A) (A) (A) (A) (A) (A) (A)
                 (A) (A) (A) (A) (A) (A) (A) (A) (A) (A) (A) (A)
                 (A) (A) (A) (A) (A) (A) (A) (A) (A) (A) (A) (A)
                 (A) (A) (A) (A) (A) (A) (A) (A) (A) (A) (A) (A)
                 (A) (A) (A) (A) (A) (A) (A) (A) (A) (A) (A) (A)
                 (A) (A) (A) (A) (A) (A) (A) (A) (A) (A) (A) (A)
                 (A) (A) (A) (A) (A) (A) (A) (A) (A) (A) (A) (A)
                 (A) (A) (A) (A) (A) (A) (A) (A) (A) (A) (A) (A)
                 (A) (A) (A) (A) (A) (A) (A) (A) (A) (A) (A) (A)
                 (A) (A) (A) (A) (A) (A) (A) (A) (A) (A) (A) (A)
                 (A) (A) (A) (A) (A) (A) (A) (A) (A) (A) (A) (A)
                 (A) (A) (A) (A) (A)
 The electronic state is 1-A.
 Alpha  occ. eigenvalues --  -14.36554 -14.31164 -10.27524 -10.24894 -10.24875
 Alpha  occ. eigenvalues --  -10.23823 -10.21010 -10.20440 -10.17632 -10.17341
 Alpha  occ. eigenvalues --  -10.17160 -10.15116  -0.91824  -0.89081  -0.84162
 Alpha  occ. eigenvalues --   -0.82360  -0.74759  -0.72020  -0.65693  -0.61519
 Alpha  occ. eigenvalues --   -0.58987  -0.56511  -0.55675  -0.52953  -0.49535
 Alpha  occ. eigenvalues --   -0.48817  -0.47500  -0.44826  -0.43984  -0.41983
 Alpha  occ. eigenvalues --   -0.40062  -0.39172  -0.37430  -0.36860  -0.35177
 Alpha  occ. eigenvalues --   -0.33610  -0.31243  -0.30266  -0.27751  -0.27500
 Alpha  occ. eigenvalues --   -0.24043  -0.22717  -0.16173
 Alpha virt. eigenvalues --   -0.06154  -0.02015   0.00792   0.02124   0.03565
 Alpha virt. eigenvalues --    0.05466   0.07005   0.09457   0.09805   0.10869
 Alpha virt. eigenvalues --    0.13253   0.13661   0.14053   0.14876   0.16620
 Alpha virt. eigenvalues --    0.17189   0.18590   0.19054   0.20311   0.22209
 Alpha virt. eigenvalues --    0.23249   0.26613   0.27323   0.31806   0.33398
 Alpha virt. eigenvalues --    0.34759   0.35939   0.39080   0.40884   0.43324
 Alpha virt. eigenvalues --    0.44445   0.46122   0.46599   0.48555   0.49827
 Alpha virt. eigenvalues --    0.50467   0.51385   0.51951   0.52198   0.53306
 Alpha virt. eigenvalues --    0.55204   0.55989   0.56705   0.58094   0.58685
 Alpha virt. eigenvalues --    0.59069   0.60669   0.61690   0.63351   0.64669
 Alpha virt. eigenvalues --    0.65125   0.65442   0.66705   0.68231   0.68799
 Alpha virt. eigenvalues --    0.70532   0.71615   0.72252   0.73194   0.73530
 Alpha virt. eigenvalues --    0.74336   0.75198   0.75570   0.76361   0.77760
 Alpha virt. eigenvalues --    0.78585   0.79069   0.79453   0.79675   0.80824
 Alpha virt. eigenvalues --    0.81469   0.82551   0.83864   0.84970   0.85051
 Alpha virt. eigenvalues --    0.86545   0.87214   0.88038   0.90753   0.91428
 Alpha virt. eigenvalues --    0.94314   0.94911   0.96801   0.99948   1.00781
 Alpha virt. eigenvalues --    1.01160   1.03960   1.05144   1.05867   1.09326
 Alpha virt. eigenvalues --    1.10288   1.12514   1.14370   1.17451   1.18268
 Alpha virt. eigenvalues --    1.20136   1.21412   1.21931   1.22767   1.25385
 Alpha virt. eigenvalues --    1.27632   1.29663   1.31843   1.32982   1.34812
 Alpha virt. eigenvalues --    1.36360   1.38690   1.39925   1.40264   1.42903
 Alpha virt. eigenvalues --    1.45223   1.47540   1.47913   1.48728   1.50915
 Alpha virt. eigenvalues --    1.51888   1.52188   1.56454   1.57236   1.58298
 Alpha virt. eigenvalues --    1.59676   1.60810   1.61394   1.65327   1.67431
 Alpha virt. eigenvalues --    1.67974   1.69467   1.72264   1.73436   1.74386
 Alpha virt. eigenvalues --    1.77130   1.79289   1.81637   1.83562   1.86399
 Alpha virt. eigenvalues --    1.87816   1.90594   1.92595   1.95076   1.96564
 Alpha virt. eigenvalues --    1.98544   1.99235   2.01798   2.04497   2.07567
 Alpha virt. eigenvalues --    2.09260   2.09902   2.13329   2.16301   2.19072
 Alpha virt. eigenvalues --    2.20637   2.24696   2.29423   2.29954   2.33349
 Alpha virt. eigenvalues --    2.34865   2.35783   2.37187   2.38861   2.40751
 Alpha virt. eigenvalues --    2.42200   2.45955   2.47734   2.49539   2.53492
 Alpha virt. eigenvalues --    2.54946   2.55675   2.61137   2.62057   2.64248
 Alpha virt. eigenvalues --    2.67090   2.68950   2.70943   2.72889   2.73488
 Alpha virt. eigenvalues --    2.75225   2.77225   2.78801   2.81252   2.82219
 Alpha virt. eigenvalues --    2.83418   2.84323   2.85956   2.87012   2.89052
 Alpha virt. eigenvalues --    2.90985   2.92671   2.93198   2.94721   2.95867
 Alpha virt. eigenvalues --    2.98219   2.99782   3.01122   3.02325   3.03744
 Alpha virt. eigenvalues --    3.05860   3.06585   3.07552   3.09811   3.11039
 Alpha virt. eigenvalues --    3.11647   3.12725   3.13589   3.16455   3.17806
 Alpha virt. eigenvalues --    3.18553   3.20526   3.22530   3.23789   3.25280
 Alpha virt. eigenvalues --    3.26404   3.27694   3.29184   3.31630   3.31801
 Alpha virt. eigenvalues --    3.34044   3.35059   3.36509   3.37407   3.38397
 Alpha virt. eigenvalues --    3.40234   3.41327   3.43480   3.45979   3.47578
 Alpha virt. eigenvalues --    3.48933   3.51043   3.52849   3.55280   3.57281
 Alpha virt. eigenvalues --    3.59793   3.60589   3.63192   3.65460   3.66957
 Alpha virt. eigenvalues --    3.69500   3.72399   3.74261   3.78350   3.80363
 Alpha virt. eigenvalues --    3.83234   3.85707   3.86810   3.88060   3.91152
 Alpha virt. eigenvalues --    3.95052   3.96103   3.97162   3.99031   3.99684
 Alpha virt. eigenvalues --    4.00173   4.02766   4.04278   4.06475   4.08646
 Alpha virt. eigenvalues --    4.12682   4.13727   4.14971   4.16284   4.17869
 Alpha virt. eigenvalues --    4.19627   4.22862   4.23510   4.26741   4.27504
 Alpha virt. eigenvalues --    4.28531   4.32567   4.34337   4.34713   4.36177
 Alpha virt. eigenvalues --    4.37605   4.38929   4.39917   4.40730   4.42574
 Alpha virt. eigenvalues --    4.46076   4.47515   4.48939   4.50187   4.51525
 Alpha virt. eigenvalues --    4.52084   4.53237   4.55356   4.56817   4.58274
 Alpha virt. eigenvalues --    4.58977   4.62756   4.64019   4.64367   4.65931
 Alpha virt. eigenvalues --    4.67646   4.68447   4.71255   4.71977   4.73944
 Alpha virt. eigenvalues --    4.74970   4.76387   4.77230   4.78376   4.80583
 Alpha virt. eigenvalues --    4.81432   4.82971   4.83382   4.85936   4.87664
 Alpha virt. eigenvalues --    4.89539   4.90633   4.93797   4.95503   4.98760
 Alpha virt. eigenvalues --    5.01544   5.04659   5.06414   5.08237   5.11741
 Alpha virt. eigenvalues --    5.13087   5.15294   5.17638   5.19804   5.23146
 Alpha virt. eigenvalues --    5.26447   5.28625   5.29608   5.36715   5.37805
 Alpha virt. eigenvalues --    5.41721   5.43920   5.49733   5.51003   5.54226
 Alpha virt. eigenvalues --    5.59486   5.59837   5.67905   5.79399   5.85964
 Alpha virt. eigenvalues --    5.91419   5.96748   6.20662   6.62661  10.03061
 Alpha virt. eigenvalues --   10.39313  10.90181  10.94552  11.09949  11.27079
 Alpha virt. eigenvalues --   11.37196  11.51391  11.73813  11.92543  12.02656
 Alpha virt. eigenvalues --   12.08869  12.34666  14.70976
          Condensed to atoms (all electrons):
               1          2          3          4          5          6
     1  N    6.678567   0.542899  -0.104735   0.003378   0.000009  -0.000027
     2  C    0.542899   4.727261   0.445323  -0.048387   0.003844   0.000572
     3  C   -0.104735   0.445323   5.072527   0.566382  -0.051335  -0.011076
     4  C    0.003378  -0.048387   0.566382   4.854719   0.428648   0.009098
     5  C    0.000009   0.003844  -0.051335   0.428648   4.911509   0.596891
     6  C   -0.000027   0.000572  -0.011076   0.009098   0.596891   4.882473
     7  C    0.000000   0.000049   0.000089   0.003670  -0.039652   0.367503
     8  C   -0.000000  -0.000004  -0.000053  -0.000063  -0.004693  -0.033271
     9  C    0.000000  -0.000001   0.000086   0.000226  -0.010595  -0.035424
    10  N   -0.000000  -0.000432   0.000578   0.000863  -0.000514  -0.099530
    11  C    0.000138  -0.011502  -0.002482  -0.008182   0.007508   0.000855
    12  C   -0.015891   0.345201  -0.051018  -0.028992  -0.006232   0.001583
    13  H    0.347495  -0.097329  -0.007064   0.002108   0.000106   0.000005
    14  H   -0.001595  -0.040905   0.378358  -0.035306  -0.007632   0.000419
    15  H    0.002408  -0.029129  -0.038678   0.388952  -0.059419  -0.013260
    16  H   -0.000032  -0.000130  -0.006063  -0.039140   0.382974  -0.037770
    17  H    0.000005  -0.000103   0.001766  -0.015427  -0.047038   0.387414
    18  H    0.000000   0.000000   0.000020  -0.000230   0.001528  -0.001892
    19  H    0.000000   0.000000   0.000001   0.000009   0.000245   0.003742
    20  H   -0.000000   0.000001  -0.000049   0.000032   0.004047  -0.008848
    21  H   -0.000000  -0.000000  -0.000000  -0.000008  -0.000066   0.002335
    22  H    0.000000   0.000001  -0.000011  -0.000122   0.000890   0.003608
    23  H    0.000002   0.001247  -0.000138  -0.000094   0.000437   0.002161
    24  H    0.000912  -0.042798   0.004259   0.001789   0.000157  -0.000079
               7          8          9         10         11         12
     1  N    0.000000  -0.000000   0.000000  -0.000000   0.000138  -0.015891
     2  C    0.000049  -0.000004  -0.000001  -0.000432  -0.011502   0.345201
     3  C    0.000089  -0.000053   0.000086   0.000578  -0.002482  -0.051018
     4  C    0.003670  -0.000063   0.000226   0.000863  -0.008182  -0.028992
     5  C   -0.039652  -0.004693  -0.010595  -0.000514   0.007508  -0.006232
     6  C    0.367503  -0.033271  -0.035424  -0.099530   0.000855   0.001583
     7  C    4.622805   0.284774   0.357662   0.356392  -0.034164   0.000512
     8  C    0.284774   5.090850   0.283476  -0.011868   0.001822  -0.000005
     9  C    0.357662   0.283476   5.018661  -0.025572   0.000846   0.000021
    10  N    0.356392  -0.011868  -0.025572   6.683010   0.302372  -0.011237
    11  C   -0.034164   0.001822   0.000846   0.302372   5.001244   0.537186
    12  C    0.000512  -0.000005   0.000021  -0.011237   0.537186   5.108917
    13  H   -0.000000  -0.000000  -0.000000  -0.000000  -0.000011   0.003200
    14  H    0.000020  -0.000001  -0.000000   0.000002  -0.000027   0.002032
    15  H    0.001373  -0.000091   0.000014   0.000106  -0.004957   0.009127
    16  H   -0.011972  -0.000084   0.003606  -0.000134   0.000258  -0.000170
    17  H   -0.050580  -0.006176   0.006346  -0.016479   0.003020  -0.000555
    18  H   -0.019262   0.372416  -0.020784   0.001244  -0.000010  -0.000006
    19  H   -0.014373   0.351239  -0.017929  -0.001060  -0.000015   0.000001
    20  H   -0.018014  -0.017283   0.368970   0.001170   0.000036  -0.000010
    21  H   -0.004155  -0.027251   0.377473  -0.001382   0.000022   0.000001
    22  H   -0.045050  -0.004760   0.004202   0.315081  -0.029806  -0.000103
    23  H    0.002537  -0.000077  -0.000108  -0.035999   0.350362  -0.040871
    24  H   -0.000019   0.000001   0.000000   0.001181  -0.034856   0.338599
              13         14         15         16         17         18
     1  N    0.347495  -0.001595   0.002408  -0.000032   0.000005   0.000000
     2  C   -0.097329  -0.040905  -0.029129  -0.000130  -0.000103   0.000000
     3  C   -0.007064   0.378358  -0.038678  -0.006063   0.001766   0.000020
     4  C    0.002108  -0.035306   0.388952  -0.039140  -0.015427  -0.000230
     5  C    0.000106  -0.007632  -0.059419   0.382974  -0.047038   0.001528
     6  C    0.000005   0.000419  -0.013260  -0.037770   0.387414  -0.001892
     7  C   -0.000000   0.000020   0.001373  -0.011972  -0.050580  -0.019262
     8  C   -0.000000  -0.000001  -0.000091  -0.000084  -0.006176   0.372416
     9  C   -0.000000  -0.000000   0.000014   0.003606   0.006346  -0.020784
    10  N   -0.000000   0.000002   0.000106  -0.000134  -0.016479   0.001244
    11  C   -0.000011  -0.000027  -0.004957   0.000258   0.003020  -0.000010
    12  C    0.003200   0.002032   0.009127  -0.000170  -0.000555  -0.000006
    13  H    0.507289   0.001451  -0.000054  -0.000005  -0.000000   0.000000
    14  H    0.001451   0.584865   0.005702   0.001325  -0.000016   0.000000
    15  H   -0.000054   0.005702   0.619682   0.003610   0.001648  -0.000005
    16  H   -0.000005   0.001325   0.003610   0.585506   0.005275   0.000323
    17  H   -0.000000  -0.000016   0.001648   0.005275   0.626808   0.001844
    18  H    0.000000   0.000000  -0.000005   0.000323   0.001844   0.579549
    19  H   -0.000000   0.000000   0.000004  -0.000021  -0.000072  -0.048870
    20  H    0.000000  -0.000004  -0.000004   0.003968  -0.000123  -0.008881
    21  H   -0.000000  -0.000000   0.000000  -0.000023  -0.000074   0.003636
    22  H    0.000000  -0.000000  -0.000156   0.000011   0.003321   0.000027
    23  H    0.000001   0.000001   0.000043   0.000003   0.000049   0.000000
    24  H   -0.000517  -0.000047   0.000718   0.000007   0.000031   0.000000
              19         20         21         22         23         24
     1  N    0.000000  -0.000000  -0.000000   0.000000   0.000002   0.000912
     2  C    0.000000   0.000001  -0.000000   0.000001   0.001247  -0.042798
     3  C    0.000001  -0.000049  -0.000000  -0.000011  -0.000138   0.004259
     4  C    0.000009   0.000032  -0.000008  -0.000122  -0.000094   0.001789
     5  C    0.000245   0.004047  -0.000066   0.000890   0.000437   0.000157
     6  C    0.003742  -0.008848   0.002335   0.003608   0.002161  -0.000079
     7  C   -0.014373  -0.018014  -0.004155  -0.045050   0.002537  -0.000019
     8  C    0.351239  -0.017283  -0.027251  -0.004760  -0.000077   0.000001
     9  C   -0.017929   0.368970   0.377473   0.004202  -0.000108   0.000000
    10  N   -0.001060   0.001170  -0.001382   0.315081  -0.035999   0.001181
    11  C   -0.000015   0.000036   0.000022  -0.029806   0.350362  -0.034856
    12  C    0.000001  -0.000010   0.000001  -0.000103  -0.040871   0.338599
    13  H   -0.000000   0.000000  -0.000000   0.000000   0.000001  -0.000517
    14  H    0.000000  -0.000004  -0.000000  -0.000000   0.000001  -0.000047
    15  H    0.000004  -0.000004   0.000000  -0.000156   0.000043   0.000718
    16  H   -0.000021   0.003968  -0.000023   0.000011   0.000003   0.000007
    17  H   -0.000072  -0.000123  -0.000074   0.003321   0.000049   0.000031
    18  H   -0.048870  -0.008881   0.003636   0.000027   0.000000   0.000000
    19  H    0.618105   0.001687  -0.006387   0.000534  -0.000002  -0.000000
    20  H    0.001687   0.604034  -0.046137  -0.000087   0.000001  -0.000000
    21  H   -0.006387  -0.046137   0.563767   0.000055  -0.000001   0.000000
    22  H    0.000534  -0.000087   0.000055   0.503743   0.002173  -0.000114
    23  H   -0.000002   0.000001  -0.000001   0.002173   0.571966  -0.005420
    24  H   -0.000000  -0.000000   0.000000  -0.000114  -0.005420   0.577655
 Mulliken charges:
               1
     1  N   -0.453532
     2  C    0.204323
     3  C   -0.196687
     4  C   -0.083921
     5  C   -0.111617
     6  C   -0.017481
     7  C    0.239856
     8  C   -0.278899
     9  C   -0.311176
    10  N   -0.457790
    11  C   -0.079657
    12  C   -0.191288
    13  H    0.243324
    14  H    0.111359
    15  H    0.112365
    16  H    0.108677
    17  H    0.099115
    18  H    0.139354
    19  H    0.113162
    20  H    0.115493
    21  H    0.138194
    22  H    0.246563
    23  H    0.151725
    24  H    0.158540
 Sum of Mulliken charges =  -0.00000
 Mulliken charges with hydrogens summed into heavy atoms:
               1
     1  N   -0.210208
     2  C    0.204323
     3  C   -0.085328
     4  C    0.028444
     5  C   -0.002940
     6  C    0.081634
     7  C    0.239856
     8  C   -0.026383
     9  C   -0.057489
    10  N   -0.211227
    11  C    0.072068
    12  C   -0.032748
 Electronic spatial extent (au):  <R**2>=           2278.5865
 Charge=             -0.0000 electrons
 Dipole moment (field-independent basis, Debye):
    X=             -3.8799    Y=             -0.6534    Z=             -0.6628  Tot=              3.9900
 Quadrupole moment (field-independent basis, Debye-Ang):
   XX=            -78.4580   YY=            -67.2520   ZZ=            -70.9436
   XY=             -3.0416   XZ=              1.3500   YZ=             -5.9679
 Traceless Quadrupole moment (field-independent basis, Debye-Ang):
   XX=             -6.2402   YY=              4.9659   ZZ=              1.2743
   XY=             -3.0416   XZ=              1.3500   YZ=             -5.9679
 Octapole moment (field-independent basis, Debye-Ang**2):
  XXX=            -92.1920  YYY=              6.6493  ZZZ=             -0.5852  XYY=              6.6430
  XXY=            -26.7609  XXZ=             -1.3736  XZZ=             -5.4413  YZZ=             -1.7448
  YYZ=             -0.4782  XYZ=             -0.3870
 Hexadecapole moment (field-independent basis, Debye-Ang**3):
 XXXX=          -2488.9556 YYYY=           -601.3168 ZZZZ=           -194.5455 XXXY=           -104.5952
 XXXZ=             -5.8792 YYYX=            -13.6171 YYYZ=            -24.4390 ZZZX=             -2.3991
 ZZZY=            -11.7159 XXYY=           -451.4201 XXZZ=           -402.9639 YYZZ=           -138.0090
 XXYZ=            -24.3654 YYXZ=             16.5962 ZZXY=             -4.2014
 N-N= 6.525994280866D+02 E-N=-2.458865136451D+03  KE= 4.931328770375D+02
 PrsmSu:  requested number of processors reduced to:  13 ShMem   1 Linda.
 Calling FoFJK, ICntrl=      2127 FMM=F ISym2X=0 I1Cent= 0 IOpClX= 0 NMat=1 NMatS=1 NMatT=0.
 ***** Axes restored to original set *****
 -------------------------------------------------------------------
 Center     Atomic                   Forces (Hartrees/Bohr)
 Number     Number              X              Y              Z
 -------------------------------------------------------------------
      1        7           0.038744665    0.037031106   -0.010296417
      2        6          -0.066183396    0.000616320   -0.005084708
      3        6           0.054642988    0.011464748    0.019730460
      4        6          -0.045455231   -0.026997910   -0.007121057
      5        6           0.029184960   -0.026462189    0.040017290
      6        6          -0.052821722   -0.008482604   -0.000984500
      7        6           0.043852387    0.008971721   -0.024061951
      8        6           0.014579517   -0.033947674    0.009973981
      9        6          -0.023546717   -0.001254882    0.005188310
     10        7           0.007713290    0.001147284   -0.003634788
     11        6          -0.031485281   -0.003934093    0.008781881
     12        6           0.009617893    0.003188731    0.014926898
     13        1           0.033278898    0.018113654   -0.007456014
     14        1          -0.007313077   -0.007730862   -0.015143359
     15        1          -0.009301548   -0.018038906    0.002148161
     16        1          -0.007451634   -0.000981280    0.005185611
     17        1          -0.006929306   -0.016683546    0.006007193
     18        1           0.008736073    0.020427040   -0.000475126
     19        1           0.016193393    0.007656855   -0.008084533
     20        1          -0.001426460    0.001178173    0.002174935
     21        1           0.007415795    0.023024954   -0.000159415
     22        1          -0.013415990    0.008413282   -0.018201107
     23        1          -0.018016354    0.014890648    0.016331963
     24        1           0.019386857   -0.011610571   -0.029763705
 -------------------------------------------------------------------
 Cartesian Forces:  Max     0.066183396 RMS     0.021352923

 GradGradGradGradGradGradGradGradGradGradGradGradGradGradGradGradGradGrad
 Berny optimization.
 FormGI is forming the generalized inverse of G from B-inverse, IUseBI=4.
 Internal  Forces:  Max     0.108597717 RMS     0.024992105
 Search for a local minimum.
 Step number   1 out of a maximum of  129
 All quantities printed in internal units (Hartrees-Bohrs-Radians)
 Mixed Optimization -- RFO/linear search
 Second derivative matrix not updated -- first step.
 ITU=  0
     Eigenvalues ---    0.00275   0.00548   0.00700   0.00757   0.01071
     Eigenvalues ---    0.01246   0.01780   0.02078   0.02258   0.02384
     Eigenvalues ---    0.02485   0.02664   0.02804   0.02839   0.02867
     Eigenvalues ---    0.02952   0.03050   0.03219   0.03836   0.03960
     Eigenvalues ---    0.05333   0.07815   0.09777   0.10360   0.11157
     Eigenvalues ---    0.12681   0.13192   0.14457   0.14770   0.14937
     Eigenvalues ---    0.15391   0.15753   0.15980   0.16000   0.16000
     Eigenvalues ---    0.16348   0.19014   0.19483   0.20558   0.21523
     Eigenvalues ---    0.22319   0.23412   0.24751   0.24960   0.25491
     Eigenvalues ---    0.28018   0.30409   0.30938   0.32211   0.33115
     Eigenvalues ---    0.33286   0.33703   0.34718   0.34723   0.34989
     Eigenvalues ---    0.35784   0.35998   0.37202   0.38511   0.38993
     Eigenvalues ---    0.40221   0.45926   0.48125   0.54466   0.57761
     Eigenvalues ---    0.63638
 RFO step:  Lambda=-1.89728239D-01 EMin= 2.75486523D-03
 Linear search not attempted -- first point.
 Maximum step size (   0.300) exceeded in Quadratic search.
    -- Step size scaled by   0.526
 Iteration  1 RMS(Cart)=  0.11536004 RMS(Int)=  0.00413533
 Iteration  2 RMS(Cart)=  0.00725234 RMS(Int)=  0.00051433
 Iteration  3 RMS(Cart)=  0.00001200 RMS(Int)=  0.00051429
 Iteration  4 RMS(Cart)=  0.00000001 RMS(Int)=  0.00051429
 Variable       Old X    -DE/DX   Delta X   Delta X   Delta X     New X
                                 (Linear)    (Quad)   (Total)
    R1        2.48172  -0.02876   0.00000  -0.01831  -0.01831   2.46341
    R2        2.02242  -0.03828   0.00000  -0.03584  -0.03584   1.98658
    R3        2.73144   0.06317   0.00000   0.05819   0.05804   2.78948
    R4        3.46313  -0.03747   0.00000  -0.07309  -0.07335   3.38978
    R5        2.53747   0.02510   0.00000   0.02183   0.02201   2.55947
    R6        1.99646   0.01667   0.00000   0.01513   0.01513   2.01158
    R7        2.61771   0.03430   0.00000   0.03172   0.03177   2.64948
    R8        2.07833  -0.01576   0.00000  -0.01573  -0.01573   2.06260
    R9        2.52141   0.01244   0.00000   0.01282   0.01308   2.53449
   R10        2.04421  -0.00159   0.00000  -0.00152  -0.00152   2.04268
   R11        2.61634   0.07491   0.00000   0.06397   0.06413   2.68048
   R12        2.06136  -0.00842   0.00000  -0.00825  -0.00825   2.05311
   R13        2.91205   0.00179   0.00000   0.00189   0.00197   2.91402
   R14        2.88743  -0.02378   0.00000  -0.02967  -0.02954   2.85789
   R15        2.91876  -0.00059   0.00000  -0.00101  -0.00087   2.91789
   R16        2.83343   0.01420   0.00000   0.01839   0.01819   2.85161
   R17        2.10459  -0.01612   0.00000  -0.01656  -0.01656   2.08803
   R18        2.04084   0.00765   0.00000   0.00732   0.00732   2.04816
   R19        2.06128   0.00017   0.00000   0.00016   0.00016   2.06144
   R20        2.05692  -0.00223   0.00000  -0.00217  -0.00217   2.05475
   R21        3.17783  -0.02489   0.00000  -0.04405  -0.04415   3.13369
   R22        1.97954  -0.02131   0.00000  -0.01894  -0.01894   1.96060
   R23        2.80708  -0.07722   0.00000  -0.08464  -0.08483   2.72225
   R24        2.08851  -0.01114   0.00000  -0.01125  -0.01125   2.07726
   R25        2.12831  -0.02182   0.00000  -0.02299  -0.02299   2.10532
    A1        1.90916  -0.01006   0.00000  -0.01512  -0.01512   1.89404
    A2        1.88075   0.10860   0.00000   0.12817   0.12875   2.00950
    A3        2.39120  -0.09863   0.00000  -0.11966  -0.11921   2.27199
    A4        2.00977  -0.00980   0.00000  -0.00778  -0.00888   2.00089
    A5        1.73243   0.04300   0.00000   0.07539   0.07550   1.80793
    A6        2.23135  -0.02623   0.00000  -0.04380  -0.04391   2.18744
    A7        2.26373  -0.01959   0.00000  -0.03439  -0.03449   2.22924
    A8        1.97392   0.03908   0.00000   0.05593   0.05457   2.02850
    A9        2.03892  -0.02622   0.00000  -0.03589  -0.03505   2.00387
   A10        2.08039  -0.02125   0.00000  -0.03142  -0.03090   2.04948
   A11        1.83494  -0.01497   0.00000  -0.00352  -0.00362   1.83132
   A12        2.23483  -0.00565   0.00000  -0.02049  -0.02208   2.21276
   A13        2.12298   0.00193   0.00000  -0.00800  -0.00939   2.11359
   A14        2.14091   0.01180   0.00000   0.02420   0.02336   2.16427
   A15        2.12487  -0.01385   0.00000  -0.02454  -0.02397   2.10090
   A16        1.93938  -0.00375   0.00000  -0.00788  -0.00782   1.93156
   A17        1.74148   0.01233   0.00000   0.01993   0.02130   1.76279
   A18        2.20233  -0.00720   0.00000  -0.02075  -0.02099   2.18134
   A19        1.66683   0.01101   0.00000   0.02902   0.02958   1.69641
   A20        2.55929  -0.02344   0.00000  -0.04274  -0.04350   2.51579
   A21        2.28063  -0.00829   0.00000  -0.01520  -0.01574   2.26489
   A22        2.02385   0.00144   0.00000  -0.00139  -0.00146   2.02240
   A23        2.33755  -0.00821   0.00000  -0.01663  -0.01657   2.32099
   A24        1.98330   0.00269   0.00000   0.00738   0.00715   1.99045
   A25        2.13061   0.00530   0.00000   0.00353   0.00323   2.13384
   A26        1.82442   0.00679   0.00000   0.01572   0.01564   1.84006
   A27        2.06201   0.00640   0.00000   0.00734   0.00716   2.06916
   A28        2.27311  -0.01722   0.00000  -0.02808  -0.02820   2.24491
   A29        2.05311   0.01791   0.00000   0.02704   0.02722   2.08033
   A30        1.97725  -0.01748   0.00000  -0.02179  -0.02220   1.95506
   A31        1.88084   0.00806   0.00000   0.01417   0.01421   1.89505
   A32        2.14513   0.02166   0.00000   0.03227   0.03170   2.17683
   A33        1.83792   0.00472   0.00000   0.00804   0.00805   1.84597
   A34        1.77845  -0.01046   0.00000  -0.01140  -0.01188   1.76657
   A35        2.63656   0.02657   0.00000   0.02686   0.02608   2.66264
   A36        1.52460   0.01101   0.00000   0.02325   0.02366   1.54826
   A37        2.11872  -0.03736   0.00000  -0.04989  -0.04951   2.06921
   A38        2.56931   0.01641   0.00000   0.01313   0.01205   2.58137
   A39        1.63969   0.01602   0.00000   0.03150   0.03192   1.67161
   A40        2.04038  -0.02939   0.00000  -0.03759  -0.03741   2.00296
    D1       -0.03416   0.00201   0.00000   0.00710   0.00689  -0.02726
    D2       -3.11173  -0.00374   0.00000  -0.01128  -0.01107  -3.12280
    D3       -2.46042  -0.00203   0.00000   0.00181   0.00014  -2.46028
    D4        1.01026   0.00683   0.00000   0.01135   0.01052   1.02078
    D5        0.63296  -0.00259   0.00000   0.00962   0.00964   0.64260
    D6       -2.17955   0.00627   0.00000   0.01917   0.02002  -2.15952
    D7        3.13938   0.00753   0.00000   0.02271   0.02191  -3.12189
    D8        0.33191  -0.00045   0.00000  -0.00495  -0.00607   0.32584
    D9        0.06515  -0.00117   0.00000   0.00036   0.00042   0.06557
   D10       -2.74233  -0.00914   0.00000  -0.02731  -0.02755  -2.76988
   D11       -2.12901   0.02405   0.00000   0.03445   0.03550  -2.09351
   D12        0.38576   0.00487   0.00000   0.00747   0.00795   0.39371
   D13        0.67448   0.01349   0.00000   0.02269   0.02301   0.69748
   D14       -3.09393  -0.00570   0.00000  -0.00428  -0.00454  -3.09848
   D15        2.60837  -0.06167   0.00000  -0.10978  -0.10973   2.49865
   D16       -0.08606  -0.01840   0.00000  -0.03444  -0.03471  -0.12077
   D17        0.10985  -0.04079   0.00000  -0.08143  -0.08095   0.02890
   D18       -2.58458   0.00249   0.00000  -0.00609  -0.00593  -2.59052
   D19       -2.57066   0.04718   0.00000   0.08174   0.08263  -2.48803
   D20        0.11982   0.03028   0.00000   0.05713   0.05786   0.17768
   D21        0.15945   0.00535   0.00000   0.00834   0.00875   0.16820
   D22        2.84993  -0.01154   0.00000  -0.01628  -0.01602   2.83391
   D23       -1.72015  -0.03580   0.00000  -0.06134  -0.06049  -1.78064
   D24       -0.70913  -0.01226   0.00000  -0.02512  -0.02494  -0.73407
   D25        1.94100  -0.02111   0.00000  -0.03792  -0.03821   1.90279
   D26        1.83016  -0.01760   0.00000  -0.03408  -0.03307   1.79709
   D27        2.84118   0.00593   0.00000   0.00214   0.00248   2.84366
   D28       -0.79188  -0.00292   0.00000  -0.01065  -0.01079  -0.80267
   D29        0.40179  -0.01680   0.00000  -0.04434  -0.04421   0.35758
   D30       -2.19747  -0.01945   0.00000  -0.04387  -0.04356  -2.24103
   D31        2.42672   0.00571   0.00000   0.01045   0.01014   2.43686
   D32       -0.17254   0.00305   0.00000   0.01092   0.01079  -0.16175
   D33        0.51406  -0.01207   0.00000  -0.02532  -0.02530   0.48876
   D34       -3.06463  -0.01796   0.00000  -0.04124  -0.04136  -3.10599
   D35       -1.95965  -0.00548   0.00000  -0.01898  -0.01910  -1.97875
   D36        0.74485  -0.01137   0.00000  -0.03489  -0.03516   0.70969
   D37       -0.50819   0.00614   0.00000   0.00522   0.00573  -0.50246
   D38        1.50896   0.00941   0.00000   0.01656   0.01676   1.52572
   D39       -2.55314  -0.01734   0.00000  -0.04814  -0.04727  -2.60041
   D40       -0.53598  -0.01407   0.00000  -0.03681  -0.03625  -0.57223
   D41        2.10728  -0.00239   0.00000  -0.00989  -0.00971   2.09757
   D42       -2.15876   0.00088   0.00000   0.00145   0.00132  -2.15744
   D43       -0.02015  -0.00459   0.00000  -0.00860  -0.00867  -0.02883
   D44       -2.23481  -0.01597   0.00000  -0.03321  -0.03306  -2.26787
   D45        2.19098   0.01432   0.00000   0.02759   0.02751   2.21849
   D46       -0.02367   0.00294   0.00000   0.00298   0.00312  -0.02055
   D47        0.01152   0.00289   0.00000  -0.00156  -0.00161   0.00992
   D48       -3.02198   0.00312   0.00000  -0.00104  -0.00148  -3.02347
   D49       -2.03462  -0.00695   0.00000  -0.02104  -0.02062  -2.05524
   D50        1.21506  -0.00672   0.00000  -0.02052  -0.02050   1.19456
   D51       -0.10088  -0.00088   0.00000  -0.00342  -0.00346  -0.10434
   D52        2.66507   0.01450   0.00000   0.03639   0.03565   2.70072
   D53        2.91413   0.00169   0.00000  -0.00028  -0.00012   2.91401
   D54       -0.60310   0.01707   0.00000   0.03953   0.03899  -0.56411
         Item               Value     Threshold  Converged?
 Maximum Force            0.108598     0.000450     NO 
 RMS     Force            0.024992     0.000300     NO 
 Maximum Displacement     0.589789     0.001800     NO 
 RMS     Displacement     0.113667     0.001200     NO 
 Predicted change in Energy=-8.756680D-02
 GradGradGradGradGradGradGradGradGradGradGradGradGradGradGradGradGradGrad

                          Input orientation:                          
 ---------------------------------------------------------------------
 Center     Atomic      Atomic             Coordinates (Angstroms)
 Number     Number       Type             X           Y           Z
 ---------------------------------------------------------------------
      1          7           0        2.561303    0.733997   -0.364554
      2          6           0        3.477784   -0.168983   -0.574358
      3          6           0        3.016581   -1.567125   -0.467342
      4          6           0        4.046829   -2.195847    0.147261
      5          6           0        4.644972   -3.245633   -0.564002
      6          6           0        5.952112   -3.156564   -0.277204
      7          6           0        6.988413   -3.410496   -1.211867
      8          6           0        7.428459   -4.825729   -0.786018
      9          6           0        6.999197   -4.549975   -2.206159
     10          7           0        7.461078   -1.949978   -1.378172
     11          6           0        6.491682   -0.616915   -1.196254
     12          6           0        5.229652    0.016924   -0.912142
     13          1           0        1.647870    0.246613   -0.182252
     14          1           0        2.239451   -2.005159   -1.048135
     15          1           0        4.702638   -1.542590    0.725625
     16          1           0        4.306069   -3.669880   -1.498665
     17          1           0        6.298186   -2.489247    0.507216
     18          1           0        6.692709   -5.402754   -0.197294
     19          1           0        8.392675   -5.259118   -0.546907
     20          1           0        6.044793   -4.942860   -2.559352
     21          1           0        7.770771   -4.816823   -2.924314
     22          1           0        8.161989   -1.793514   -0.629400
     23          1           0        7.324740    0.006458   -1.550856
     24          1           0        5.307155    1.060926   -0.531035
 ---------------------------------------------------------------------
                    Distance matrix (angstroms):
                    1          2          3          4          5
     1  N    0.000000
     2  C    1.303583   0.000000
     3  C    2.347980   1.476131   0.000000
     4  C    3.324565   2.225472   1.354414   0.000000
     5  C    4.496545   3.290625   2.340596   1.402042   0.000000
     6  C    5.161559   3.890533   3.343622   2.175604   1.341194
     7  C    6.123240   4.820616   4.441596   3.460566   2.436929
     8  C    7.401176   6.110476   5.494062   4.384371   3.208394
     9  C    7.141903   5.852881   5.270873   4.449380   3.152834
    10  N    5.677935   4.436744   4.552993   3.747599   3.205004
    11  C    4.238463   3.109820   3.675668   3.205521   3.274178
    12  C    2.816760   1.793795   2.757670   2.723557   3.332767
    13  H    1.051255   1.917042   2.290042   3.439359   4.617806
    14  H    2.841452   2.264834   1.064484   2.175304   2.749489
    15  H    3.310084   2.253224   2.065565   1.091483   2.137012
    16  H    4.870786   3.714388   2.673571   2.224646   1.080942
    17  H    5.011345   3.808949   3.545279   2.298752   2.110153
    18  H    7.399744   6.153883   5.319670   4.171768   2.996810
    19  H    8.363945   7.075760   6.522233   5.362077   4.254373
    20  H    7.012742   5.772316   4.994212   4.343235   2.970100
    21  H    8.031347   6.749404   6.260956   5.492889   4.220229
    22  H    6.150297   4.958217   5.152935   4.207092   3.805567
    23  H    4.962556   3.972833   4.712791   4.298657   4.327949
    24  H    2.770253   2.204802   3.486752   3.557398   4.357296
                    6          7          8          9         10
     6  C    0.000000
     7  C    1.418448   0.000000
     8  C    2.285739   1.542035   0.000000
     9  C    2.599778   1.512331   1.509008   0.000000
    10  N    2.223726   1.544080   2.936266   2.767468   0.000000
    11  C    2.754198   2.837443   4.331277   4.092241   1.658276
    12  C    3.316040   3.863972   5.319958   5.065801   3.010839
    13  H    5.487908   6.554078   7.714168   7.465933   6.328398
    14  H    3.962817   4.955241   5.911863   5.520171   5.232338
    15  H    2.274151   3.530965   4.527048   4.786846   3.492981
    16  H    2.113036   2.710074   3.404875   2.920283   3.595368
    17  H    1.086460   2.068903   2.899849   3.478566   2.279872
    18  H    2.366482   2.255192   1.104935   2.203793   3.729146
    19  H    3.232618   2.414855   1.083841   2.279863   3.536846
    20  H    2.899593   2.248171   2.252324   1.090867   3.515451
    21  H    3.615407   2.349961   2.165541   1.087328   3.271890
    22  H    2.620211   2.081149   3.123608   3.381764   1.037505
    23  H    3.675732   3.450160   4.893441   4.614811   1.968768
    24  H    4.274064   4.825326   6.262400   6.095183   3.797706
                   11         12         13         14         15
    11  C    0.000000
    12  C    1.440552   0.000000
    13  H    5.023583   3.662603   0.000000
    14  H    4.475559   3.612287   2.483989   0.000000
    15  H    2.784092   2.322091   3.654736   3.070421   0.000000
    16  H    3.766823   3.845717   4.913031   2.691687   3.103240
    17  H    2.538676   3.072008   5.439277   4.373418   1.868056
    18  H    4.893116   5.659015   7.574032   5.665605   4.439935
    19  H    5.058209   6.162364   8.714266   6.978655   5.389646
    20  H    4.557581   5.289349   7.205148   5.039294   4.914701
    21  H    4.718208   5.819900   8.405189   6.482361   5.784124
    22  H    2.120291   3.457778   6.840746   5.941093   3.723730
    23  H    1.099237   2.190310   5.844451   5.491766   3.802280
    24  H    2.158882   1.114086   3.764986   4.367960   2.953461
                   16         17         18         19         20
    16  H    0.000000
    17  H    3.063656   0.000000
    18  H    3.223736   3.023327   0.000000
    19  H    4.486855   3.629083   1.741478   0.000000
    20  H    2.401811   3.935513   2.492111   3.108456   0.000000
    21  H    3.918178   4.400172   2.990347   2.496888   1.768639
    22  H    4.375442   2.291223   3.920729   3.474253   4.257419
    23  H    4.757159   3.393821   5.611699   5.465774   5.210670
    24  H    4.931430   3.829339   6.618935   7.033039   6.379939
                   21         22         23         24
    21  H    0.000000
    22  H    3.815767   0.000000
    23  H    5.034816   2.188599   0.000000
    24  H    6.807725   4.038265   2.494512   0.000000
 Stoichiometry    C10H12N2
 Framework group  C1[X(C10H12N2)]
 Deg. of freedom    66
 Full point group                 C1      NOp   1
 Largest Abelian subgroup         C1      NOp   1
 Largest concise Abelian subgroup C1      NOp   1
                         Standard orientation:                         
 ---------------------------------------------------------------------
 Center     Atomic      Atomic             Coordinates (Angstroms)
 Number     Number       Type             X           Y           Z
 ---------------------------------------------------------------------
      1          7           0        4.043458    0.004672    0.165154
      2          6           0        2.740040    0.024553    0.171168
      3          6           0        2.092916   -1.301520    0.212695
      4          6           0        1.030167   -1.163008   -0.615445
      5          6           0       -0.232685   -1.370209   -0.042739
      6          6           0       -1.032970   -0.472898   -0.637028
      7          6           0       -2.074298    0.224201    0.027564
      8          6           0       -3.309824   -0.561482   -0.456225
      9          6           0       -3.036175   -0.392798    1.018145
     10          7           0       -1.400357    1.613391    0.039274
     11          6           0        0.238055    1.868247    0.062357
     12          6           0        1.603322    1.408787    0.073850
     13          1           0        4.362416   -0.995548    0.219582
     14          1           0        2.234764   -2.032161    0.973727
     15          1           0        1.123538   -0.361414   -1.350336
     16          1           0       -0.439591   -1.727700    0.956174
     17          1           0       -0.683125    0.090062   -1.497888
     18          1           0       -3.114774   -1.580367   -0.836634
     19          1           0       -4.247032   -0.259192   -0.908965
     20          1           0       -2.704585   -1.254073    1.599735
     21          1           0       -3.869633    0.075119    1.536492
     22          1           0       -1.661592    2.061041   -0.859493
     23          1           0        0.044062    2.942550    0.191056
     24          1           0        2.342554    2.132006   -0.340491
 ---------------------------------------------------------------------
 Rotational constants (GHZ):           2.1106846           0.5781562           0.4880319
 Standard basis: 6-31G(2df,p) (6D, 7F)
 There are   432 symmetry adapted cartesian basis functions of A   symmetry.
 There are   396 symmetry adapted basis functions of A   symmetry.
   396 basis functions,   612 primitive gaussians,   432 cartesian basis functions
    43 alpha electrons       43 beta electrons
       nuclear repulsion energy       648.7856612142 Hartrees.
 NAtoms=   24 NActive=   24 NUniq=   24 SFac= 1.00D+00 NAtFMM=   60 NAOKFM=F Big=F
 Integral buffers will be    131072 words long.
 Raffenetti 2 integral format.
 Two-electron integral symmetry is turned on.
 One-electron integrals computed using PRISM.
 PrsmSu:  requested number of processors reduced to:  13 ShMem   1 Linda.
 NBasis=   396 RedAO= T EigKep=  3.44D-04  NBF=   396
 NBsUse=   396 1.00D-06 EigRej= -1.00D+00 NBFU=   396
 Initial guess from the checkpoint file:  "NdC1CdCCdCC2qCC2rNCdC1.chk"
 B after Tr=    -0.000000    0.000000    0.000000
         Rot=    0.999872    0.014152   -0.001579    0.007241 Ang=   1.83 deg.
 ExpMin= 1.61D-01 ExpMax= 4.17D+03 ExpMxC= 6.27D+02 IAcc=2 IRadAn=         4 AccDes= 0.00D+00
 Harris functional with IExCor=  402 and IRadAn=       4 diagonalized for initial guess.
 HarFok:  IExCor=  402 AccDes= 0.00D+00 IRadAn=         4 IDoV= 1 UseB2=F ITyADJ=14
 ICtDFT=  3500011 ScaDFX=  1.000000  1.000000  1.000000  1.000000
 FoFCou: FMM=F IPFlag=           0 FMFlag=      100000 FMFlg1=           0
         NFxFlg=           0 DoJE=T BraDBF=F KetDBF=T FulRan=T
         wScrn=  0.000000 ICntrl=       500 IOpCl=  0 I1Cent=   200000004 NGrid=           0
         NMat0=    1 NMatS0=      1 NMatT0=    0 NMatD0=    1 NMtDS0=    0 NMtDT0=    0
 Petite list used in FoFCou.
 Requested convergence on RMS density matrix=1.00D-08 within 128 cycles.
 Requested convergence on MAX density matrix=1.00D-06.
 Requested convergence on             energy=1.00D-06.
 No special actions if energy rises.
 Integral accuracy reduced to 1.0D-05 until final iterations.
 Initial convergence to 1.0D-05 achieved.  Increase integral accuracy.
 SCF Done:  E(RB3LYP) =  -497.414427000     A.U. after   15 cycles
            NFock= 15  Conv=0.28D-08     -V/T= 2.0090
 PrsmSu:  requested number of processors reduced to:  13 ShMem   1 Linda.
 Calling FoFJK, ICntrl=      2127 FMM=F ISym2X=0 I1Cent= 0 IOpClX= 0 NMat=1 NMatS=1 NMatT=0.
 ***** Axes restored to original set *****
 -------------------------------------------------------------------
 Center     Atomic                   Forces (Hartrees/Bohr)
 Number     Number              X              Y              Z
 -------------------------------------------------------------------
      1        7           0.039698626    0.011471489   -0.013476482
      2        6          -0.033645876   -0.007578378    0.002024241
      3        6           0.044257044    0.016889494    0.019010345
      4        6          -0.045526095   -0.006885383   -0.019854256
      5        6           0.025505124   -0.014531515    0.034660698
      6        6          -0.036032720   -0.012492113   -0.015369527
      7        6           0.019805595    0.016664571   -0.005282270
      8        6           0.014740026   -0.024666452    0.005214640
      9        6          -0.016907134   -0.006352813    0.004754061
     10        7          -0.002591907   -0.000767163   -0.001229320
     11        6          -0.015278985   -0.008319801    0.003098279
     12        6          -0.007426532    0.000193152    0.018638933
     13        1           0.023207457    0.008476282   -0.004594905
     14        1          -0.004938011   -0.004657201   -0.012298499
     15        1          -0.006623070   -0.012584815    0.004281532
     16        1          -0.008107341   -0.002871601    0.004612204
     17        1          -0.002307687   -0.014072104    0.006337636
     18        1           0.003968570    0.017345776    0.001488826
     19        1           0.011438172    0.009504626   -0.009808951
     20        1          -0.000645162   -0.000234350    0.003489031
     21        1           0.004480636    0.021891362   -0.001199164
     22        1          -0.008702639    0.006848883   -0.013917459
     23        1          -0.012484514    0.013391804    0.016029810
     24        1           0.014116423   -0.006663747   -0.026609401
 -------------------------------------------------------------------
 Cartesian Forces:  Max     0.045526095 RMS     0.016234960

 GradGradGradGradGradGradGradGradGradGradGradGradGradGradGradGradGradGrad
 Berny optimization.
 Using GEDIIS/GDIIS optimizer.
 FormGI is forming the generalized inverse of G from B-inverse, IUseBI=4.
 Internal  Forces:  Max     0.071631801 RMS     0.017839198
 Search for a local minimum.
 Step number   2 out of a maximum of  129
 All quantities printed in internal units (Hartrees-Bohrs-Radians)
 Mixed Optimization -- RFO/linear search
 Update second derivatives using D2CorX and points    1    2
 DE= -8.56D-02 DEPred=-8.76D-02 R= 9.77D-01
 TightC=F SS=  1.41D+00  RLast= 3.85D-01 DXNew= 5.0454D-01 1.1552D+00
 Trust test= 9.77D-01 RLast= 3.85D-01 DXMaxT set to 5.05D-01
 ITU=  1  0
 Use linear search instead of GDIIS.
 Linear search step of   0.600 exceeds DXMaxT=   0.505 but not scaled.
 Quartic linear search produced a step of  2.00000.
 Iteration  1 RMS(Cart)=  0.20778171 RMS(Int)=  0.01484942
 Iteration  2 RMS(Cart)=  0.02735955 RMS(Int)=  0.00302373
 Iteration  3 RMS(Cart)=  0.00060516 RMS(Int)=  0.00300346
 Iteration  4 RMS(Cart)=  0.00000251 RMS(Int)=  0.00300346
 Iteration  5 RMS(Cart)=  0.00000003 RMS(Int)=  0.00300346
 Variable       Old X    -DE/DX   Delta X   Delta X   Delta X     New X
                                 (Linear)    (Quad)   (Total)
    R1        2.46341  -0.03332  -0.03662   0.00000  -0.03662   2.42679
    R2        1.98658  -0.02489  -0.07168   0.00000  -0.07168   1.91490
    R3        2.78948   0.02471   0.11609   0.00000   0.11517   2.90465
    R4        3.38978  -0.04488  -0.14670   0.00000  -0.14795   3.24183
    R5        2.55947   0.00362   0.04401   0.00000   0.04471   2.60419
    R6        2.01158   0.01223   0.03025   0.00000   0.03025   2.04184
    R7        2.64948   0.02228   0.06354   0.00000   0.06352   2.71299
    R8        2.06260  -0.00924  -0.03146   0.00000  -0.03146   2.03114
    R9        2.53449   0.00687   0.02616   0.00000   0.02757   2.56206
   R10        2.04268  -0.00032  -0.00305   0.00000  -0.00305   2.03964
   R11        2.68048   0.04261   0.12827   0.00000   0.12898   2.80946
   R12        2.05311  -0.00480  -0.01649   0.00000  -0.01649   2.03662
   R13        2.91402  -0.00256   0.00394   0.00000   0.00447   2.91850
   R14        2.85789  -0.01753  -0.05908   0.00000  -0.05829   2.79960
   R15        2.91789  -0.00771  -0.00174   0.00000  -0.00094   2.91695
   R16        2.85161   0.00976   0.03637   0.00000   0.03508   2.88669
   R17        2.08803  -0.01091  -0.03313   0.00000  -0.03313   2.05490
   R18        2.04816   0.00421   0.01464   0.00000   0.01464   2.06280
   R19        2.06144  -0.00048   0.00033   0.00000   0.00033   2.06177
   R20        2.05475  -0.00140  -0.00434   0.00000  -0.00434   2.05041
   R21        3.13369  -0.03067  -0.08829   0.00000  -0.08860   3.04509
   R22        1.96060  -0.01489  -0.03787   0.00000  -0.03787   1.92273
   R23        2.72225  -0.06078  -0.16966   0.00000  -0.17047   2.55178
   R24        2.07726  -0.00704  -0.02250   0.00000  -0.02250   2.05476
   R25        2.10532  -0.01436  -0.04599   0.00000  -0.04599   2.05933
    A1        1.89404  -0.00687  -0.03024   0.00000  -0.03024   1.86379
    A2        2.00950   0.06801   0.25750   0.00000   0.26064   2.27014
    A3        2.27199  -0.07163  -0.23841   0.00000  -0.23545   2.03654
    A4        2.00089   0.00384  -0.01776   0.00000  -0.02444   1.97645
    A5        1.80793   0.02154   0.15100   0.00000   0.15141   1.95934
    A6        2.18744  -0.01523  -0.08783   0.00000  -0.08820   2.09924
    A7        2.22924  -0.00877  -0.06897   0.00000  -0.06925   2.15999
    A8        2.02850   0.02418   0.10914   0.00000   0.10026   2.12875
    A9        2.00387  -0.01612  -0.07011   0.00000  -0.06471   1.93915
   A10        2.04948  -0.01344  -0.06181   0.00000  -0.05817   1.99131
   A11        1.83132  -0.00995  -0.00724   0.00000  -0.00882   1.82250
   A12        2.21276  -0.00760  -0.04415   0.00000  -0.05368   2.15907
   A13        2.11359   0.00157  -0.01879   0.00000  -0.02665   2.08694
   A14        2.16427   0.00732   0.04672   0.00000   0.04258   2.20685
   A15        2.10090  -0.00720  -0.04793   0.00000  -0.04472   2.05618
   A16        1.93156  -0.00437  -0.01564   0.00000  -0.01586   1.91570
   A17        1.76279   0.01271   0.04261   0.00000   0.05065   1.81344
   A18        2.18134  -0.00543  -0.04198   0.00000  -0.04299   2.13835
   A19        1.69641   0.00952   0.05916   0.00000   0.06159   1.75800
   A20        2.51579  -0.02254  -0.08700   0.00000  -0.09138   2.42441
   A21        2.26489  -0.00693  -0.03149   0.00000  -0.03420   2.23069
   A22        2.02240   0.00116  -0.00291   0.00000  -0.00324   2.01916
   A23        2.32099  -0.00859  -0.03313   0.00000  -0.03280   2.28818
   A24        1.99045   0.00226   0.01430   0.00000   0.01295   2.00341
   A25        2.13384   0.00197   0.00646   0.00000   0.00477   2.13861
   A26        1.84006   0.00709   0.03128   0.00000   0.03080   1.87085
   A27        2.06916   0.00625   0.01431   0.00000   0.01315   2.08231
   A28        2.24491  -0.01548  -0.05640   0.00000  -0.05710   2.18781
   A29        2.08033   0.01593   0.05445   0.00000   0.05530   2.13563
   A30        1.95506  -0.01455  -0.04439   0.00000  -0.04653   1.90853
   A31        1.89505   0.00682   0.02842   0.00000   0.02859   1.92364
   A32        2.17683   0.01547   0.06341   0.00000   0.06003   2.23686
   A33        1.84597   0.00342   0.01611   0.00000   0.01627   1.86225
   A34        1.76657  -0.00724  -0.02376   0.00000  -0.02631   1.74026
   A35        2.66264   0.01295   0.05216   0.00000   0.04792   2.71056
   A36        1.54826   0.01350   0.04732   0.00000   0.04951   1.59777
   A37        2.06921  -0.02628  -0.09901   0.00000  -0.09693   1.97229
   A38        2.58137   0.00862   0.02411   0.00000   0.01816   2.59953
   A39        1.67161   0.01489   0.06383   0.00000   0.06597   1.73759
   A40        2.00296  -0.02107  -0.07483   0.00000  -0.07366   1.92930
    D1       -0.02726   0.00357   0.01379   0.00000   0.01273  -0.01453
    D2       -3.12280  -0.00336  -0.02214   0.00000  -0.02108   3.13931
    D3       -2.46028  -0.00314   0.00029   0.00000  -0.00789  -2.46817
    D4        1.02078   0.00419   0.02104   0.00000   0.01721   1.03799
    D5        0.64260   0.00028   0.01929   0.00000   0.01891   0.66152
    D6       -2.15952   0.00760   0.04004   0.00000   0.04401  -2.11551
    D7       -3.12189   0.00827   0.04382   0.00000   0.03816  -3.08373
    D8        0.32584  -0.00160  -0.01213   0.00000  -0.01925   0.30659
    D9        0.06557  -0.00002   0.00084   0.00000   0.00249   0.06806
   D10       -2.76988  -0.00989  -0.05510   0.00000  -0.05493  -2.82480
   D11       -2.09351   0.01772   0.07100   0.00000   0.07647  -2.01704
   D12        0.39371   0.00478   0.01590   0.00000   0.01830   0.41201
   D13        0.69748   0.00866   0.04601   0.00000   0.04767   0.74516
   D14       -3.09848  -0.00428  -0.00909   0.00000  -0.01050  -3.10897
   D15        2.49865  -0.04364  -0.21945   0.00000  -0.21852   2.28013
[...]
 622,-0.00001153,-0.00113621,-0.00146795,0.00121488,0.00405848,0.008097
 40,0.01903099,-0.05973053,-0.01011541,-0.04903711,-0.00344668,-0.01017
 072,-0.02799198,0.00003971,-0.00213171,-0.00216148,0.00061280,-0.00031
 831,-0.00051335,-0.00009342,0.00013462,0.00092784,-0.00031813,0.000588
 28,0.00018602,0.00034693,-0.00058205,-0.00006499,-0.00029672,0.0000194
 8,0.00004608,0.00001729,0.00003733,0.00004068,0.00040211,0.00015682,-0
 .00069021,0.00019346,0.00397268,0.00026346,0.06417853,-0.00023690,-0.0
 0001265,-0.00000678,0.00021762,0.00058999,0.00015379,0.00014069,-0.000
 97150,-0.00214493,-0.00299418,-0.00559452,-0.01772196,-0.01481890,-0.0
 7423857,-0.08244114,0.00304301,0.00355619,0.00576306,0.00055914,-0.003
 83277,0.00058387,0.00082195,0.00016131,-0.00009090,0.00058240,0.000675
 85,0.00056731,-0.00053487,0.00033558,-0.00064175,0.00030778,-0.0007678
 6,-0.00006794,-0.00026456,-0.00011926,0.00004920,-0.00002024,0.0000664
 3,0.00001407,0.00049747,-0.00091929,0.00061978,0.00386837,-0.00137840,
 -0.00089693,0.00800893,0.07509732,-0.00003821,0.00026188,-0.00012691,-
 0.00026897,-0.00018549,0.00051329,0.00084983,0.00324400,0.00080545,-0.
 00313736,-0.00315397,-0.01151733,-0.05516329,-0.09131413,-0.28349872,-
 0.00253113,-0.00500544,-0.01049388,0.00125565,0.00203918,-0.00065917,0
 .00039493,0.00010597,0.00008928,0.00050305,0.00013480,0.00111734,0.000
 14357,0.00009666,0.00009682,0.00008937,-0.00006234,-0.00009716,0.00002
 300,-0.00007249,0.00004416,-0.00001294,0.00001658,0.00003599,-0.000768
 11,0.00032178,0.00120983,-0.00066004,-0.00226045,0.00050878,0.06052685
 ,0.09939316,0.29997153,0.00000987,0.00006462,0.00003278,-0.00022334,0.
 00014008,0.00006194,0.00045832,0.00021874,0.00015395,0.00047986,-0.001
 89609,-0.00188318,-0.00589535,-0.01370263,-0.02897256,-0.06745414,-0.0
 2762611,-0.05088082,0.00447008,0.01181767,0.02287660,0.00155266,-0.000
 50748,-0.00148959,-0.00192695,-0.00234289,0.00364519,0.00106417,0.0009
 2715,-0.00168960,0.00011193,-0.00051647,0.00001294,-0.00009457,-0.0000
 4201,0.00009012,-0.00000077,0.00001163,-0.00001638,-0.00004826,0.00001
 631,0.00027196,-0.00022608,0.00073932,0.00052094,-0.00497864,0.0008289
 6,-0.00143186,0.07357730,0.00017140,0.00044153,0.00000434,-0.00023589,
 -0.00072149,0.00007598,-0.00168005,0.00060911,0.00025697,-0.00137657,-
 0.00167096,0.00335645,-0.00002549,-0.00088590,-0.00236666,-0.02741388,
 -0.08538945,-0.11386692,-0.00358757,-0.00150641,0.00020194,-0.00077223
 ,0.00011904,0.00018059,-0.00006494,0.00086425,-0.00050680,0.00042106,0
 .00138335,0.00014555,-0.00029710,0.00044510,0.00006185,0.00028944,0.00
 003611,0.00005324,0.00008206,-0.00015374,-0.00001457,0.00050487,0.0001
 5340,0.00037954,0.00027607,0.00067162,0.00015639,0.00264100,0.00816059
 ,-0.00383754,0.03037288,0.07744584,-0.00020012,-0.00027357,0.00003886,
 0.00051827,0.00031666,-0.00018682,0.00122588,-0.00009663,0.00008999,0.
 00203792,-0.00067666,-0.00010101,-0.00118683,-0.00284732,-0.00621134,-
 0.05605121,-0.10011961,-0.25712035,-0.00356925,-0.01086581,-0.01760654
 ,0.00030274,-0.00001059,0.00071925,0.00132566,0.00251246,-0.00149000,-
 0.00070752,-0.00021330,0.00191600,0.00064833,-0.00026009,-0.00031806,-
 0.00048393,0.00015211,0.00008922,-0.00007754,0.00009557,-0.00000387,-0
 .00061034,-0.00029719,-0.00009355,-0.00018752,0.00052399,0.00040194,-0
 .00203944,-0.00282037,0.00160825,0.05819432,0.11577438,0.27875576,-0.0
 0013309,0.00000586,0.00001651,0.00029150,0.00006124,-0.00005647,0.0001
 7034,-0.00019121,-0.00008439,-0.00015262,-0.00007614,0.00016167,-0.000
 12636,0.00037402,-0.00043619,0.00251669,-0.00024180,0.00103240,-0.0043
 3408,0.01162145,-0.01161401,-0.04766101,0.00375151,-0.00337447,-0.0037
 9354,0.01207243,-0.00945048,-0.00168060,0.00004173,-0.00092005,0.00099
 107,-0.00040635,-0.00072287,-0.00030512,0.00002018,0.00006032,-0.00001
 331,0.00001799,-0.00000075,-0.00004720,0.00001364,0.00000797,0.0000259
 0,0.00000583,-0.00002400,0.00007542,-0.00006821,-0.00003971,-0.0003074
 4,0.00021201,0.00035692,0.05072804,0.00028695,-0.00003989,-0.00003015,
 -0.00052546,-0.00015886,0.00002983,-0.00027279,0.00012087,0.00011555,0
 .00004952,0.00017113,-0.00002141,0.00017368,-0.00051666,0.00012987,-0.
 00259991,0.00208694,-0.00132078,-0.00298034,-0.01325153,0.01446465,0.0
 0628179,-0.21201384,0.15077253,0.00283531,0.00931903,-0.00938691,0.003
 37471,-0.00353655,0.00094195,-0.00084683,0.00094929,0.00060234,0.00044
 629,-0.00027018,-0.00008698,0.00003089,-0.00002538,0.00000428,0.000111
 83,-0.00000176,0.00001929,-0.00002429,-0.00000370,0.00002320,0.0000720
 9,0.00012070,-0.00013251,0.00042943,-0.00031765,-0.00019204,-0.0084092
 7,0.22174141,0.00015091,0.00000654,-0.00003268,-0.00024809,-0.00014518
 ,0.00005120,-0.00017384,0.00012609,-0.00002282,0.00014877,-0.00002371,
 -0.00001968,-0.00019760,-0.00011077,0.00027273,-0.00154193,0.00081002,
 0.00022789,-0.00310148,-0.01111125,0.00786734,-0.00509162,0.15099791,-
 0.16417453,0.00220247,0.01838613,-0.01496059,0.00322886,-0.00353226,0.
 00090757,-0.00058154,-0.00004222,0.00046741,0.00023000,-0.00015176,-0.
 00002484,0.00001461,-0.00002451,0.00000423,0.00005293,0.00000158,0.000
 00701,-0.00000601,-0.00000059,0.00001550,0.00010205,0.00002953,-0.0000
 8302,-0.00016900,-0.00010244,-0.00003193,0.00824765,-0.15912274,0.1726
 4855,0.00020056,0.00009176,-0.00001474,-0.00022251,-0.00031903,0.00002
 481,-0.00039157,0.00024514,0.00002543,0.00002133,-0.00012249,-0.000015
 01,-0.00090681,0.00037399,0.00072321,-0.00133070,0.00031017,-0.0022550
 1,-0.01194265,-0.00840059,0.00090160,-0.26649084,-0.09029268,0.0734303
 4,-0.01204410,-0.00163046,0.00377629,0.00162926,-0.00254814,0.00050764
 ,0.00053020,0.00077011,-0.00010408,0.00011877,-0.00011762,0.00009288,0
 .00001847,-0.00005989,-0.00001481,0.00006837,-0.00000630,0.00001776,-0
 .00000264,0.00004512,0.00003531,0.00013382,0.00021112,0.00020254,-0.00
 005058,0.00002333,0.00018955,0.00389818,0.00195288,-0.00142517,0.28624
 721,-0.00017364,-0.00003911,0.00005187,0.00015688,0.00029827,-0.000063
 01,0.00044463,-0.00030377,0.00011663,-0.00008120,0.00033435,0.00006926
 ,0.00117473,-0.00017660,-0.00121331,0.00283141,-0.00083366,0.00180464,
 0.01816068,0.00841954,-0.00654569,-0.09185579,-0.08369044,0.03772556,-
 0.00575458,-0.00638113,0.00480548,0.00017113,0.00294729,-0.00086853,0.
 00020058,-0.00001785,-0.00033188,-0.00019997,-0.00004383,-0.00003240,-
 0.00002237,0.00004564,-0.00000122,-0.00002877,-0.00001807,-0.00000501,
 -0.00002376,0.00000617,-0.00001599,-0.00000892,-0.00023611,0.00004943,
 -0.00002851,-0.00000486,-0.00012902,-0.02040229,-0.00560763,0.00399148
 ,0.09630679,0.08432942,-0.00024452,-0.00006957,0.00000603,0.00035459,0
 .00030085,0.00008438,0.00057845,-0.00035019,-0.00013019,-0.00006407,0.
 00003314,0.00036266,0.00018115,0.00035451,-0.00128108,0.00301855,-0.00
 226546,0.00191858,0.00777014,0.00614840,-0.00815703,0.07559279,0.03801
 428,-0.06353642,-0.02374352,-0.01074748,0.00822774,-0.00180912,0.00382
 966,-0.00038491,0.00022762,-0.00067011,0.00015149,-0.00030232,0.000097
 14,-0.00003701,-0.00002942,0.00006225,0.00000130,-0.00012960,-0.000014
 04,-0.00001415,0.00000083,0.00004339,-0.00002220,0.00003247,-0.0002146
 5,0.00027958,-0.00000308,0.00010746,-0.00010076,0.01697404,0.00426002,
 -0.00391251,-0.07622605,-0.03870459,0.06590475,-0.00019190,0.00002805,
 0.00001732,0.00045647,0.00014848,0.00010418,-0.00002530,-0.00006576,-0
 .00010930,0.00016262,-0.00006297,-0.00015816,0.00030333,0.00054033,0.0
 0056998,-0.00064427,-0.00057082,-0.00070390,0.00618732,0.00879605,-0.0
 0593344,-0.01525271,-0.01963843,0.00271273,-0.15612374,-0.14694003,0.0
 0349368,0.00058887,0.00370060,0.00241821,0.00123896,-0.00078181,0.0002
 8944,-0.00065062,0.00013372,0.00010691,-0.00001607,0.00001706,-0.00001
 365,-0.00004723,0.00002185,-0.00000727,-0.00000960,-0.00003173,-0.0000
 1637,-0.00047271,0.00016168,0.00009978,0.00021580,-0.00013286,-0.00021
 906,0.00198565,0.00138208,0.00241644,-0.00112793,-0.00182732,-0.004432
 10,0.16622560,0.00056814,-0.00007959,-0.00011073,-0.00115754,-0.000406
 24,-0.00009441,-0.00022956,0.00019147,-0.00001546,0.00068864,-0.000023
 00,0.00044622,-0.00028344,-0.00019573,-0.00077216,0.00015975,0.0014956
 7,0.00209852,-0.01306440,-0.01121020,0.00537528,0.00875912,0.00919258,
 -0.00350762,-0.14849563,-0.21612283,0.00273801,-0.00047965,-0.00513508
 ,-0.00306561,-0.00211051,0.00239783,-0.00032766,0.00133885,-0.00029505
 ,-0.00012858,0.00004323,-0.00005485,0.00005223,0.00015665,-0.00003725,
 0.00003476,-0.00010644,0.00013913,0.00006556,0.00081053,-0.00053927,0.
 00018303,-0.00011858,0.00026177,0.00019319,-0.00087331,0.00034537,-0.0
 0124564,0.00179863,0.00092748,0.00220336,0.15688327,0.22579618,0.00016
 465,-0.00002110,0.00002937,-0.00048666,-0.00010069,-0.00014843,0.00011
 625,0.00001688,0.00017583,0.00000798,0.00023822,0.00004686,0.00075069,
 -0.00050980,-0.00024433,0.00021506,-0.00008942,0.00146771,-0.01245581,
 -0.01063780,-0.00195255,-0.00844590,-0.01071635,-0.00390478,0.00430380
 ,0.00563403,-0.04851070,-0.00141506,-0.00103504,-0.00019164,-0.0007473
 4,0.00069657,0.00003446,0.00057958,-0.00012603,-0.00018908,0.00002297,
 -0.00000004,0.00000908,0.00006859,-0.00002708,0.00000478,-0.00003224,0
 .00004726,0.00000650,0.00023807,-0.00017110,0.00019311,-0.00013913,0.0
 0009629,0.00011673,-0.00087491,0.00082964,0.00191504,0.00021013,-0.001
 37396,-0.00151663,0.00069561,-0.00218839,0.04933172,0.00013043,0.00003
 822,0.00000400,-0.00025715,-0.00011516,-0.00010597,-0.00024940,0.00022
 650,0.00014460,0.00025026,0.00008730,-0.00016457,0.00035031,-0.0004088
 8,0.00032777,0.00122898,0.00186958,0.00222627,-0.00722193,-0.00576127,
 0.00917910,0.00625994,0.01158969,-0.02597080,-0.05317466,-0.03308224,0
 .05740563,0.00048381,-0.00253537,-0.00187972,-0.00040212,0.00038128,-0
 .00021395,0.00013868,-0.00000890,-0.00001032,0.00001784,-0.00002673,0.
 00000468,0.00006559,-0.00002255,-0.00001113,-0.00005219,0.00000301,-0.
 00001471,0.00011441,-0.00022031,-0.00001137,-0.00071641,0.00036271,0.0
 0065927,-0.00208591,-0.00242287,-0.00451828,0.00158614,0.00168650,0.00
 255715,-0.00278389,-0.00453265,0.01704200,0.05621417,-0.00020622,0.000
 03700,0.00003291,0.00041436,0.00012160,0.00000836,0.00012335,-0.000153
 89,-0.00007298,-0.00012099,-0.00008004,0.00016348,-0.00017356,0.000481
 27,0.00002673,-0.00245463,-0.00161042,-0.00304259,0.00509085,0.0089971
 7,-0.02176392,-0.00352331,-0.00648530,0.00580565,-0.03275561,-0.089418
 06,0.10617416,0.00129496,0.00320396,0.00263345,0.00069537,-0.00112251,
 0.00003155,-0.00046478,0.00006912,0.00003849,-0.00001509,0.00001564,-0
 .00000774,-0.00004205,0.00000335,0.00001247,0.00000336,0.00004588,0.00
 000977,0.00017549,-0.00010363,0.00011175,0.00116207,-0.00009564,-0.000
 91072,0.00145731,0.00086010,0.00151378,-0.00095739,0.00089795,-0.00161
 857,-0.00235402,-0.00593856,0.02003699,0.03289895,0.09024551,-0.000161
 35,-0.00003010,0.00000676,0.00031465,0.00014656,0.00006099,0.00024224,
 -0.00020070,-0.00012421,-0.00013724,-0.00008945,0.00021283,-0.00015449
 ,0.00050508,-0.00024583,-0.00207679,-0.00095229,-0.00139869,0.00084247
 ,0.00853275,-0.01424910,0.00251553,0.00103314,-0.00992279,0.05502772,0
 .10238648,-0.27900829,0.00091351,0.00173097,0.00292344,0.00018803,-0.0
 0101203,0.00035596,-0.00027139,0.00003586,0.00001249,-0.00001664,0.000
 02939,-0.00000056,-0.00006072,0.00000632,0.00000480,0.00001150,0.00001
 959,0.00001250,0.00007656,-0.00004073,0.00005655,0.00071874,-0.0001439
 3,-0.00030515,0.00014355,-0.00154912,-0.00069844,-0.00026683,0.0006808
 2,0.00124348,-0.00110877,-0.00203771,0.00371388,-0.05646463,-0.1087335
 9,0.29808296,0.00053667,-0.00027285,0.00001201,-0.00111874,-0.00014894
 ,-0.00004888,0.00004773,-0.00003141,0.00006697,0.00020151,0.00028940,-
 0.00000099,0.00100049,-0.00100019,0.00044601,-0.00162583,-0.00124520,-
 0.00009330,-0.00740833,0.00114520,-0.00003521,0.00371412,0.00246150,-0
 .00109457,-0.00067518,0.00000523,0.00094518,-0.44793858,-0.03334160,0.
 04044270,-0.01735396,0.00054882,0.00082688,0.00486864,0.00058835,-0.00
 086913,-0.00000461,-0.00003741,-0.00001981,0.00011640,-0.00000021,0.00
 001496,-0.00004966,-0.00000414,0.00003110,0.00002405,0.00000936,0.0000
 1083,-0.00001509,0.00006433,0.00002277,-0.00000873,0.00051978,0.000189
 99,0.00000918,-0.00060409,-0.00017781,0.00008963,0.00004096,0.00010484
 ,0.00002872,-0.00018988,-0.00024902,0.46271952,0.00076180,-0.00004707,
 -0.00000788,-0.00130550,-0.00076884,0.00006345,-0.00010515,0.00043593,
 0.00020353,0.00046296,0.00058181,-0.00064680,0.00081255,-0.00154058,0.
 00098889,-0.00259143,-0.00327967,0.00007470,-0.03037189,-0.00974565,0.
 00310226,-0.00278648,0.00047473,0.00193505,-0.00207650,-0.00073564,0.0
 0051932,-0.04004135,-0.05589052,0.01020195,0.03876499,-0.00996018,-0.0
 0355427,0.00006178,-0.00162487,0.00042474,0.00009848,-0.00002812,-0.00
 009089,0.00018136,-0.00003876,0.00001952,-0.00005091,0.00001359,0.0000
 5282,-0.00003432,-0.00006539,0.00004433,0.00012086,0.00013916,0.000058
 86,0.00085805,0.00030595,-0.00000250,0.00226566,-0.00095794,-0.0008552
 8,0.00052456,-0.00063698,-0.00057944,0.00005651,0.00005632,-0.00021206
 ,0.03111004,0.08655118,-0.00092486,0.00005721,0.00053202,0.00223158,0.
 00072502,0.00119129,0.00062094,-0.00078432,-0.00026630,-0.00096822,-0.
 00039438,0.00119909,0.00027127,0.00152526,-0.00140435,0.00238132,0.002
 71713,-0.00038199,0.00674194,0.00193366,-0.00164625,-0.00018990,-0.001
 10868,0.00068152,-0.00072632,-0.00123598,0.00000651,0.03249746,0.01164
 238,-0.00762211,0.00161068,-0.00309454,-0.00358121,-0.00194654,0.00024
 490,0.00229341,-0.00022778,0.00017311,-0.00059329,-0.00020120,-0.00004
 363,0.00001370,0.00004410,-0.00000699,-0.00007700,-0.00001507,-0.00000
 458,-0.00006649,0.00003890,-0.00001109,-0.00021811,0.00042037,-0.00023
 192,-0.00028807,0.00029676,-0.00012208,0.00093199,0.00006147,-0.000171
 13,-0.00055172,-0.00029078,-0.00033238,-0.00059395,-0.04076576,-0.0116
 2184,0.01143784,-0.00116712,0.00015313,0.00023089,0.00041047,0.0021496
 5,0.00132869,0.00026072,0.00008817,0.00007041,-0.00033365,-0.00012763,
 0.00006023,0.00015535,0.00024249,-0.00006656,0.00002763,-0.00018524,0.
 00005685,0.00135938,0.00256035,0.00051125,0.00003181,-0.00007017,0.000
 13953,0.00004105,0.00023905,-0.00020199,0.00333820,0.01360143,-0.00156
 707,-0.21123924,-0.13537464,0.04138933,-0.02797628,-0.01037803,0.00685
 440,-0.00033917,0.00032440,-0.00000850,-0.00001653,-0.00011837,0.00001
 036,0.00002111,0.00000674,-0.00001490,-0.00000567,0.00000623,-0.000006
 88,0.00001325,0.00004119,-0.00007598,-0.00000959,-0.00000471,-0.000009
 05,-0.00005019,-0.00004114,0.00000287,-0.00005615,0.00006817,0.0000455
 9,0.00000627,-0.00001638,0.00002070,0.00316416,0.00298012,-0.00108435,
 0.23370179,-0.00019270,0.00021448,0.00009508,0.00292193,0.00019601,0.0
 0032049,-0.00013014,-0.00001474,-0.00003820,0.00017568,0.00023167,-0.0
 0017638,-0.00015149,-0.00036154,0.00011448,-0.00004442,0.00051129,-0.0
 0025058,0.00352897,0.00090925,-0.00046740,-0.00040809,-0.00093462,0.00
 036812,0.00010551,-0.00008040,0.00011641,-0.01901915,-0.04096824,0.007
 54098,-0.12922640,-0.14331349,0.03194760,0.01465441,0.00270797,-0.0023
 4427,0.00008360,-0.00010065,-0.00016644,0.00006855,0.00002340,0.000058
 55,0.00002569,0.00002123,0.00000674,0.00003661,0.00001841,0.00000949,-
 0.00006966,-0.00001171,0.00010394,0.00015676,-0.00024323,-0.00022206,0
 .00008176,0.00009750,0.00004214,0.00008413,-0.00009493,-0.00002997,-0.
 00006448,-0.00002032,-0.00010031,-0.00024070,-0.00265723,0.00013436,0.
 12289259,0.18281020,-0.00048898,-0.00013288,0.00048201,0.00206411,0.00
 043113,0.00989974,0.00021989,-0.00007494,-0.00053857,-0.00018342,0.000
 21028,0.00000619,-0.00007529,-0.00011058,-0.00008705,-0.00034174,0.000
 03299,0.00017404,0.00085813,0.00033813,0.00452418,-0.00011374,-0.00030
 753,0.00033447,0.00031046,0.00097587,-0.00032605,0.00108167,0.00069223
 ,0.00358794,0.03999895,0.03310240,-0.04956652,0.00512568,0.00125468,0.
 00515281,-0.00032830,0.00025664,-0.00141541,-0.00000993,-0.00016732,0.
 00014894,0.00005343,0.00002150,0.00001422,0.00000166,0.00001772,0.0000
 1118,0.00005012,-0.00003732,0.00003514,0.00010108,-0.00005993,-0.00006
 463,-0.00006681,-0.00001211,-0.00000353,-0.00017636,0.00014355,0.00008
 065,0.00005052,-0.00008459,-0.00008616,-0.00022808,-0.00017485,-0.0021
 1241,-0.04666319,-0.03562010,0.03632387,0.00164208,-0.00028269,-0.0015
 7363,-0.01367985,-0.03099482,0.00490796,-0.00397446,-0.00088396,0.0028
 4149,-0.00250865,-0.00067384,-0.00035942,0.00095443,0.00178836,0.00015
 313,0.00084027,-0.00092929,-0.00041332,-0.00142190,-0.00107080,0.00128
 717,0.00022946,0.00039943,-0.00018152,0.00010939,0.00024645,-0.0000484
 7,-0.00142275,0.00363969,0.00083545,-0.00441454,0.02690765,-0.00156648
 ,-0.05731406,-0.06567671,0.00996306,0.00086498,0.00074205,-0.00025100,
 0.00003971,0.00017017,-0.00015688,0.00000182,-0.00008288,-0.00001515,-
 0.00006468,-0.00010655,-0.00002952,-0.00001561,0.00012425,-0.00007286,
 -0.00002420,0.00013927,0.00007892,0.00009902,-0.00008097,-0.00012905,-
 0.00005213,0.00013574,0.00003124,0.00006814,-0.00004213,-0.00004734,-0
 .00032211,0.00030381,0.00012396,-0.00133761,0.00473103,-0.00123988,0.0
 8170324,0.00261295,0.00075058,-0.00003601,-0.00246895,-0.00657882,0.00
 080107,-0.00166665,-0.00102207,0.00089521,-0.00050069,0.00060512,-0.00
 063049,0.00018745,0.00012820,0.00000477,-0.00003811,-0.00007894,-0.000
 05629,0.00023250,0.00043194,0.00009061,0.00000636,-0.00014002,0.000059
 99,0.00005025,0.00005337,-0.00000375,0.00133932,0.00242372,-0.00005060
 ,-0.00183327,-0.01986290,0.00170075,-0.06107220,-0.30901837,0.03100523
 ,0.00024233,0.00044695,-0.00045193,0.00015388,-0.00005898,-0.00003108,
 0.00000543,-0.00001920,0.00002048,-0.00000607,-0.00000315,0.00001234,0
 .00000071,0.00002694,-0.00001825,-0.00000140,-0.00003391,-0.00002545,-
 0.00002187,0.00000737,0.00001332,-0.00001610,0.00002211,0.00001035,0.0
 0000116,-0.00000652,-0.00000494,0.00033365,-0.00058123,0.00001050,0.00
 096261,0.00105971,-0.00069502,0.06149674,0.33144810,0.00063589,-0.0008
 3602,-0.00195208,-0.00088131,0.00707262,0.00472611,0.00093151,0.001381
 11,0.00084888,0.00139603,-0.00084004,0.00057572,-0.00018791,0.00028270
 ,0.00038093,0.00077086,-0.00073785,-0.00014598,0.00002860,-0.00034107,
 0.00219952,-0.00024456,-0.00043806,0.00022139,0.00026427,0.00057226,-0
 .00019329,0.00087236,0.00049163,0.00596588,0.00026365,-0.00350809,-0.0
 0180044,0.01138217,0.03055771,-0.03291156,-0.00050538,-0.00036799,-0.0
 0064083,0.00003475,0.00045294,-0.00000343,-0.00003717,-0.00000720,0.00
 006157,-0.00001623,0.00007224,0.00000155,0.00000670,0.00003627,0.00001
 636,0.00007581,-0.00005864,-0.00007073,-0.00004574,0.00012361,-0.00001
 557,-0.00010738,0.00013140,0.00008414,0.00005524,-0.00003248,-0.000053
 47,0.00046830,0.00005638,0.00111589,-0.00102262,-0.00144267,-0.0065750
 4,-0.01413783,-0.03262079,0.02816449\\0.00001420,-0.00000569,0.0000047
 1,0.00001783,-0.00000496,-0.00001992,0.00001392,0.00002351,0.00000990,
 0.00002566,-0.00004090,-0.00001868,-0.00003209,0.00004369,0.00000457,0
 .00002769,-0.00001890,-0.00000227,0.00001470,-0.00003117,-0.00001762,0
 .00000477,0.00001719,0.00001489,-0.00002320,-0.00001552,0.00001635,-0.
 00004210,0.00003768,-0.00000927,0.00005056,-0.00003021,0.00001911,-0.0
 0007437,0.00003755,0.00000820,0.00000218,-0.00000289,-0.00000846,-0.00
 000820,0.00000289,0.00000148,-0.00000370,0.00000067,-0.00000118,0.0000
 0232,-0.00000427,0.00000181,-0.00000205,-0.00000627,0.00000342,-0.0000
 0198,-0.00000081,0.00000022,-0.00000095,-0.00000358,-0.00000186,0.0000
 0035,0.00000324,-0.00000448,0.00001285,0.00000479,0.00000347,0.0000077
 6,-0.00000429,0.00000173,-0.00000232,-0.00000213,-0.00001097,-0.000003
 82,0.00000037,0.00000486\\\@


 THE DIFFERENCE BETWEEN A NOOSE AND A HALO IS ONLY 12 INCHES.
 Job cpu time:       0 days  4 hours  6 minutes 24.5 seconds.
 Elapsed time:       0 days  1 hours  1 minutes 37.5 seconds.
 File lengths (MBytes):  RWF=    277 Int=      0 D2E=      0 Chk=     14 Scr=      1
 Normal termination of Gaussian 16 at Sun May 28 16:24:09 2023.
### All Done ###
