### Starting Gaussian ###
 Entering Gaussian System, Link 0=g16
 Initial command:
 /cluster/software/gaussian/gaussian-16-A.03/avx2/g16/l1.exe "/local/scratch/cz9n3/Gau-27403.inp" -scrdir="/local/scratch/cz9n3/"
 Entering Link 1 = /cluster/software/gaussian/gaussian-16-A.03/avx2/g16/l1.exe PID=     27404.
  
 Copyright (c) 1988,1990,1992,1993,1995,1998,2003,2009,2016,
            Gaussian, Inc.  All Rights Reserved.
  
 This is part of the Gaussian(R) 16 program.  It is based on
 the Gaussian(R) 09 system (copyright 2009, Gaussian, Inc.),
 the Gaussian(R) 03 system (copyright 2003, Gaussian, Inc.),
 the Gaussian(R) 98 system (copyright 1998, Gaussian, Inc.),
 the Gaussian(R) 94 system (copyright 1995, Gaussian, Inc.),
 the Gaussian 92(TM) system (copyright 1992, Gaussian, Inc.),
 the Gaussian 90(TM) system (copyright 1990, Gaussian, Inc.),
 the Gaussian 88(TM) system (copyright 1988, Gaussian, Inc.),
 the Gaussian 86(TM) system (copyright 1986, Carnegie Mellon
 University), and the Gaussian 82(TM) system (copyright 1983,
 Carnegie Mellon University). Gaussian is a federally registered
 trademark of Gaussian, Inc.
  
 This software contains proprietary and confidential information,
 including trade secrets, belonging to Gaussian, Inc.
  
 This software is provided under written license and may be
 used, copied, transmitted, or stored only in accord with that
 written license.
  
 The following legend is applicable only to US Government
 contracts under FAR:
  
                    RESTRICTED RIGHTS LEGEND
  
 Use, reproduction and disclosure by the US Government is
 subject to restrictions as set forth in subparagraphs (a)
 and (c) of the Commercial Computer Software - Restricted
 Rights clause in FAR 52.227-19.
  
 Gaussian, Inc.
 340 Quinnipiac St., Bldg. 40, Wallingford CT 06492
  
  
 ---------------------------------------------------------------
 Warning -- This program may not be used in any manner that
 competes with the business of Gaussian, Inc. or will provide
 assistance to any competitor of Gaussian, Inc.  The licensee
 of this program is prohibited from giving any competitor of
 Gaussian, Inc. access to this program.  By using this program,
 the user acknowledges that Gaussian, Inc. is engaged in the
 business of creating and licensing software in the field of
 computational chemistry and represents and warrants to the
 licensee that it is not a competitor of Gaussian, Inc. and that
 it will not use this program in any manner prohibited above.
 ---------------------------------------------------------------
  

 Cite this work as:
 Gaussian 16, Revision A.03,
 M. J. Frisch, G. W. Trucks, H. B. Schlegel, G. E. Scuseria, 
 M. A. Robb, J. R. Cheeseman, G. Scalmani, V. Barone, 
 G. A. Petersson, H. Nakatsuji, X. Li, M. Caricato, A. V. Marenich, 
 J. Bloino, B. G. Janesko, R. Gomperts, B. Mennucci, H. P. Hratchian, 
 J. V. Ortiz, A. F. Izmaylov, J. L. Sonnenberg, D. Williams-Young, 
 F. Ding, F. Lipparini, F. Egidi, J. Goings, B. Peng, A. Petrone, 
 T. Henderson, D. Ranasinghe, V. G. Zakrzewski, J. Gao, N. Rega, 
 G. Zheng, W. Liang, M. Hada, M. Ehara, K. Toyota, R. Fukuda, 
 J. Hasegawa, M. Ishida, T. Nakajima, Y. Honda, O. Kitao, H. Nakai, 
 T. Vreven, K. Throssell, J. A. Montgomery, Jr., J. E. Peralta, 
 F. Ogliaro, M. J. Bearpark, J. J. Heyd, E. N. Brothers, K. N. Kudin, 
 V. N. Staroverov, T. A. Keith, R. Kobayashi, J. Normand, 
 K. Raghavachari, A. P. Rendell, J. C. Burant, S. S. Iyengar, 
 J. Tomasi, M. Cossi, J. M. Millam, M. Klene, C. Adamo, R. Cammi, 
 J. W. Ochterski, R. L. Martin, K. Morokuma, O. Farkas, 
 J. B. Foresman, and D. J. Fox, Gaussian, Inc., Wallingford CT, 2016.
 
 ******************************************
 Gaussian 16:  ES64L-G16RevA.03 25-Dec-2016
                28-May-2023 
 ******************************************
 %chk=OCCCNCCCCCPqOOrOCCS.chk
 %NProcShared=20
 Will use up to   20 processors via shared memory.
 -----------------------------
 # opt freq b3lyp/6-31g(2df,p)
 -----------------------------
 1/18=20,19=15,26=3,38=1/1,3;
 2/9=110,12=2,17=6,18=5,40=1/2;
 3/5=1,6=6,7=104,11=2,25=1,30=1,71=1,74=-5/1,2,3;
 4//1;
 5/5=2,38=5/2;
 6/7=2,8=2,9=2,10=2,28=1/1;
 7//1,2,3,16;
 1/18=20,19=15,26=3/3(2);
 2/9=110/2;
 99//99;
 2/9=110/2;
 3/5=1,6=6,7=104,11=2,25=1,30=1,71=1,74=-5/1,2,3;
 4/5=5,16=3,69=1/1;
 5/5=2,38=5/2;
 7//1,2,3,16;
 1/18=20,19=15,26=3/3(-5);
 2/9=110/2;
 6/7=2,8=2,9=2,10=2,19=2,28=1/1;
 99/9=1/99;
 -------------------
 Title Card Required
 -------------------
 Symbolic Z-matrix:
 Charge =  0 Multiplicity = 1
 O                     0.91006  -0.07501  -0.0005 
 C                     2.32978  -0.06316   0.01483 
 C                     2.84841  -1.39252  -0.51155 
 C                     4.37141  -1.39908  -0.51512 
 N                     4.87375  -2.67679  -1.01315 
 C                     6.33363  -2.67448  -1.01593 
 C                     6.85642  -4.00674  -1.53577 
 C                     8.38809  -4.0143   -1.52922 
 C                     8.90214  -5.34429  -2.06002 
 C                     10.4344  -5.43202  -2.10431 
 P                     10.92645  -7.14065  -2.63872 
 O                     10.48297  -7.05051  -4.19442 
 O                     9.09607  -7.45141  -4.33978 
 O                     12.54154  -7.02081  -2.83294 
 C                     13.15197  -8.25717  -3.24884 
 C                     14.67734  -8.19141  -3.20215 
 S                     15.40396  -9.73815  -3.84985 
 H                     0.61453   0.77939   0.35434 
 H                     2.66792   0.1065    1.04237 
 H                     2.67675   0.76408  -0.61299 
 H                     2.45632  -1.56546  -1.52197 
 H                     2.459    -2.21026   0.1085 
 H                     4.73618  -1.23239   0.50564 
 H                     4.73973  -0.57931  -1.14397 
 H                     4.52308  -2.84468  -1.95655 
 H                     6.70805  -2.51519   0.00203 
 H                     6.71112  -1.86347  -1.65006 
 H                     6.48794  -4.18248  -2.55522 
 H                     6.47813  -4.8281   -0.91301 
 H                     8.75757  -3.84889  -0.51097 
 H                     8.76265  -3.19621  -2.1556 
 H                     8.48946  -5.47509  -3.06678 
 H                     8.49642  -6.15658  -1.44218 
 H                     10.84422  -5.23887  -1.1071 
 H                     10.83754  -4.67298  -2.78402 
 H                     9.05765  -7.3321   -5.30727 
 H                     12.83063  -8.4746   -4.27559 
 H                     12.81939  -9.06877  -2.58707 
 H                     15.02993  -8.04104  -2.17668 
 H                     15.05222  -7.35514  -3.79966 
 H                     14.82854  -10.5791  -2.97515 
 

 GradGradGradGradGradGradGradGradGradGradGradGradGradGradGradGradGradGrad
 Berny optimization.
 Initialization pass.
                           ----------------------------
                           !    Initial Parameters    !
                           ! (Angstroms and Degrees)  !
 --------------------------                            --------------------------
 ! Name  Definition              Value          Derivative Info.                !
 --------------------------------------------------------------------------------
 ! R1    R(1,2)                  1.4199         estimate D2E/DX2                !
 ! R2    R(1,18)                 0.9712         estimate D2E/DX2                !
 ! R3    R(2,3)                  1.5209         estimate D2E/DX2                !
 ! R4    R(2,19)                 1.095          estimate D2E/DX2                !
 ! R5    R(2,20)                 1.0949         estimate D2E/DX2                !
 ! R6    R(3,4)                  1.523          estimate D2E/DX2                !
 ! R7    R(3,21)                 1.0975         estimate D2E/DX2                !
 ! R8    R(3,22)                 1.0976         estimate D2E/DX2                !
 ! R9    R(4,5)                  1.4605         estimate D2E/DX2                !
 ! R10   R(4,23)                 1.0967         estimate D2E/DX2                !
 ! R11   R(4,24)                 1.0969         estimate D2E/DX2                !
 ! R12   R(5,6)                  1.4599         estimate D2E/DX2                !
 ! R13   R(5,25)                 1.0204         estimate D2E/DX2                !
 ! R14   R(6,7)                  1.5226         estimate D2E/DX2                !
 ! R15   R(6,26)                 1.0963         estimate D2E/DX2                !
 ! R16   R(6,27)                 1.0965         estimate D2E/DX2                !
 ! R17   R(7,8)                  1.5317         estimate D2E/DX2                !
 ! R18   R(7,28)                 1.0982         estimate D2E/DX2                !
 ! R19   R(7,29)                 1.098          estimate D2E/DX2                !
 ! R20   R(8,9)                  1.5215         estimate D2E/DX2                !
 ! R21   R(8,30)                 1.0958         estimate D2E/DX2                !
 ! R22   R(8,31)                 1.0963         estimate D2E/DX2                !
 ! R23   R(9,10)                 1.5354         estimate D2E/DX2                !
 ! R24   R(9,32)                 1.0959         estimate D2E/DX2                !
 ! R25   R(9,33)                 1.0982         estimate D2E/DX2                !
 ! R26   R(10,11)                1.8566         estimate D2E/DX2                !
 ! R27   R(10,34)                1.0953         estimate D2E/DX2                !
 ! R28   R(10,35)                1.0958         estimate D2E/DX2                !
 ! R29   R(11,12)                1.6202         estimate D2E/DX2                !
 ! R30   R(11,14)                1.6311         estimate D2E/DX2                !
 ! R31   R(12,13)                1.451          estimate D2E/DX2                !
 ! R32   R(13,36)                0.9756         estimate D2E/DX2                !
 ! R33   R(14,15)                1.4402         estimate D2E/DX2                !
 ! R34   R(15,16)                1.5275         estimate D2E/DX2                !
 ! R35   R(15,37)                1.0976         estimate D2E/DX2                !
 ! R36   R(15,38)                1.0987         estimate D2E/DX2                !
 ! R37   R(16,17)                1.8275         estimate D2E/DX2                !
 ! R38   R(16,39)                1.0948         estimate D2E/DX2                !
 ! R39   R(16,40)                1.094          estimate D2E/DX2                !
 ! R40   R(17,41)                1.3429         estimate D2E/DX2                !
 ! A1    A(2,1,18)             107.0362         estimate D2E/DX2                !
 ! A2    A(1,2,3)              109.2646         estimate D2E/DX2                !
 ! A3    A(1,2,19)             108.6755         estimate D2E/DX2                !
 ! A4    A(1,2,20)             108.48           estimate D2E/DX2                !
 ! A5    A(3,2,19)             110.7874         estimate D2E/DX2                !
 ! A6    A(3,2,20)             110.7232         estimate D2E/DX2                !
 ! A7    A(19,2,20)            108.8538         estimate D2E/DX2                !
 ! A8    A(2,3,4)              110.2163         estimate D2E/DX2                !
 ! A9    A(2,3,21)             109.5435         estimate D2E/DX2                !
 ! A10   A(2,3,22)             109.5532         estimate D2E/DX2                !
 ! A11   A(4,3,21)             110.7569         estimate D2E/DX2                !
 ! A12   A(4,3,22)             110.6638         estimate D2E/DX2                !
 ! A13   A(21,3,22)            106.0172         estimate D2E/DX2                !
 ! A14   A(3,4,5)              110.3971         estimate D2E/DX2                !
 ! A15   A(3,4,23)             109.2542         estimate D2E/DX2                !
 ! A16   A(3,4,24)             109.5063         estimate D2E/DX2                !
 ! A17   A(5,4,23)             109.631          estimate D2E/DX2                !
 ! A18   A(5,4,24)             110.0505         estimate D2E/DX2                !
 ! A19   A(23,4,24)            107.9584         estimate D2E/DX2                !
 ! A20   A(4,5,6)              110.0735         estimate D2E/DX2                !
 ! A21   A(4,5,25)             109.9395         estimate D2E/DX2                !
 ! A22   A(6,5,25)             110.009          estimate D2E/DX2                !
 ! A23   A(5,6,7)              110.0358         estimate D2E/DX2                !
 ! A24   A(5,6,26)             109.8769         estimate D2E/DX2                !
 ! A25   A(5,6,27)             110.2754         estimate D2E/DX2                !
 ! A26   A(7,6,26)             109.0799         estimate D2E/DX2                !
 ! A27   A(7,6,27)             109.36           estimate D2E/DX2                !
 ! A28   A(26,6,27)            108.177          estimate D2E/DX2                !
 ! A29   A(6,7,8)              110.2547         estimate D2E/DX2                !
 ! A30   A(6,7,28)             109.9837         estimate D2E/DX2                !
 ! A31   A(6,7,29)             110.035          estimate D2E/DX2                !
 ! A32   A(8,7,28)             109.7988         estimate D2E/DX2                !
 ! A33   A(8,7,29)             109.7798         estimate D2E/DX2                !
 ! A34   A(28,7,29)            106.9308         estimate D2E/DX2                !
 ! A35   A(7,8,9)              109.9183         estimate D2E/DX2                !
 ! A36   A(7,8,30)             109.9018         estimate D2E/DX2                !
 ! A37   A(7,8,31)             109.6041         estimate D2E/DX2                !
 ! A38   A(9,8,30)             110.0125         estimate D2E/DX2                !
 ! A39   A(9,8,31)             109.7272         estimate D2E/DX2                !
 ! A40   A(30,8,31)            107.6429         estimate D2E/DX2                !
 ! A41   A(8,9,10)             113.4021         estimate D2E/DX2                !
 ! A42   A(8,9,32)             107.3137         estimate D2E/DX2                !
 ! A43   A(8,9,33)             108.9934         estimate D2E/DX2                !
 ! A44   A(10,9,32)            110.0279         estimate D2E/DX2                !
 ! A45   A(10,9,33)            110.0374         estimate D2E/DX2                !
 ! A46   A(32,9,33)            106.8233         estimate D2E/DX2                !
 ! A47   A(9,10,11)            108.9876         estimate D2E/DX2                !
 ! A48   A(9,10,34)            109.6976         estimate D2E/DX2                !
 ! A49   A(9,10,35)            110.2106         estimate D2E/DX2                !
 ! A50   A(11,10,34)           108.9767         estimate D2E/DX2                !
 ! A51   A(11,10,35)           111.1883         estimate D2E/DX2                !
 ! A52   A(34,10,35)           107.7549         estimate D2E/DX2                !
 ! A53   A(10,11,12)            98.7798         estimate D2E/DX2                !
 ! A54   A(10,11,14)           103.2426         estimate D2E/DX2                !
 ! A55   A(12,11,14)            98.7782         estimate D2E/DX2                !
 ! A56   A(11,12,13)           110.0265         estimate D2E/DX2                !
 ! A57   A(12,13,36)            95.9236         estimate D2E/DX2                !
 ! A58   A(11,14,15)           113.0164         estimate D2E/DX2                !
 ! A59   A(14,15,16)           112.1773         estimate D2E/DX2                !
 ! A60   A(14,15,37)           108.4275         estimate D2E/DX2                !
 ! A61   A(14,15,38)           109.3833         estimate D2E/DX2                !
 ! A62   A(16,15,37)           109.237          estimate D2E/DX2                !
 ! A63   A(16,15,38)           108.4006         estimate D2E/DX2                !
 ! A64   A(37,15,38)           109.176          estimate D2E/DX2                !
 ! A65   A(15,16,17)           110.4733         estimate D2E/DX2                !
 ! A66   A(15,16,39)           110.8648         estimate D2E/DX2                !
 ! A67   A(15,16,40)           111.0017         estimate D2E/DX2                !
 ! A68   A(17,16,39)           108.6734         estimate D2E/DX2                !
 ! A69   A(17,16,40)           108.4902         estimate D2E/DX2                !
 ! A70   A(39,16,40)           107.2314         estimate D2E/DX2                !
 ! A71   A(16,17,41)            97.3996         estimate D2E/DX2                !
 ! D1    D(18,1,2,3)           179.069          estimate D2E/DX2                !
 ! D2    D(18,1,2,19)           58.0728         estimate D2E/DX2                !
 ! D3    D(18,1,2,20)          -60.1321         estimate D2E/DX2                !
 ! D4    D(1,2,3,4)            179.541          estimate D2E/DX2                !
 ! D5    D(1,2,3,21)            57.4355         estimate D2E/DX2                !
 ! D6    D(1,2,3,22)           -58.4635         estimate D2E/DX2                !
 ! D7    D(19,2,3,4)           -60.7567         estimate D2E/DX2                !
 ! D8    D(19,2,3,21)          177.1379         estimate D2E/DX2                !
 ! D9    D(19,2,3,22)           61.2389         estimate D2E/DX2                !
 ! D10   D(20,2,3,4)            60.1196         estimate D2E/DX2                !
 ! D11   D(20,2,3,21)          -61.9858         estimate D2E/DX2                !
 ! D12   D(20,2,3,22)         -177.8849         estimate D2E/DX2                !
 ! D13   D(2,3,4,5)            179.6925         estimate D2E/DX2                !
 ! D14   D(2,3,4,23)            59.0582         estimate D2E/DX2                !
 ! D15   D(2,3,4,24)           -58.9902         estimate D2E/DX2                !
 ! D16   D(21,3,4,5)           -58.9217         estimate D2E/DX2                !
 ! D17   D(21,3,4,23)         -179.556          estimate D2E/DX2                !
 ! D18   D(21,3,4,24)           62.3956         estimate D2E/DX2                !
 ! D19   D(22,3,4,5)            58.3562         estimate D2E/DX2                !
 ! D20   D(22,3,4,23)          -62.2781         estimate D2E/DX2                !
 ! D21   D(22,3,4,24)          179.6735         estimate D2E/DX2                !
 ! D22   D(3,4,5,6)            179.8946         estimate D2E/DX2                !
 ! D23   D(3,4,5,25)            58.556          estimate D2E/DX2                !
 ! D24   D(23,4,5,6)           -59.6967         estimate D2E/DX2                !
 ! D25   D(23,4,5,25)          178.9647         estimate D2E/DX2                !
 ! D26   D(24,4,5,6)            58.901          estimate D2E/DX2                !
 ! D27   D(24,4,5,25)          -62.4377         estimate D2E/DX2                !
 ! D28   D(4,5,6,7)           -179.9795         estimate D2E/DX2                !
 ! D29   D(4,5,6,26)            59.8993         estimate D2E/DX2                !
 ! D30   D(4,5,6,27)           -59.2566         estimate D2E/DX2                !
 ! D31   D(25,5,6,7)           -58.6824         estimate D2E/DX2                !
 ! D32   D(25,5,6,26)         -178.8036         estimate D2E/DX2                !
 ! D33   D(25,5,6,27)           62.0405         estimate D2E/DX2                !
 ! D34   D(5,6,7,8)           -179.5039         estimate D2E/DX2                !
 ! D35   D(5,6,7,28)            59.2735         estimate D2E/DX2                !
 ! D36   D(5,6,7,29)           -58.2714         estimate D2E/DX2                !
 ! D37   D(26,6,7,8)           -58.9014         estimate D2E/DX2                !
 ! D38   D(26,6,7,28)          179.8759         estimate D2E/DX2                !
 ! D39   D(26,6,7,29)           62.3311         estimate D2E/DX2                !
 ! D40   D(27,6,7,8)            59.2242         estimate D2E/DX2                !
 ! D41   D(27,6,7,28)          -61.9985         estimate D2E/DX2                !
 ! D42   D(27,6,7,29)         -179.5433         estimate D2E/DX2                !
 ! D43   D(6,7,8,9)           -179.5602         estimate D2E/DX2                !
 ! D44   D(6,7,8,30)            59.2213         estimate D2E/DX2                !
 ! D45   D(6,7,8,31)           -58.8851         estimate D2E/DX2                !
 ! D46   D(28,7,8,9)           -58.2274         estimate D2E/DX2                !
 ! D47   D(28,7,8,30)         -179.4459         estimate D2E/DX2                !
 ! D48   D(28,7,8,31)           62.4477         estimate D2E/DX2                !
 ! D49   D(29,7,8,9)            59.0554         estimate D2E/DX2                !
 ! D50   D(29,7,8,30)          -62.1631         estimate D2E/DX2                !
 ! D51   D(29,7,8,31)          179.7304         estimate D2E/DX2                !
 ! D52   D(7,8,9,10)           179.2961         estimate D2E/DX2                !
 ! D53   D(7,8,9,32)            57.5742         estimate D2E/DX2                !
 ! D54   D(7,8,9,33)           -57.7608         estimate D2E/DX2                !
 ! D55   D(30,8,9,10)          -59.5518         estimate D2E/DX2                !
 ! D56   D(30,8,9,32)          178.7263         estimate D2E/DX2                !
 ! D57   D(30,8,9,33)           63.3914         estimate D2E/DX2                !
 ! D58   D(31,8,9,10)           58.6954         estimate D2E/DX2                !
 ! D59   D(31,8,9,32)          -63.0266         estimate D2E/DX2                !
 ! D60   D(31,8,9,33)         -178.3615         estimate D2E/DX2                !
 ! D61   D(8,9,10,11)          175.5525         estimate D2E/DX2                !
 ! D62   D(8,9,10,34)           56.3135         estimate D2E/DX2                !
 ! D63   D(8,9,10,35)          -62.1726         estimate D2E/DX2                !
 ! D64   D(32,9,10,11)         -64.2548         estimate D2E/DX2                !
 ! D65   D(32,9,10,34)         176.5062         estimate D2E/DX2                !
 ! D66   D(32,9,10,35)          58.0201         estimate D2E/DX2                !
 ! D67   D(33,9,10,11)          53.1868         estimate D2E/DX2                !
 ! D68   D(33,9,10,34)         -66.0522         estimate D2E/DX2                !
 ! D69   D(33,9,10,35)         175.4617         estimate D2E/DX2                !
 ! D70   D(9,10,11,12)          71.3848         estimate D2E/DX2                !
 ! D71   D(9,10,11,14)         172.6287         estimate D2E/DX2                !
 ! D72   D(34,10,11,12)       -168.9283         estimate D2E/DX2                !
 ! D73   D(34,10,11,14)        -67.6845         estimate D2E/DX2                !
 ! D74   D(35,10,11,12)        -50.2983         estimate D2E/DX2                !
 ! D75   D(35,10,11,14)         50.9455         estimate D2E/DX2                !
 ! D76   D(10,11,12,13)        -88.6125         estimate D2E/DX2                !
 ! D77   D(14,11,12,13)        166.4131         estimate D2E/DX2                !
 ! D78   D(10,11,14,15)        179.7302         estimate D2E/DX2                !
 ! D79   D(12,11,14,15)        -79.0247         estimate D2E/DX2                !
 ! D80   D(11,12,13,36)       -179.4984         estimate D2E/DX2                !
 ! D81   D(11,14,15,16)       -170.5417         estimate D2E/DX2                !
 ! D82   D(11,14,15,37)         68.7382         estimate D2E/DX2                !
 ! D83   D(11,14,15,38)        -50.2253         estimate D2E/DX2                !
 ! D84   D(14,15,16,17)       -175.9846         estimate D2E/DX2                !
 ! D85   D(14,15,16,39)         63.4813         estimate D2E/DX2                !
 ! D86   D(14,15,16,40)        -55.5905         estimate D2E/DX2                !
 ! D87   D(37,15,16,17)        -55.7334         estimate D2E/DX2                !
 ! D88   D(37,15,16,39)       -176.2675         estimate D2E/DX2                !
 ! D89   D(37,15,16,40)         64.6607         estimate D2E/DX2                !
 ! D90   D(38,15,16,17)         63.1304         estimate D2E/DX2                !
 ! D91   D(38,15,16,39)        -57.4038         estimate D2E/DX2                !
 ! D92   D(38,15,16,40)       -176.4756         estimate D2E/DX2                !
 ! D93   D(15,16,17,41)        -58.8921         estimate D2E/DX2                !
 ! D94   D(39,16,17,41)         62.9434         estimate D2E/DX2                !
 ! D95   D(40,16,17,41)        179.2216         estimate D2E/DX2                !
 --------------------------------------------------------------------------------
 Trust Radius=3.00D-01 FncErr=1.00D-07 GrdErr=1.00D-06 EigMax=2.50D+02 EigMin=1.00D-04
 Number of steps in this run=    216 maximum allowed number of steps=    246.
 GradGradGradGradGradGradGradGradGradGradGradGradGradGradGradGradGradGrad

                          Input orientation:                          
 ---------------------------------------------------------------------
 Center     Atomic      Atomic             Coordinates (Angstroms)
 Number     Number       Type             X           Y           Z
 ---------------------------------------------------------------------
      1          8           0        0.910060   -0.075010   -0.000500
      2          6           0        2.329780   -0.063160    0.014830
      3          6           0        2.848410   -1.392520   -0.511550
      4          6           0        4.371410   -1.399080   -0.515120
      5          7           0        4.873750   -2.676790   -1.013150
      6          6           0        6.333630   -2.674480   -1.015930
      7          6           0        6.856420   -4.006740   -1.535770
      8          6           0        8.388090   -4.014300   -1.529220
      9          6           0        8.902140   -5.344290   -2.060020
     10          6           0       10.434400   -5.432020   -2.104310
     11         15           0       10.926450   -7.140650   -2.638720
     12          8           0       10.482970   -7.050510   -4.194420
     13          8           0        9.096070   -7.451410   -4.339780
     14          8           0       12.541540   -7.020810   -2.832940
     15          6           0       13.151970   -8.257170   -3.248840
     16          6           0       14.677340   -8.191410   -3.202150
     17         16           0       15.403960   -9.738150   -3.849850
     18          1           0        0.614530    0.779390    0.354340
     19          1           0        2.667920    0.106500    1.042370
     20          1           0        2.676750    0.764080   -0.612990
     21          1           0        2.456320   -1.565460   -1.521970
     22          1           0        2.459000   -2.210260    0.108500
     23          1           0        4.736180   -1.232390    0.505640
     24          1           0        4.739730   -0.579310   -1.143970
     25          1           0        4.523080   -2.844680   -1.956550
     26          1           0        6.708050   -2.515190    0.002030
     27          1           0        6.711120   -1.863470   -1.650060
     28          1           0        6.487940   -4.182480   -2.555220
     29          1           0        6.478130   -4.828100   -0.913010
     30          1           0        8.757570   -3.848890   -0.510970
     31          1           0        8.762650   -3.196210   -2.155600
     32          1           0        8.489460   -5.475090   -3.066780
     33          1           0        8.496420   -6.156580   -1.442180
     34          1           0       10.844220   -5.238870   -1.107100
     35          1           0       10.837540   -4.672980   -2.784020
     36          1           0        9.057650   -7.332100   -5.307270
     37          1           0       12.830630   -8.474600   -4.275590
     38          1           0       12.819390   -9.068770   -2.587070
     39          1           0       15.029930   -8.041040   -2.176680
     40          1           0       15.052220   -7.355140   -3.799660
     41          1           0       14.828540  -10.579100   -2.975150
 ---------------------------------------------------------------------
                    Distance matrix (angstroms):
                    1          2          3          4          5
     1  O    0.000000
     2  C    1.419852   0.000000
     3  C    2.398792   1.520938   0.000000
     4  C    3.741516   2.496754   1.523018   0.000000
     5  N    4.848253   3.789405   2.450093   1.460453   0.000000
     6  C    6.099463   4.890018   3.747610   2.393275   1.459884
     7  C    7.292102   6.200537   4.893600   3.743914   2.443947
     8  C    8.589291   7.395858   6.212684   4.899132   3.795504
     9  C    9.791847   8.682814   7.393368   6.203137   4.943624
    10  C   11.128191   9.949888   8.740806   7.453186   6.301012
    11  P   12.538403  11.447049  10.140048   8.969050   7.694394
    12  O   12.565316  11.533228  10.191314   9.100938   7.791871
    13  O   11.842778  10.923898   9.507826   8.577945   7.189677
    14  O   13.840455  12.680644  11.446540  10.184653   8.998730
    15  C   15.078588  13.961130  12.679887  11.471916  10.230732
    16  C   16.299218  15.128769  13.906395  12.632026  11.459194
    17  S   17.840037  16.717517  15.441361  14.225951  12.992113
    18  H    0.971210   1.940938   3.233756   4.428977   5.652978
    19  H    2.051974   1.094971   2.166634   2.755798   4.103359
    20  H    2.049490   1.094930   2.165798   2.749675   4.102015
    21  H    2.631964   2.152829   1.097539   2.170023   2.708860
    22  H    2.640149   2.153024   1.097634   2.168923   2.703103
    23  H    4.029256   2.720065   2.150347   1.096720   2.100462
    24  H    4.028426   2.723433   2.153684   1.096875   2.105825
    25  H    4.954908   4.053857   2.645999   2.047067   1.020373
    26  H    6.290562   5.018153   4.052280   2.640650   2.102703
    27  H    6.290623   5.020868   4.054445   2.641588   2.107860
    28  H    7.383133   6.392515   5.020622   4.048336   2.692711
    29  H    7.377530   6.385479   5.013905   4.044102   2.685554
    30  H    8.722738   7.478282   6.399369   5.023941   4.087794
    31  H    8.720637   7.477204   6.398002   5.020343   4.086384
    32  H    9.798482   8.759393   7.417414   6.331126   5.012109
    33  H    9.829384   8.790910   7.447305   6.364664   5.041502
    34  H   11.250669  10.027083   8.892810   7.549285   6.497661
    35  H   11.289117  10.073032   8.930383   7.594548   6.533571
    36  H   12.133029  11.243953   9.840335   8.951328   7.590547
    37  H   15.196365  14.121894  12.805021  11.651718  10.371598
    38  H   15.146293  14.067793  12.753550  11.596788  10.318325
    39  H   16.357387  15.157279  13.977300  12.668088  11.544565
    40  H   16.353428  15.152022  13.974888  12.662644  11.543520
    41  H   17.689221  16.605541  15.296604  14.130679  12.860552
                    6          7          8          9         10
     6  C    0.000000
     7  C    1.522649   0.000000
     8  C    2.505871   1.531703   0.000000
     9  C    3.849059   2.499770   1.521470   0.000000
    10  C    5.060130   3.893148   2.555004   1.535408   0.000000
    11  P    6.608640   5.253859   4.177119   2.767604   1.856643
    12  O    6.816851   5.429993   4.550866   3.156877   2.643942
    13  O    6.441903   4.974360   4.496021   3.110445   3.296421
    14  O    7.792962   6.564134   5.290551   4.080852   2.737735
    15  C    9.090769   7.786830   6.607086   5.287648   4.083700
    16  C   10.238827   9.025247   7.733150   6.539380   5.178999
    17  S   11.840499  10.548197   9.347204   8.048799   6.803396
    18  H    6.820188   8.089546   9.324993  10.583623  11.876718
    19  H    5.040623   6.411636   7.504293   8.843157  10.044651
    20  H    5.035755   6.409515   7.502786   8.840903  10.039762
    21  H    4.064423   5.031990   6.417380   7.491171   8.884772
    22  H    4.061108   5.026755   6.410210   7.485898   8.881625
    23  H    2.635649   4.044724   5.021566   6.391053   7.544431
    24  H    2.635650   4.047365   5.025744   6.392952   7.543230
    25  H    2.047395   2.640438   4.060656   5.043305   6.454445
    26  H    1.096269   2.147455   2.722975   4.131572   5.179792
    27  H    1.096520   2.151228   2.730000   4.133370   5.177230
    28  H    2.160391   1.098153   2.165994   2.724589   4.164038
    29  H    2.160915   1.097983   2.165625   2.730917   4.175642
    30  H    2.740385   2.165526   1.095769   2.157934   2.802997
    31  H    2.733347   2.162143   1.096320   2.154725   2.792172
    32  H    4.086197   2.677100   2.123270   1.095892   2.170483
    33  H    4.121210   2.705581   2.146782   1.098249   2.172365
    34  H    5.189396   4.195766   2.776748   2.165836   1.095302
    35  H    5.235012   4.225082   2.829874   2.172696   1.095751
    36  H    6.894150   5.488866   5.072452   3.810539   3.970478
    37  H    9.299343   7.947300   6.868259   5.490048   4.440008
    38  H    9.242322   7.892173   6.804641   5.430873   4.375750
    39  H   10.284597   9.137429   7.794093   6.695960   5.284990
    40  H   10.279666   9.138278   7.792736   6.700250   5.281748
    41  H   11.767967  10.431799   9.309496   7.960083   6.823435
                   11         12         13         14         15
    11  P    0.000000
    12  O    1.620186   0.000000
    13  O    2.518029   1.450980   0.000000
    14  O    1.631134   2.468242   3.785135   0.000000
    15  C    2.563553   3.077939   4.276649   1.440203   0.000000
    16  C    3.935826   4.458586   5.743899   2.463384   1.527501
    17  S    5.316196   5.617676   6.727458   4.075720   2.761517
    18  H   13.342456  13.393456  12.716814  14.603268  15.869144
    19  H   11.587706  11.820396  11.287633  12.779082  14.081220
    20  H   11.603701  11.611698  11.072078  12.761143  14.073411
    21  H   10.201616  10.082404   9.309712  11.540847  12.734127
    22  H   10.176133  10.311510   9.555498  11.552103  12.734852
    23  H    9.116687   9.432215   9.009048  10.274997  11.587458
    24  H    9.141169   9.174229   8.741662  10.257377  11.582133
    25  H    7.741050   7.630030   6.914766   9.083161  10.267561
    26  H    6.794361   7.240811   6.994299   7.897295   9.222939
    27  H    6.826059   6.899710   6.644370   7.873446   9.215207
    28  H    5.334615   5.183902   4.546746   6.691735   7.841779
    29  H    5.302218   5.634315   5.047585   6.727485   7.858420
    30  H    4.479625   5.176406   5.268066   5.456285   6.799972
    31  H    4.524825   4.687421   4.794636   5.419074   6.787829
    32  H    2.982657   2.779857   2.427827   4.343188   5.432505
    33  H    2.881865   3.510031   3.229899   4.363955   5.417624
    34  H    2.443233   3.597789   4.289706   3.005783   4.361524
    35  H    2.473542   2.787041   3.629432   2.901433   4.291743
    36  H    3.263468   1.830100   0.975576   4.284472   4.675077
    37  H    2.843355   2.747022   3.872722   2.068409   1.097611
    38  H    2.702506   3.480777   4.421646   2.081296   1.098746
    39  H    4.226432   5.072206   6.343292   2.768326   2.173240
    40  H    4.291359   4.596377   5.981364   2.711058   2.174399
    41  H    5.211759   5.729009   6.671272   4.232259   2.877004
                   16         17         18         19         20
    16  C    0.000000
    17  S    1.827538   0.000000
    18  H   17.055395  18.628502   0.000000
    19  H   15.201889  16.824318   2.267725   0.000000
    20  H   15.196010  16.815349   2.277875   1.781209   0.000000
    21  H   14.002841  15.487197   3.522932   3.068561   2.510297
    22  H   14.000800  15.489017   3.521436   2.506619   3.068332
    23  H   12.688669  14.322003   4.588916   2.521588   3.078714
    24  H   12.686066  14.315444   4.594374   3.089145   2.518437
    25  H   11.543311  13.019142   5.809549   4.598326   4.270508
    26  H   10.295427  11.942654   6.936092   4.927293   5.232900
    27  H   10.291378  11.933781   6.940514   5.241892   4.925005
    28  H    9.140914  10.584751   8.220866   6.777209   6.539563
    29  H    9.153090  10.602078   8.211694   6.533872   6.768529
    30  H    7.819438   9.487149   9.406319   7.425753   7.633235
    31  H    7.812224   9.474939   9.407287   7.634176   7.423053
    32  H    6.759185   8.160710  10.622481   9.051496   8.873327
    33  H    6.741053   8.144853  10.651730   8.909016   9.080289
    34  H    5.272527   6.968316  11.958337  10.002254  10.148257
    35  H    5.224772   6.902473  12.003648  10.209181  10.043579
    36  H    6.062249   6.941815  13.005244  11.682438  11.326971
    37  H    2.154718   2.898248  16.009550  14.324687  14.208066
    38  H    2.144776   2.953419  15.956088  14.156651  14.263768
    39  H    1.094769   2.412380  17.088294  15.151369  15.250453
    40  H    1.094030   2.409352  17.084296  15.247695  15.140306
    41  H    2.403217   1.342909  18.496996  16.679424  16.790281
                   21         22         23         24         25
    21  H    0.000000
    22  H    1.753342   0.000000
    23  H    3.069185   2.509880   0.000000
    24  H    2.515817   3.070897   1.774187   0.000000
    25  H    2.469162   2.987867   2.950808   2.416428   0.000000
    26  H    4.615384   4.261308   2.405716   2.989186   2.952743
    27  H    4.267147   4.614469   2.990935   2.406569   2.417484
    28  H    4.916336   5.217031   4.597886   4.246257   2.451283
    29  H    5.214461   4.904077   4.239822   4.596476   2.974080
    30  H    6.778047   6.537648   4.904197   5.218609   4.585744
    31  H    6.544511   6.770100   5.210686   4.904635   4.258773
    32  H    7.353259   7.556981   6.696999   6.459592   4.887109
    33  H    7.587329   7.377567   6.494694   6.731091   5.198143
    34  H    9.166402   8.997893   7.480706   7.679691   6.812527
    35  H    9.027419   9.199543   7.738612   7.525369   6.625692
    36  H    9.547785   9.955199   9.469503   9.032036   7.206011
    37  H   12.764989  12.885376  11.867177  11.730529  10.299968
    38  H   12.838509  12.713888  11.675273  11.808233  10.390650
    39  H   14.158300  14.044512  12.629879  12.752730  11.723673
    40  H   14.048664  14.153893  12.745366  12.621886  11.601900
    41  H   15.376257  15.249652  14.189173  14.322469  12.925220
                   26         27         28         29         30
    26  H    0.000000
    27  H    1.775993   0.000000
    28  H    3.060691   2.499386   0.000000
    29  H    2.497942   3.063749   1.764589   0.000000
    30  H    2.498491   3.070403   3.072696   2.513232   0.000000
    31  H    3.056229   2.498108   2.511320   3.070200   1.769414
    32  H    4.620825   4.267715   2.436928   3.017080   3.041147
    33  H    4.306243   4.654171   3.028188   2.473535   2.502156
    34  H    5.075087   5.363828   4.710646   4.389663   2.577115
    35  H    5.428703   5.119234   4.383145   4.746493   3.189382
    36  H    7.543998   6.984791   4.908900   5.677452   5.935259
    37  H    9.555029   9.383435   7.849311   8.059663   7.222145
    38  H    9.327450   9.492381   7.997756   7.810079   6.932223
    39  H   10.224259  10.375081   9.380691   9.222425   7.726009
    40  H   10.368372  10.215340   9.217445   9.393279   7.920347
    41  H   11.825084  11.983763  10.519444  10.346776   9.392794
                   31         32         33         34         35
    31  H    0.000000
    32  H    2.469448   0.000000
    33  H    3.056736   1.761761   0.000000
    34  H    3.099152   3.072628   2.542958   0.000000
    35  H    2.623153   2.497361   3.079358   1.769841   0.000000
    36  H    5.208228   2.964983   4.078694   5.021441   4.075011
    37  H    6.993155   5.413320   5.673342   4.945210   4.544172
    38  H    7.150543   5.647384   5.336637   4.556286   4.825918
    39  H    7.921592   7.081958   6.839403   5.149401   5.411915
    40  H    7.717404   6.865968   7.069142   5.425472   5.097944
    41  H    9.590294   8.138996   7.874289   6.919716   7.130699
                   36         37         38         39         40
    36  H    0.000000
    37  H    4.074929   0.000000
    38  H    4.956430   1.790046   0.000000
    39  H    6.780215   3.070882   2.472071   0.000000
    40  H    6.181285   2.532817   3.064708   1.762107   0.000000
    41  H    7.020325   3.179891   2.543302   2.668307   3.335231
                   41
    41  H    0.000000
 Stoichiometry    C10H24NO4PS
 Framework group  C1[X(C10H24NO4PS)]
 Deg. of freedom   117
 Full point group                 C1      NOp   1
 Largest Abelian subgroup         C1      NOp   1
 Largest concise Abelian subgroup C1      NOp   1
                         Standard orientation:                         
 ---------------------------------------------------------------------
 Center     Atomic      Atomic             Coordinates (Angstroms)
 Number     Number       Type             X           Y           Z
 ---------------------------------------------------------------------
      1          8           0       -9.692864    0.373855   -0.227993
      2          6           0       -8.576422   -0.422744    0.139385
      3          6           0       -7.294998    0.307351   -0.232317
      4          6           0       -6.081842   -0.524176    0.163160
      5          7           0       -4.848982    0.170135   -0.198657
      6          6           0       -3.691088   -0.631644    0.185654
      7          6           0       -2.406256    0.093224   -0.191484
      8          6           0       -1.188016   -0.749357    0.198467
      9          6           0        0.091158   -0.013466   -0.171733
     10          6           0        1.366773   -0.782343    0.201244
     11         15           0        2.842154    0.156675   -0.422151
     12          8           0        2.802018    1.398797    0.617332
     13          8           0        1.960593    2.458351    0.093221
     14          8           0        4.101765   -0.660588    0.215076
     15          6           0        5.378026   -0.101368   -0.149085
     16          6           0        6.540703   -1.003927    0.259362
     17         16           0        8.137637   -0.198522   -0.116165
     18          1           0      -10.490308   -0.127252    0.009126
     19          1           0       -8.642852   -1.382195   -0.384068
     20          1           0       -8.619763   -0.604535    1.218249
     21          1           0       -7.273528    1.286611    0.262840
     22          1           0       -7.288866    0.512950   -1.310506
     23          1           0       -6.123890   -1.492239   -0.350533
     24          1           0       -6.103801   -0.713291    1.243385
     25          1           0       -4.813095    1.079167    0.263438
     26          1           0       -3.720665   -1.599447   -0.328435
     27          1           0       -3.699616   -0.817895    1.266207
     28          1           0       -2.362371    1.066956    0.314343
     29          1           0       -2.389896    0.292696   -1.271071
     30          1           0       -1.225021   -1.717688   -0.313075
     31          1           0       -1.204654   -0.942722    1.277472
     32          1           0        0.071749    0.953667    0.343298
     33          1           0        0.081798    0.199865   -1.249023
     34          1           0        1.351092   -1.772558   -0.266640
     35          1           0        1.418432   -0.926240    1.286276
     36          1           0        2.088463    3.068832    0.843361
     37          1           0        5.484455    0.872113    0.346655
     38          1           0        5.416086    0.041955   -1.237778
     39          1           0        6.497065   -1.960324   -0.271600
     40          1           0        6.507374   -1.225884    1.330121
     41          1           0        7.949867   -0.049880   -1.437548
 ---------------------------------------------------------------------
 Rotational constants (GHZ):           1.9955030           0.0593666           0.0581671
 Standard basis: 6-31G(2df,p) (6D, 7F)
 There are   655 symmetry adapted cartesian basis functions of A   symmetry.
 There are   604 symmetry adapted basis functions of A   symmetry.
   604 basis functions,   964 primitive gaussians,   655 cartesian basis functions
    77 alpha electrons       77 beta electrons
       nuclear repulsion energy      1393.6690492293 Hartrees.
 NAtoms=   41 NActive=   41 NUniq=   41 SFac= 1.00D+00 NAtFMM=   60 NAOKFM=F Big=F
 Integral buffers will be    131072 words long.
 Raffenetti 2 integral format.
 Two-electron integral symmetry is turned on.
 One-electron integrals computed using PRISM.
 PrsmSu:  requested number of processors reduced to:  12 ShMem   1 Linda.
 NBasis=   604 RedAO= T EigKep=  3.26D-04  NBF=   604
 NBsUse=   604 1.00D-06 EigRej= -1.00D+00 NBFU=   604
 ExpMin= 9.98D-02 ExpMax= 2.19D+04 ExpMxC= 3.30D+03 IAcc=3 IRadAn=         5 AccDes= 0.00D+00
 Harris functional with IExCor=  402 and IRadAn=       5 diagonalized for initial guess.
 HarFok:  IExCor=  402 AccDes= 0.00D+00 IRadAn=         5 IDoV= 1 UseB2=F ITyADJ=14
 ICtDFT=  3500011 ScaDFX=  1.000000  1.000000  1.000000  1.000000
 FoFCou: FMM=F IPFlag=           0 FMFlag=      100000 FMFlg1=           0
         NFxFlg=           0 DoJE=T BraDBF=F KetDBF=T FulRan=T
         wScrn=  0.000000 ICntrl=       500 IOpCl=  0 I1Cent=   200000004 NGrid=           0
         NMat0=    1 NMatS0=      1 NMatT0=    0 NMatD0=    1 NMtDS0=    0 NMtDT0=    0
 Petite list used in FoFCou.
 Requested convergence on RMS density matrix=1.00D-08 within 128 cycles.
 Requested convergence on MAX density matrix=1.00D-06.
 Requested convergence on             energy=1.00D-06.
 No special actions if energy rises.
 Integral accuracy reduced to 1.0D-05 until final iterations.
 Initial convergence to 1.0D-05 achieved.  Increase integral accuracy.
 SCF Done:  E(RB3LYP) =  -1490.67339733     A.U. after   13 cycles
            NFock= 13  Conv=0.46D-08     -V/T= 2.0050

 **********************************************************************

            Population analysis using the SCF density.

 **********************************************************************

 Orbital symmetries:
       Occupied  (A) (A) (A) (A) (A) (A) (A) (A) (A) (A) (A) (A)
                 (A) (A) (A) (A) (A) (A) (A) (A) (A) (A) (A) (A)
                 (A) (A) (A) (A) (A) (A) (A) (A) (A) (A) (A) (A)
                 (A) (A) (A) (A) (A) (A) (A) (A) (A) (A) (A) (A)
                 (A) (A) (A) (A) (A) (A) (A) (A) (A) (A) (A) (A)
                 (A) (A) (A) (A) (A) (A) (A) (A) (A) (A) (A) (A)
                 (A) (A) (A) (A) (A)
       Virtual   (A) (A) (A) (A) (A) (A) (A) (A) (A) (A) (A) (A)
                 (A) (A) (A) (A) (A) (A) (A) (A) (A) (A) (A) (A)
                 (A) (A) (A) (A) (A) (A) (A) (A) (A) (A) (A) (A)
                 (A) (A) (A) (A) (A) (A) (A) (A) (A) (A) (A) (A)
                 (A) (A) (A) (A) (A) (A) (A) (A) (A) (A) (A) (A)
                 (A) (A) (A) (A) (A) (A) (A) (A) (A) (A) (A) (A)
                 (A) (A) (A) (A) (A) (A) (A) (A) (A) (A) (A) (A)
                 (A) (A) (A) (A) (A) (A) (A) (A) (A) (A) (A) (A)
                 (A) (A) (A) (A) (A) (A) (A) (A) (A) (A) (A) (A)
                 (A) (A) (A) (A) (A) (A) (A) (A) (A) (A) (A) (A)
                 (A) (A) (A) (A) (A) (A) (A) (A) (A) (A) (A) (A)
                 (A) (A) (A) (A) (A) (A) (A) (A) (A) (A) (A) (A)
                 (A) (A) (A) (A) (A) (A) (A) (A) (A) (A) (A) (A)
                 (A) (A) (A) (A) (A) (A) (A) (A) (A) (A) (A) (A)
                 (A) (A) (A) (A) (A) (A) (A) (A) (A) (A) (A) (A)
                 (A) (A) (A) (A) (A) (A) (A) (A) (A) (A) (A) (A)
                 (A) (A) (A) (A) (A) (A) (A) (A) (A) (A) (A) (A)
                 (A) (A) (A) (A) (A) (A) (A) (A) (A) (A) (A) (A)
                 (A) (A) (A) (A) (A) (A) (A) (A) (A) (A) (A) (A)
                 (A) (A) (A) (A) (A) (A) (A) (A) (A) (A) (A) (A)
                 (A) (A) (A) (A) (A) (A) (A) (A) (A) (A) (A) (A)
                 (A) (A) (A) (A) (A) (A) (A) (A) (A) (A) (A) (A)
                 (A) (A) (A) (A) (A) (A) (A) (A) (A) (A) (A) (A)
                 (A) (A) (A) (A) (A) (A) (A) (A) (A) (A) (A) (A)
                 (A) (A) (A) (A) (A) (A) (A) (A) (A) (A) (A) (A)
                 (A) (A) (A) (A) (A) (A) (A) (A) (A) (A) (A) (A)
                 (A) (A) (A) (A) (A) (A) (A) (A) (A) (A) (A) (A)
                 (A) (A) (A) (A) (A) (A) (A) (A) (A) (A) (A) (A)
                 (A) (A) (A) (A) (A) (A) (A) (A) (A) (A) (A) (A)
                 (A) (A) (A) (A) (A) (A) (A) (A) (A) (A) (A) (A)
                 (A) (A) (A) (A) (A) (A) (A) (A) (A) (A) (A) (A)
                 (A) (A) (A) (A) (A) (A) (A) (A) (A) (A) (A) (A)
                 (A) (A) (A) (A) (A) (A) (A) (A) (A) (A) (A) (A)
                 (A) (A) (A) (A) (A) (A) (A) (A) (A) (A) (A) (A)
                 (A) (A) (A) (A) (A) (A) (A) (A) (A) (A) (A) (A)
                 (A) (A) (A) (A) (A) (A) (A) (A) (A) (A) (A) (A)
                 (A) (A) (A) (A) (A) (A) (A) (A) (A) (A) (A) (A)
                 (A) (A) (A) (A) (A) (A) (A) (A) (A) (A) (A) (A)
                 (A) (A) (A) (A) (A) (A) (A) (A) (A) (A) (A) (A)
                 (A) (A) (A) (A) (A) (A) (A) (A) (A) (A) (A) (A)
                 (A) (A) (A) (A) (A) (A) (A) (A) (A) (A) (A) (A)
                 (A) (A) (A) (A) (A) (A) (A) (A) (A) (A) (A) (A)
                 (A) (A) (A) (A) (A) (A) (A) (A) (A) (A) (A) (A)
                 (A) (A) (A) (A) (A) (A) (A) (A) (A) (A) (A)
 The electronic state is 1-A.
 Alpha  occ. eigenvalues --  -88.87690 -77.12518 -19.21016 -19.19239 -19.16129
 Alpha  occ. eigenvalues --  -19.12653 -14.30431 -10.24697 -10.22622 -10.22095
 Alpha  occ. eigenvalues --  -10.19896 -10.19567 -10.17699 -10.17627 -10.17528
 Alpha  occ. eigenvalues --  -10.17337 -10.17309  -7.94316  -6.58709  -5.90768
 Alpha  occ. eigenvalues --   -5.90429  -5.89818  -4.75164  -4.74943  -4.74385
 Alpha  occ. eigenvalues --   -1.12718  -1.04081  -1.00711  -0.91064  -0.89860
 Alpha  occ. eigenvalues --   -0.80680  -0.80256  -0.77057  -0.73917  -0.70441
 Alpha  occ. eigenvalues --   -0.67370  -0.63539  -0.61700  -0.59840  -0.58667
 Alpha  occ. eigenvalues --   -0.57489  -0.56897  -0.52961  -0.50381  -0.50190
 Alpha  occ. eigenvalues --   -0.49021  -0.48766  -0.47746  -0.46113  -0.45696
 Alpha  occ. eigenvalues --   -0.44699  -0.43650  -0.43290  -0.41904  -0.41409
 Alpha  occ. eigenvalues --   -0.40806  -0.39688  -0.39229  -0.38437  -0.37394
 Alpha  occ. eigenvalues --   -0.37188  -0.35621  -0.35364  -0.34483  -0.34156
 Alpha  occ. eigenvalues --   -0.33392  -0.33166  -0.33052  -0.32418  -0.32253
 Alpha  occ. eigenvalues --   -0.31048  -0.29991  -0.27237  -0.26018  -0.24592
 Alpha  occ. eigenvalues --   -0.21620  -0.21289
 Alpha virt. eigenvalues --   -0.00494   0.02284   0.03909   0.05760   0.06878
 Alpha virt. eigenvalues --    0.07711   0.08266   0.08677   0.09916   0.10531
 Alpha virt. eigenvalues --    0.10835   0.12097   0.12364   0.12578   0.13404
 Alpha virt. eigenvalues --    0.14135   0.14613   0.15200   0.15533   0.16323
 Alpha virt. eigenvalues --    0.16988   0.18034   0.18319   0.18565   0.19029
 Alpha virt. eigenvalues --    0.19491   0.20101   0.20456   0.20961   0.21700
 Alpha virt. eigenvalues --    0.21878   0.22151   0.22594   0.23220   0.23965
 Alpha virt. eigenvalues --    0.25595   0.25838   0.26878   0.28511   0.29865
 Alpha virt. eigenvalues --    0.31732   0.32943   0.33556   0.33734   0.34396
 Alpha virt. eigenvalues --    0.36335   0.37569   0.37843   0.38720   0.40240
 Alpha virt. eigenvalues --    0.40908   0.41176   0.42494   0.45103   0.46674
 Alpha virt. eigenvalues --    0.47405   0.48409   0.48628   0.50419   0.51011
 Alpha virt. eigenvalues --    0.51802   0.51997   0.52417   0.52643   0.52866
 Alpha virt. eigenvalues --    0.54379   0.55175   0.55751   0.57378   0.58405
 Alpha virt. eigenvalues --    0.58623   0.59187   0.59711   0.59944   0.60867
 Alpha virt. eigenvalues --    0.62843   0.63907   0.64355   0.65642   0.65987
 Alpha virt. eigenvalues --    0.67446   0.68391   0.69433   0.69701   0.70025
 Alpha virt. eigenvalues --    0.70885   0.71407   0.71865   0.72579   0.72874
 Alpha virt. eigenvalues --    0.73475   0.73854   0.75224   0.75391   0.76177
 Alpha virt. eigenvalues --    0.76609   0.77313   0.77776   0.78173   0.78513
 Alpha virt. eigenvalues --    0.78970   0.79367   0.79799   0.80201   0.81091
 Alpha virt. eigenvalues --    0.81344   0.82226   0.82581   0.83075   0.83374
 Alpha virt. eigenvalues --    0.84626   0.85105   0.85921   0.86010   0.87192
 Alpha virt. eigenvalues --    0.87414   0.88238   0.88707   0.89341   0.90813
 Alpha virt. eigenvalues --    0.90848   0.90978   0.92179   0.92761   0.93660
 Alpha virt. eigenvalues --    0.95371   0.95591   0.96887   0.98317   0.98645
 Alpha virt. eigenvalues --    0.99541   0.99710   1.00289   1.02469   1.05320
 Alpha virt. eigenvalues --    1.05782   1.06267   1.08161   1.10109   1.10771
 Alpha virt. eigenvalues --    1.12457   1.13516   1.14254   1.15822   1.17870
 Alpha virt. eigenvalues --    1.19024   1.19969   1.20053   1.20448   1.21629
 Alpha virt. eigenvalues --    1.22835   1.23242   1.24325   1.25300   1.25689
 Alpha virt. eigenvalues --    1.26226   1.27062   1.27987   1.28560   1.30731
 Alpha virt. eigenvalues --    1.31042   1.32251   1.33744   1.33914   1.35158
 Alpha virt. eigenvalues --    1.37016   1.37275   1.38484   1.40154   1.40540
 Alpha virt. eigenvalues --    1.41608   1.44564   1.45070   1.45626   1.46992
 Alpha virt. eigenvalues --    1.47916   1.48638   1.49842   1.51393   1.51580
 Alpha virt. eigenvalues --    1.53158   1.54992   1.55733   1.56703   1.56795
 Alpha virt. eigenvalues --    1.58019   1.58953   1.60937   1.61470   1.62917
 Alpha virt. eigenvalues --    1.63905   1.64281   1.65793   1.66693   1.68330
 Alpha virt. eigenvalues --    1.68865   1.69516   1.70968   1.71775   1.72684
 Alpha virt. eigenvalues --    1.73004   1.74863   1.75631   1.76009   1.76572
 Alpha virt. eigenvalues --    1.78940   1.79817   1.80210   1.82037   1.82636
 Alpha virt. eigenvalues --    1.83571   1.85033   1.86173   1.86508   1.88170
 Alpha virt. eigenvalues --    1.89109   1.90589   1.92200   1.92935   1.93149
 Alpha virt. eigenvalues --    1.94569   1.94655   1.95157   1.98875   1.99424
 Alpha virt. eigenvalues --    2.01688   2.03374   2.05442   2.05951   2.06610
 Alpha virt. eigenvalues --    2.07405   2.10965   2.12139   2.12175   2.12901
 Alpha virt. eigenvalues --    2.15365   2.15690   2.16742   2.19164   2.19682
 Alpha virt. eigenvalues --    2.20963   2.22366   2.24116   2.24764   2.26372
 Alpha virt. eigenvalues --    2.29026   2.31502   2.32442   2.32945   2.33026
 Alpha virt. eigenvalues --    2.33823   2.34379   2.36265   2.37830   2.39223
 Alpha virt. eigenvalues --    2.41209   2.41407   2.43299   2.44800   2.46941
 Alpha virt. eigenvalues --    2.48359   2.51143   2.51671   2.52135   2.53066
 Alpha virt. eigenvalues --    2.55032   2.55624   2.58110   2.60200   2.61612
 Alpha virt. eigenvalues --    2.62883   2.65676   2.67364   2.68943   2.69164
 Alpha virt. eigenvalues --    2.69725   2.70691   2.72410   2.74172   2.74719
 Alpha virt. eigenvalues --    2.75865   2.76185   2.76507   2.77884   2.78605
 Alpha virt. eigenvalues --    2.79796   2.80586   2.81485   2.81645   2.81875
 Alpha virt. eigenvalues --    2.82709   2.83253   2.83937   2.84382   2.85067
 Alpha virt. eigenvalues --    2.87260   2.87386   2.88796   2.89461   2.90898
 Alpha virt. eigenvalues --    2.91518   2.92050   2.93040   2.93366   2.94298
 Alpha virt. eigenvalues --    2.94742   2.95396   2.96825   2.97365   2.98524
 Alpha virt. eigenvalues --    3.00259   3.00606   3.02410   3.03897   3.05601
 Alpha virt. eigenvalues --    3.07780   3.10203   3.11095   3.12185   3.12674
 Alpha virt. eigenvalues --    3.17691   3.19520   3.22007   3.22833   3.25832
 Alpha virt. eigenvalues --    3.27668   3.28892   3.29565   3.30268   3.30626
 Alpha virt. eigenvalues --    3.32193   3.32957   3.34426   3.36060   3.37187
 Alpha virt. eigenvalues --    3.39194   3.39696   3.41517   3.43614   3.44254
 Alpha virt. eigenvalues --    3.45446   3.46842   3.48426   3.50942   3.53252
 Alpha virt. eigenvalues --    3.55334   3.55838   3.56855   3.57215   3.58494
 Alpha virt. eigenvalues --    3.60040   3.60616   3.61906   3.64142   3.64875
 Alpha virt. eigenvalues --    3.67235   3.67951   3.68320   3.69059   3.72731
 Alpha virt. eigenvalues --    3.72967   3.73721   3.74847   3.76210   3.78048
 Alpha virt. eigenvalues --    3.79396   3.80113   3.81718   3.81902   3.86600
 Alpha virt. eigenvalues --    3.89625   3.94163   3.96576   3.97523   3.98958
 Alpha virt. eigenvalues --    3.99635   4.05327   4.06528   4.07144   4.09749
 Alpha virt. eigenvalues --    4.11818   4.13165   4.14658   4.14988   4.18864
 Alpha virt. eigenvalues --    4.21261   4.24754   4.25980   4.26375   4.28891
 Alpha virt. eigenvalues --    4.30779   4.32252   4.35759   4.37399   4.38477
 Alpha virt. eigenvalues --    4.40411   4.41347   4.41926   4.42448   4.44545
 Alpha virt. eigenvalues --    4.44965   4.45826   4.45945   4.46674   4.48034
 Alpha virt. eigenvalues --    4.48928   4.49032   4.51379   4.52141   4.53287
 Alpha virt. eigenvalues --    4.53556   4.54456   4.55034   4.55184   4.56228
 Alpha virt. eigenvalues --    4.57270   4.57430   4.58428   4.59885   4.60166
 Alpha virt. eigenvalues --    4.61625   4.61780   4.62735   4.63210   4.64083
 Alpha virt. eigenvalues --    4.64860   4.65757   4.66189   4.66722   4.67367
 Alpha virt. eigenvalues --    4.67816   4.68512   4.69214   4.69502   4.70586
 Alpha virt. eigenvalues --    4.71404   4.71983   4.72969   4.73793   4.75285
 Alpha virt. eigenvalues --    4.76359   4.76533   4.78617   4.78739   4.80631
 Alpha virt. eigenvalues --    4.81255   4.82158   4.82516   4.83615   4.84149
 Alpha virt. eigenvalues --    4.85747   4.86388   4.86826   4.87157   4.88291
 Alpha virt. eigenvalues --    4.90268   4.91025   4.94073   4.94756   4.96220
 Alpha virt. eigenvalues --    4.97132   4.98531   5.00280   5.06306   5.07061
 Alpha virt. eigenvalues --    5.08147   5.09177   5.13026   5.20432   5.21890
 Alpha virt. eigenvalues --    5.25417   5.26386   5.26991   5.28679   5.31370
 Alpha virt. eigenvalues --    5.34074   5.34523   5.34663   5.38640   5.39327
 Alpha virt. eigenvalues --    5.40722   5.42787   5.44110   5.45776   5.46745
 Alpha virt. eigenvalues --    5.47003   5.48480   5.50320   5.51052   5.51934
 Alpha virt. eigenvalues --    5.53693   5.57767   5.59718   5.67180   5.68598
 Alpha virt. eigenvalues --    5.73747   5.78203   5.87912   5.91336   5.94625
 Alpha virt. eigenvalues --    5.96563   5.99187   6.00131   6.07790   6.10506
 Alpha virt. eigenvalues --    6.16041   6.19749   6.61662   6.82866   7.03368
 Alpha virt. eigenvalues --    7.09998  10.88545  11.25147  11.26672  11.35525
 Alpha virt. eigenvalues --   11.60972  11.78552  11.92741  11.95490  12.11357
 Alpha virt. eigenvalues --   12.25640  12.42568  12.87084  13.17320  13.19229
 Alpha virt. eigenvalues --   13.44551  14.92557
          Condensed to atoms (all electrons):
               1          2          3          4          5          6
     1  O    7.866112   0.355761  -0.032802   0.001481  -0.000007   0.000000
     2  C    0.355761   4.737191   0.390506  -0.035330   0.002031  -0.000201
     3  C   -0.032802   0.390506   4.908055   0.371990  -0.033640   0.002020
     4  C    0.001481  -0.035330   0.371990   4.847383   0.392363  -0.062653
     5  N   -0.000007   0.002031  -0.033640   0.392363   6.381751   0.385087
     6  C    0.000000  -0.000201   0.002020  -0.062653   0.385087   4.826353
     7  C   -0.000000   0.000001  -0.000224   0.002671  -0.037110   0.426296
     8  C    0.000000   0.000000   0.000001  -0.000231   0.002421  -0.039592
     9  C   -0.000000   0.000000  -0.000000   0.000000  -0.000049   0.001685
    10  C    0.000000   0.000000   0.000000  -0.000000   0.000000  -0.000158
    11  P   -0.000000   0.000000  -0.000000  -0.000000  -0.000000  -0.000003
    12  O    0.000000  -0.000000  -0.000000  -0.000000   0.000000  -0.000000
    13  O    0.000000  -0.000000   0.000000  -0.000000  -0.000000  -0.000000
    14  O    0.000000   0.000000   0.000000  -0.000000   0.000000  -0.000000
    15  C    0.000000   0.000000  -0.000000   0.000000  -0.000000   0.000000
    16  C    0.000000   0.000000   0.000000  -0.000000   0.000000  -0.000000
    17  S    0.000000   0.000000   0.000000   0.000000  -0.000000   0.000000
    18  H    0.301476  -0.050883   0.006306  -0.000430   0.000001  -0.000000
    19  H   -0.032990   0.361417  -0.036527   0.000331   0.000028   0.000017
    20  H   -0.033391   0.358890  -0.036335   0.000926  -0.000012   0.000018
    21  H    0.002462  -0.029740   0.361586  -0.030606  -0.002156   0.000136
    22  H    0.002376  -0.027526   0.358488  -0.024845   0.004266   0.000224
    23  H   -0.000029  -0.006514  -0.022249   0.355615  -0.020924  -0.003825
    24  H   -0.000016   0.001446  -0.043718   0.351656  -0.045114  -0.002752
    25  H    0.000000  -0.000298   0.000228  -0.051194   0.341216  -0.050938
    26  H    0.000000  -0.000009   0.000353  -0.004263  -0.020711   0.353689
    27  H    0.000000   0.000053   0.000079  -0.003540  -0.045286   0.350349
    28  H    0.000000  -0.000000   0.000009   0.000125  -0.002108  -0.034787
    29  H    0.000000   0.000000   0.000009   0.000199   0.004643  -0.028467
    30  H    0.000000   0.000000   0.000000   0.000009   0.000119  -0.003280
    31  H    0.000000   0.000000   0.000000   0.000010   0.000070  -0.002931
    32  H    0.000000   0.000000   0.000000   0.000000   0.000005   0.000202
    33  H    0.000000  -0.000000   0.000000   0.000000   0.000001   0.000179
    34  H    0.000000   0.000000   0.000000   0.000000   0.000000   0.000009
    35  H    0.000000  -0.000000  -0.000000   0.000000   0.000000   0.000006
    36  H    0.000000  -0.000000   0.000000   0.000000   0.000000   0.000000
    37  H    0.000000   0.000000   0.000000   0.000000   0.000000   0.000000
    38  H    0.000000   0.000000  -0.000000  -0.000000   0.000000  -0.000000
    39  H    0.000000   0.000000   0.000000   0.000000   0.000000   0.000000
    40  H    0.000000   0.000000   0.000000   0.000000  -0.000000  -0.000000
    41  H    0.000000   0.000000   0.000000   0.000000   0.000000   0.000000
               7          8          9         10         11         12
     1  O   -0.000000   0.000000  -0.000000   0.000000  -0.000000   0.000000
     2  C    0.000001   0.000000   0.000000   0.000000   0.000000  -0.000000
     3  C   -0.000224   0.000001  -0.000000   0.000000  -0.000000  -0.000000
     4  C    0.002671  -0.000231   0.000000  -0.000000  -0.000000  -0.000000
     5  N   -0.037110   0.002421  -0.000049   0.000000  -0.000000   0.000000
     6  C    0.426296  -0.039592   0.001685  -0.000158  -0.000003  -0.000000
     7  C    4.844332   0.396646  -0.036343   0.002164  -0.000179   0.000003
     8  C    0.396646   4.870566   0.422322  -0.033909  -0.000604  -0.000047
     9  C   -0.036343   0.422322   4.814134   0.403718  -0.029999   0.000982
    10  C    0.002164  -0.033909   0.403718   4.984676   0.309398  -0.027616
    11  P   -0.000179  -0.000604  -0.029999   0.309398  13.982116   0.328097
    12  O    0.000003  -0.000047   0.000982  -0.027616   0.328097   7.798678
    13  O   -0.000011   0.000244  -0.007915   0.001125  -0.024300   0.101567
    14  O    0.000000  -0.000005   0.000392  -0.015961   0.398123  -0.024363
    15  C   -0.000000   0.000000  -0.000016   0.002006  -0.074369  -0.000444
    16  C    0.000000  -0.000000   0.000000  -0.000047   0.000777   0.000081
    17  S   -0.000000   0.000000   0.000000   0.000000  -0.000132  -0.000003
    18  H    0.000000  -0.000000   0.000000  -0.000000  -0.000000   0.000000
    19  H    0.000000   0.000000   0.000000   0.000000   0.000000   0.000000
    20  H    0.000000   0.000000   0.000000   0.000000   0.000000   0.000000
    21  H    0.000010  -0.000000   0.000000  -0.000000   0.000000  -0.000000
    22  H    0.000010   0.000000   0.000000   0.000000   0.000000   0.000000
    23  H    0.000391  -0.000010   0.000000   0.000000  -0.000000   0.000000
    24  H    0.000106   0.000059   0.000000   0.000000   0.000000  -0.000000
    25  H    0.000331  -0.000273   0.000008   0.000000   0.000000  -0.000000
    26  H   -0.019506  -0.006428   0.000048   0.000005   0.000000  -0.000000
    27  H   -0.041899   0.002220   0.000165   0.000014   0.000000  -0.000000
    28  H    0.363882  -0.033251  -0.002844   0.000131   0.000026  -0.000001
    29  H    0.361125  -0.030069  -0.002824   0.000134   0.000000   0.000000
    30  H   -0.031146   0.359521  -0.030082  -0.002325   0.000109   0.000000
    31  H   -0.031062   0.359613  -0.030170  -0.002226   0.000303   0.000002
    32  H   -0.003221  -0.033072   0.362921  -0.031036  -0.003455  -0.000101
    33  H   -0.001512  -0.037172   0.369204  -0.038255   0.004928   0.000085
    34  H    0.000192  -0.004335  -0.030365   0.350855  -0.026980   0.001471
    35  H    0.000192  -0.002066  -0.032989   0.341877  -0.018630   0.001258
    36  H    0.000001  -0.000016   0.000318  -0.000167  -0.000772  -0.032788
    37  H    0.000000   0.000000   0.000009   0.000110  -0.000970   0.006793
    38  H    0.000000  -0.000000  -0.000002  -0.000296   0.013914  -0.001045
    39  H    0.000000   0.000000   0.000000  -0.000002   0.000738  -0.000001
    40  H    0.000000  -0.000000   0.000000   0.000000   0.000639  -0.000004
    41  H   -0.000000  -0.000000  -0.000000   0.000000  -0.000014   0.000000
              13         14         15         16         17         18
     1  O    0.000000   0.000000   0.000000   0.000000   0.000000   0.301476
     2  C   -0.000000   0.000000   0.000000   0.000000   0.000000  -0.050883
     3  C    0.000000   0.000000  -0.000000   0.000000   0.000000   0.006306
     4  C   -0.000000  -0.000000   0.000000  -0.000000   0.000000  -0.000430
     5  N   -0.000000   0.000000  -0.000000   0.000000  -0.000000   0.000001
     6  C   -0.000000  -0.000000   0.000000  -0.000000   0.000000  -0.000000
     7  C   -0.000011   0.000000  -0.000000   0.000000  -0.000000   0.000000
     8  C    0.000244  -0.000005   0.000000  -0.000000   0.000000  -0.000000
     9  C   -0.007915   0.000392  -0.000016   0.000000   0.000000   0.000000
    10  C    0.001125  -0.015961   0.002006  -0.000047   0.000000  -0.000000
    11  P   -0.024300   0.398123  -0.074369   0.000777  -0.000132  -0.000000
    12  O    0.101567  -0.024363  -0.000444   0.000081  -0.000003   0.000000
    13  O    7.916531   0.000838  -0.000048  -0.000000  -0.000000   0.000000
    14  O    0.000838   7.626228   0.313081  -0.024987   0.002637   0.000000
    15  C   -0.000048   0.313081   4.765938   0.413652  -0.048289   0.000000
    16  C   -0.000000  -0.024987   0.413652   4.906886   0.275379   0.000000
    17  S   -0.000000   0.002637  -0.048289   0.275379  15.810452   0.000000
    18  H    0.000000   0.000000   0.000000   0.000000   0.000000   0.468896
    19  H   -0.000000   0.000000   0.000000   0.000000   0.000000  -0.004275
    20  H    0.000000   0.000000   0.000000   0.000000   0.000000  -0.003805
    21  H   -0.000000  -0.000000   0.000000   0.000000   0.000000  -0.000084
    22  H    0.000000   0.000000   0.000000   0.000000   0.000000  -0.000037
    23  H    0.000000  -0.000000   0.000000  -0.000000   0.000000  -0.000001
    24  H   -0.000000   0.000000   0.000000   0.000000  -0.000000   0.000011
    25  H    0.000000   0.000000   0.000000  -0.000000  -0.000000  -0.000000
    26  H    0.000000   0.000000   0.000000   0.000000   0.000000  -0.000000
    27  H   -0.000000  -0.000000  -0.000000  -0.000000  -0.000000   0.000000
    28  H   -0.000017   0.000000   0.000000   0.000000  -0.000000  -0.000000
    29  H    0.000000   0.000000  -0.000000  -0.000000  -0.000000   0.000000
    30  H   -0.000002   0.000000  -0.000000   0.000000  -0.000000   0.000000
    31  H    0.000001   0.000000   0.000000   0.000000  -0.000000   0.000000
    32  H    0.013472  -0.000012   0.000001   0.000000  -0.000000   0.000000
    33  H   -0.000186   0.000003   0.000000   0.000000   0.000000  -0.000000
    34  H   -0.000070   0.000150  -0.000043  -0.000001  -0.000000   0.000000
    35  H   -0.000278   0.000626  -0.000019   0.000003   0.000000  -0.000000
    36  H    0.290923  -0.000084   0.000006   0.000000   0.000000  -0.000000
    37  H   -0.000296  -0.026371   0.366755  -0.038121   0.006451   0.000000
    38  H   -0.000004  -0.026996   0.352153  -0.036811  -0.001532   0.000000
    39  H   -0.000000   0.002457  -0.031025   0.370675  -0.039942   0.000000
    40  H    0.000000   0.002203  -0.023290   0.369262  -0.035204   0.000000
    41  H    0.000000   0.000036  -0.002089  -0.011129   0.282406   0.000000
              19         20         21         22         23         24
     1  O   -0.032990  -0.033391   0.002462   0.002376  -0.000029  -0.000016
     2  C    0.361417   0.358890  -0.029740  -0.027526  -0.006514   0.001446
     3  C   -0.036527  -0.036335   0.361586   0.358488  -0.022249  -0.043718
     4  C    0.000331   0.000926  -0.030606  -0.024845   0.355615   0.351656
     5  N    0.000028  -0.000012  -0.002156   0.004266  -0.020924  -0.045114
     6  C    0.000017   0.000018   0.000136   0.000224  -0.003825  -0.002752
     7  C    0.000000   0.000000   0.000010   0.000010   0.000391   0.000106
     8  C    0.000000   0.000000  -0.000000   0.000000  -0.000010   0.000059
     9  C    0.000000   0.000000   0.000000   0.000000   0.000000   0.000000
    10  C    0.000000   0.000000  -0.000000   0.000000   0.000000   0.000000
    11  P    0.000000   0.000000   0.000000   0.000000  -0.000000   0.000000
    12  O    0.000000   0.000000  -0.000000   0.000000   0.000000  -0.000000
    13  O   -0.000000   0.000000  -0.000000   0.000000   0.000000  -0.000000
    14  O    0.000000   0.000000  -0.000000   0.000000  -0.000000   0.000000
    15  C    0.000000   0.000000   0.000000   0.000000   0.000000   0.000000
    16  C    0.000000   0.000000   0.000000   0.000000  -0.000000   0.000000
    17  S    0.000000   0.000000   0.000000   0.000000   0.000000  -0.000000
    18  H   -0.004275  -0.003805  -0.000084  -0.000037  -0.000001   0.000011
    19  H    0.684155  -0.059780   0.006818  -0.007518   0.005170  -0.000611
    20  H   -0.059780   0.687305  -0.007617   0.006688  -0.000710   0.005642
    21  H    0.006818  -0.007617   0.638657  -0.042815   0.006034  -0.006723
    22  H   -0.007518   0.006688  -0.042815   0.614836  -0.006568   0.006828
    23  H    0.005170  -0.000710   0.006034  -0.006568   0.636596  -0.055790
    24  H   -0.000611   0.005642  -0.006723   0.006828  -0.055790   0.709930
    25  H    0.000010   0.000005   0.005392  -0.000518   0.006877  -0.006710
    26  H   -0.000005   0.000001   0.000006  -0.000019   0.006493  -0.002054
    27  H    0.000001  -0.000002  -0.000021   0.000035  -0.002071   0.015209
    28  H   -0.000000   0.000000  -0.000004   0.000000   0.000008  -0.000026
    29  H    0.000000  -0.000000   0.000000   0.000002  -0.000024   0.000040
    30  H   -0.000000  -0.000000  -0.000000   0.000000  -0.000005   0.000001
    31  H   -0.000000  -0.000000   0.000000  -0.000000   0.000000  -0.000001
    32  H    0.000000  -0.000000  -0.000000   0.000000  -0.000000   0.000000
    33  H   -0.000000   0.000000   0.000000  -0.000000   0.000000  -0.000000
    34  H    0.000000  -0.000000   0.000000  -0.000000  -0.000000  -0.000000
    35  H   -0.000000  -0.000000  -0.000000  -0.000000   0.000000  -0.000000
    36  H    0.000000   0.000000   0.000000  -0.000000  -0.000000   0.000000
    37  H    0.000000   0.000000   0.000000   0.000000  -0.000000   0.000000
    38  H    0.000000   0.000000   0.000000   0.000000  -0.000000   0.000000
    39  H    0.000000   0.000000   0.000000   0.000000  -0.000000   0.000000
    40  H    0.000000   0.000000   0.000000   0.000000   0.000000  -0.000000
    41  H    0.000000   0.000000   0.000000   0.000000   0.000000   0.000000
              25         26         27         28         29         30
     1  O    0.000000   0.000000   0.000000   0.000000   0.000000   0.000000
     2  C   -0.000298  -0.000009   0.000053  -0.000000   0.000000   0.000000
     3  C    0.000228   0.000353   0.000079   0.000009   0.000009   0.000000
     4  C   -0.051194  -0.004263  -0.003540   0.000125   0.000199   0.000009
     5  N    0.341216  -0.020711  -0.045286  -0.002108   0.004643   0.000119
     6  C   -0.050938   0.353689   0.350349  -0.034787  -0.028467  -0.003280
     7  C    0.000331  -0.019506  -0.041899   0.363882   0.361125  -0.031146
     8  C   -0.000273  -0.006428   0.002220  -0.033251  -0.030069   0.359521
     9  C    0.000008   0.000048   0.000165  -0.002844  -0.002824  -0.030082
    10  C    0.000000   0.000005   0.000014   0.000131   0.000134  -0.002325
    11  P    0.000000   0.000000   0.000000   0.000026   0.000000   0.000109
    12  O   -0.000000  -0.000000  -0.000000  -0.000001   0.000000   0.000000
    13  O    0.000000   0.000000  -0.000000  -0.000017   0.000000  -0.000002
    14  O    0.000000   0.000000  -0.000000   0.000000   0.000000   0.000000
    15  C    0.000000   0.000000  -0.000000   0.000000  -0.000000  -0.000000
    16  C   -0.000000   0.000000  -0.000000   0.000000  -0.000000   0.000000
    17  S   -0.000000   0.000000  -0.000000  -0.000000  -0.000000  -0.000000
    18  H   -0.000000  -0.000000   0.000000  -0.000000   0.000000   0.000000
    19  H    0.000010  -0.000005   0.000001  -0.000000   0.000000  -0.000000
    20  H    0.000005   0.000001  -0.000002   0.000000  -0.000000  -0.000000
    21  H    0.005392   0.000006  -0.000021  -0.000004   0.000000  -0.000000
    22  H   -0.000518  -0.000019   0.000035   0.000000   0.000002   0.000000
    23  H    0.006877   0.006493  -0.002071   0.000008  -0.000024  -0.000005
    24  H   -0.006710  -0.002054   0.015209  -0.000026   0.000040   0.000001
    25  H    0.540940   0.006829  -0.006644   0.005672  -0.000529   0.000014
    26  H    0.006829   0.636135  -0.055083   0.006171  -0.006479   0.004803
    27  H   -0.006644  -0.055083   0.710177  -0.006820   0.006977  -0.000435
    28  H    0.005672   0.006171  -0.006820   0.653850  -0.042322   0.006154
    29  H   -0.000529  -0.006479   0.006977  -0.042322   0.624786  -0.005178
    30  H    0.000014   0.004803  -0.000435   0.006154  -0.005178   0.647392
    31  H    0.000003  -0.000553   0.005410  -0.005362   0.006001  -0.042866
    32  H   -0.000003   0.000010   0.000009   0.005495  -0.000521   0.005993
    33  H    0.000001   0.000008   0.000002  -0.000477   0.005113  -0.005370
    34  H   -0.000000  -0.000002   0.000001   0.000010   0.000004   0.005217
    35  H    0.000000   0.000000  -0.000003   0.000003   0.000005  -0.000369
    36  H   -0.000000  -0.000000   0.000000   0.000002   0.000000   0.000000
    37  H    0.000000   0.000000   0.000000  -0.000000  -0.000000  -0.000000
    38  H   -0.000000  -0.000000   0.000000   0.000000  -0.000000   0.000000
    39  H   -0.000000   0.000000   0.000000  -0.000000  -0.000000  -0.000000
    40  H   -0.000000  -0.000000   0.000000  -0.000000  -0.000000   0.000000
    41  H   -0.000000   0.000000   0.000000  -0.000000   0.000000  -0.000000
              31         32         33         34         35         36
     1  O    0.000000   0.000000   0.000000   0.000000   0.000000   0.000000
     2  C    0.000000   0.000000  -0.000000   0.000000  -0.000000  -0.000000
     3  C    0.000000   0.000000   0.000000   0.000000  -0.000000   0.000000
     4  C    0.000010   0.000000   0.000000   0.000000   0.000000   0.000000
     5  N    0.000070   0.000005   0.000001   0.000000   0.000000   0.000000
     6  C   -0.002931   0.000202   0.000179   0.000009   0.000006   0.000000
     7  C   -0.031062  -0.003221  -0.001512   0.000192   0.000192   0.000001
     8  C    0.359613  -0.033072  -0.037172  -0.004335  -0.002066  -0.000016
     9  C   -0.030170   0.362921   0.369204  -0.030365  -0.032989   0.000318
    10  C   -0.002226  -0.031036  -0.038255   0.350855   0.341877  -0.000167
    11  P    0.000303  -0.003455   0.004928  -0.026980  -0.018630  -0.000772
    12  O    0.000002  -0.000101   0.000085   0.001471   0.001258  -0.032788
    13  O    0.000001   0.013472  -0.000186  -0.000070  -0.000278   0.290923
    14  O    0.000000  -0.000012   0.000003   0.000150   0.000626  -0.000084
    15  C    0.000000   0.000001   0.000000  -0.000043  -0.000019   0.000006
    16  C    0.000000   0.000000   0.000000  -0.000001   0.000003   0.000000
    17  S   -0.000000  -0.000000   0.000000  -0.000000   0.000000   0.000000
    18  H    0.000000   0.000000  -0.000000   0.000000  -0.000000  -0.000000
    19  H   -0.000000   0.000000  -0.000000   0.000000  -0.000000   0.000000
    20  H   -0.000000  -0.000000   0.000000  -0.000000  -0.000000   0.000000
    21  H    0.000000  -0.000000   0.000000   0.000000  -0.000000   0.000000
    22  H   -0.000000   0.000000  -0.000000  -0.000000  -0.000000  -0.000000
    23  H    0.000000  -0.000000   0.000000  -0.000000   0.000000  -0.000000
    24  H   -0.000001   0.000000  -0.000000  -0.000000  -0.000000   0.000000
    25  H    0.000003  -0.000003   0.000001  -0.000000   0.000000  -0.000000
    26  H   -0.000553   0.000010   0.000008  -0.000002   0.000000  -0.000000
    27  H    0.005410   0.000009   0.000002   0.000001  -0.000003   0.000000
    28  H   -0.005362   0.005495  -0.000477   0.000010   0.000003   0.000002
    29  H    0.006001  -0.000521   0.005113   0.000004   0.000005   0.000000
    30  H   -0.042866   0.005993  -0.005370   0.005217  -0.000369   0.000000
    31  H    0.647689  -0.005772   0.006138  -0.000384   0.004207   0.000000
    32  H   -0.005772   0.611356  -0.038542   0.005574  -0.004938   0.000286
    33  H    0.006138  -0.038542   0.623715  -0.003286   0.005944   0.000016
    34  H   -0.000384   0.005574  -0.003286   0.627819  -0.031909   0.000006
    35  H    0.004207  -0.004938   0.005944  -0.031909   0.627296   0.000076
    36  H    0.000000   0.000286   0.000016   0.000006   0.000076   0.419001
    37  H    0.000000   0.000000  -0.000000  -0.000006  -0.000019   0.000019
    38  H   -0.000000   0.000000   0.000001  -0.000001   0.000020   0.000001
    39  H    0.000000  -0.000000   0.000000   0.000001  -0.000000   0.000000
    40  H   -0.000000   0.000000   0.000000  -0.000000  -0.000000  -0.000000
    41  H   -0.000000  -0.000000  -0.000000  -0.000000  -0.000000  -0.000000
              37         38         39         40         41
     1  O    0.000000   0.000000   0.000000   0.000000   0.000000
     2  C    0.000000   0.000000   0.000000   0.000000   0.000000
     3  C    0.000000  -0.000000   0.000000   0.000000   0.000000
     4  C    0.000000  -0.000000   0.000000   0.000000   0.000000
     5  N    0.000000   0.000000   0.000000  -0.000000   0.000000
     6  C    0.000000  -0.000000   0.000000  -0.000000   0.000000
     7  C    0.000000   0.000000   0.000000   0.000000  -0.000000
     8  C    0.000000  -0.000000   0.000000  -0.000000  -0.000000
     9  C    0.000009  -0.000002   0.000000   0.000000  -0.000000
    10  C    0.000110  -0.000296  -0.000002   0.000000   0.000000
    11  P   -0.000970   0.013914   0.000738   0.000639  -0.000014
    12  O    0.006793  -0.001045  -0.000001  -0.000004   0.000000
    13  O   -0.000296  -0.000004  -0.000000   0.000000   0.000000
    14  O   -0.026371  -0.026996   0.002457   0.002203   0.000036
    15  C    0.366755   0.352153  -0.031025  -0.023290  -0.002089
    16  C   -0.038121  -0.036811   0.370675   0.369262  -0.011129
    17  S    0.006451  -0.001532  -0.039942  -0.035204   0.282406
    18  H    0.000000   0.000000   0.000000   0.000000   0.000000
    19  H    0.000000   0.000000   0.000000   0.000000   0.000000
    20  H    0.000000   0.000000   0.000000   0.000000   0.000000
    21  H    0.000000   0.000000   0.000000   0.000000   0.000000
    22  H    0.000000   0.000000   0.000000   0.000000   0.000000
    23  H   -0.000000  -0.000000  -0.000000   0.000000   0.000000
    24  H    0.000000   0.000000   0.000000  -0.000000   0.000000
    25  H    0.000000  -0.000000  -0.000000  -0.000000  -0.000000
    26  H    0.000000  -0.000000   0.000000  -0.000000   0.000000
    27  H    0.000000   0.000000   0.000000   0.000000   0.000000
    28  H   -0.000000   0.000000  -0.000000  -0.000000  -0.000000
[...]
 012442,-0.00004132,-0.01437618,0.05816334,0.00000980,-0.00000364,-0.00
 000135,-0.00000615,0.00000609,0.00000132,-0.00000139,-0.00000498,-0.00
 000154,-0.00000160,0.00001556,0.00000452,0.00001577,-0.00002096,-0.000
 00881,-0.00000547,0.00001798,-0.00000039,-0.00001320,-0.00001938,-0.00
 000618,0.00002718,0.00002859,-0.00000499,-0.00006303,-0.00004427,-0.00
 000109,0.00003132,0.00004508,0.00015950,-0.00213567,-0.00044779,0.0002
 0945,0.00046967,-0.00012038,0.00024350,-0.00012261,0.00013747,0.000034
 48,0.00274943,-0.00238810,0.00817672,0.07858894,-0.02139238,-0.2783497
 1,0.00601264,-0.00177079,-0.02100149,0.00033116,0.00041737,0.00131573,
 -0.00000116,0.00000031,-0.00000043,0.00000069,-0.00000021,0.00000013,0
 .00000047,-0.00000089,0.00000032,0.00000049,0.00000022,0.00000043,-0.0
 0000058,0.00000011,0.00000021,-0.00000014,-0.00000046,0.00000031,0.000
 00020,-0.00000498,0.00000133,-0.00000190,0.00000152,0.00000041,0.00000
 074,0.00000070,0.00000071,0.00000275,-0.00000316,0.00000038,0.00000442
 ,0.00000035,0.00000298,-0.00000020,-0.00000023,0.00000012,0.00000023,0
 .00000204,0.00000295,-0.00000112,-0.00000162,0.00000233,0.00001518,0.0
 0000014,0.00000466,0.00000484,0.00000429,-0.00000353,-0.00002714,0.000
 05251,0.00001800,0.00003235,-0.00004937,-0.00002500,0.00014976,-0.0000
 7378,0.00005295,-0.08499366,0.02824197,0.29736020,0.00000090,0.0000001
 1,-0.00000010,-0.00000098,-0.00000012,0.00000024,0.00000006,0.00000021
 ,0.00000001,-0.00000097,-0.00000100,-0.00000015,0.00000011,0.00000241,
 0.00000095,-0.00000447,-0.00000272,0.,0.00000004,0.00001340,0.00000022
 ,-0.00002209,-0.00002750,0.00000768,0.00000876,0.00002704,0.00002845,-
 0.00043557,0.00005399,0.00033732,0.00595705,0.00360057,-0.00307690,-0.
 00078111,-0.00044458,0.00031876,-0.00007585,0.00007559,-0.00010714,0.0
 0096058,0.02996642,-0.00651427,-0.09632953,-0.09452635,0.03646320,-0.0
 1129181,-0.02107952,0.00748893,0.00130666,-0.00059949,0.00048432,-0.00
 000030,-0.00000011,0.,0.00000015,0.00000004,0.00000018,0.00000009,0.00
 000009,-0.00000022,0.00000008,0.,0.00000015,-0.00000007,0.00000012,-0.
 00000013,0.00000012,0.00000007,0.00000030,0.00000008,0.00000020,-0.000
 00029,0.00000002,-0.00000005,0.00000008,0.00000025,0.00000012,0.000000
 64,0.00000011,0.00000016,-0.00000034,0.00000076,0.00000026,0.00000023,
 0.,0.00000038,0.00000077,0.00000119,-0.00000114,0.00000069,0.00000622,
 -0.00000735,-0.00000743,-0.00001748,0.00000566,-0.00000331,-0.00005743
 ,0.00000246,0.00004234,-0.00000368,-0.00003479,-0.00005869,-0.00007206
 ,-0.00026894,0.00011956,0.00004097,-0.00001720,0.00002756,-0.00249450,
 -0.00878821,0.00231991,0.10564271,0.00000922,-0.00000251,-0.00000324,-
 0.00000553,0.00000482,0.00000321,-0.00000156,-0.00000546,-0.00000070,-
 0.00000074,0.00001209,0.00000772,0.00001820,-0.00001616,-0.00001386,-0
 .00000508,0.00001418,0.00000596,-0.00001157,-0.00003105,0.00000044,0.0
 0002221,0.00003426,0.00001805,0.00000704,-0.00008294,-0.00007290,0.000
 48278,0.00046874,-0.00067292,-0.00529561,-0.00200664,0.00141093,0.0007
 4101,0.00026471,0.00021601,-0.00024833,0.00006448,-0.00004812,0.007155
 58,-0.03006648,0.00666695,-0.08854451,-0.22360337,0.06511949,-0.005107
 97,-0.00710211,0.00292978,0.00003489,0.00112079,-0.00042237,-0.0000009
 5,-0.00000020,0.00000068,0.00000036,-0.00000050,-0.00000045,0.00000052
 ,0.00000012,-0.00000048,0.00000005,-0.00000004,0.00000006,0.00000015,0
 .00000066,-0.00000038,-0.00000056,-0.00000101,-0.00000046,0.00000053,-
 0.00000298,-0.00000042,-0.00000298,-0.00000014,0.00000164,-0.00000011,
 -0.00000078,-0.00000091,0.00000304,0.00000095,-0.00000287,0.00000079,0
 .00000029,0.00000099,0.00000119,0.00000252,-0.00000205,-0.00000151,-0.
 00000483,-0.00000249,-0.00000094,-0.00000740,-0.00000095,0.00000604,0.
 00000614,0.00000696,0.00003031,-0.00002149,-0.00000519,0.00000216,0.00
 001847,0.00007409,-0.00021552,0.00040858,0.00007866,0.00005220,-0.0000
 7100,0.00002666,-0.00016327,0.00384950,-0.00097315,0.09154424,0.255619
 57,-0.00000616,0.00000191,0.00000170,0.00000379,-0.00000343,-0.0000019
 2,0.00000094,0.00000328,0.00000072,0.00000070,-0.00000897,-0.00000441,
 -0.00001062,0.00001192,0.00000706,0.00000293,-0.00000953,-0.00000298,0
 .00000637,0.00001410,0.00000306,-0.00001108,-0.00001127,-0.00001198,0.
 00000519,0.00005664,0.00002758,-0.00015291,-0.00009987,0.00012104,0.00
 049099,-0.00047049,0.00074494,-0.00007660,0.00030384,-0.00052622,0.000
 25087,-0.00011984,0.00003823,-0.00272413,0.00057779,0.00348494,0.03580
 404,0.06827989,-0.07980572,-0.01176995,-0.01832969,0.00634720,0.000967
 40,-0.00096086,0.00008189,0.00000060,0.00000005,-0.00000021,-0.0000002
 8,0.00000025,0.00000033,-0.00000037,0.00000014,0.00000011,-0.00000003,
 0.,-0.00000004,0.00000015,-0.00000026,0.00000006,0.00000029,0.00000051
 ,0.00000033,-0.00000026,0.00000250,-0.00000024,0.00000181,-0.00000033,
 -0.00000031,-0.00000024,-0.00000002,0.00000079,-0.00000201,0.00000054,
 0.00000089,-0.00000066,0.00000024,-0.00000116,0.00000045,-0.00000074,0
 .00000010,-0.00000031,0.00000182,0.00000289,-0.00000193,0.00000657,0.0
 0000027,0.00000120,-0.00000217,-0.00000203,0.00000995,0.00000850,-0.00
 001200,-0.00000345,-0.00001875,-0.00000717,0.00007137,-0.00006078,-0.0
 0005071,-0.00010385,0.00014760,-0.00009567,0.01365688,0.02522382,-0.00
 833331,-0.03374302,-0.07346944,0.07839656,-0.00000651,0.00000175,0.000
 00113,0.00000470,-0.00000272,-0.00000104,0.00000068,0.00000219,0.00000
 048,0.00000197,-0.00000547,-0.00000205,-0.00000884,0.00000584,0.000004
 16,0.00000595,-0.00000417,0.00000068,0.00000384,0.00000563,0.00000025,
 -0.00000717,-0.00000222,0.00000257,0.00002059,0.00002239,-0.00000159,-
 0.00008480,0.00001006,0.00001744,0.00014266,0.00005557,-0.00004336,0.0
 0005458,-0.00007246,0.00008653,-0.00007922,0.00003838,-0.00002108,0.00
 208568,-0.00080369,0.00177707,0.00735514,-0.00311576,-0.02585083,-0.07
 171334,0.00453020,0.08677584,-0.01315148,0.00804411,0.01542668,0.00000
 106,-0.00000016,0.00000007,-0.00000055,0.,-0.00000031,-0.00000033,0.00
 000014,0.00000013,-0.00000035,-0.00000009,-0.00000039,0.00000023,-0.00
 000019,0.00000023,-0.00000004,0.00000014,-0.00000055,-0.00000027,0.000
 00160,-0.00000007,0.00000091,0.00000017,-0.00000092,-0.00000039,-0.000
 00032,-0.00000126,-0.00000135,-0.00000038,0.00000087,-0.00000173,-0.00
 000035,-0.00000136,-0.00000079,-0.00000046,0.00000110,0.00000016,-0.00
 000036,-0.00000276,0.00000077,-0.00000157,0.00000089,-0.00000346,-0.00
 000052,-0.00000188,-0.00000583,-0.00000219,0.00000398,-0.00000131,0.00
 000441,-0.00001577,0.00000766,-0.00000944,0.00000427,0.00009143,-0.000
 00743,0.00005573,-0.00380490,-0.00098670,-0.00344841,0.00107874,0.0003
 6064,0.00087012,0.08040259,0.00000017,-0.00000078,0.00000017,-0.000000
 04,0.00000093,0.00000016,0.00000025,0.,-0.00000037,-0.00000006,0.00000
 255,0.00000034,-0.00000110,-0.00000385,0.00000084,0.00000166,0.0000021
 4,0.00000077,0.00000096,0.00000197,-0.00000403,0.00000025,-0.00000073,
 0.00001028,-0.00000994,0.00000972,-0.00002569,-0.00005037,-0.00004833,
 0.00009493,0.00020309,0.00041752,-0.00008037,0.00000643,-0.00011790,0.
 00009502,-0.00002168,0.00000673,-0.00001716,-0.00037518,0.00022394,0.0
 0103722,0.00341340,-0.00092247,-0.01133363,0.00174301,-0.04718254,-0.0
 2978527,0.01426239,-0.00810765,-0.01313360,0.00000004,0.00000022,-0.00
 000018,0.00000001,-0.00000002,-0.00000028,0.00000002,-0.00000038,0.000
 00028,-0.00000016,0.00000003,-0.00000016,-0.00000028,-0.00000016,0.000
 00031,-0.00000004,-0.00000002,-0.00000047,-0.00000012,-0.00000100,0.00
 000067,-0.00000016,0.00000109,-0.00000093,0.00000021,-0.00000011,-0.00
 000144,0.00000001,-0.00000155,0.00000091,-0.00000193,-0.00000019,-0.00
 000018,-0.00000155,-0.00000069,0.00000192,0.00000096,-0.00000022,-0.00
 000574,0.00000098,-0.00000316,0.00000093,-0.00001150,-0.00000021,0.000
 00312,-0.00000775,-0.00000066,0.00000798,0.00002248,-0.00000246,-0.000
 02955,0.00000678,-0.00003108,-0.00000154,0.00002594,-0.00001680,0.0000
 0451,-0.00149049,0.00005675,-0.00150391,0.00084649,0.00026617,0.000089
 19,-0.00795923,0.05028938,0.00000606,-0.00000180,-0.00000056,-0.000004
 07,0.00000320,0.00000075,-0.00000104,-0.00000250,-0.00000079,-0.000001
 55,0.00000789,0.00000182,0.00000919,-0.00000864,-0.00000325,-0.0000077
 5,0.00000632,-0.00000157,-0.00000384,-0.00000016,0.00000120,-0.0000169
 0,0.00000293,-0.00000706,0.00001132,0.00004900,0.00004998,-0.00010550,
 -0.00002585,-0.00009783,-0.00019857,0.00019959,-0.00044192,0.00006965,
 -0.00010823,0.00017854,-0.00008228,0.00003536,0.00000592,-0.00018235,0
 .00093926,0.00274181,0.00768733,-0.00299515,-0.02030644,0.08107958,-0.
 02493145,-0.28655315,-0.00231971,0.00139826,0.00523853,-0.00000070,0.,
 -0.00000036,0.00000041,-0.00000004,0.00000019,0.00000029,-0.00000038,0
 .00000008,0.00000043,0.00000017,0.00000031,-0.00000027,0.00000005,0.00
 000006,-0.00000002,-0.00000017,0.00000062,0.00000005,-0.00000254,0.000
 00057,-0.00000073,0.00000024,0.,0.00000044,0.00000094,0.00000188,0.000
 00153,-0.00000120,-0.00000019,0.00000414,0.00000006,0.00000175,-0.0000
 0066,-0.00000055,0.00000020,0.00000045,0.00000329,0.00000793,-0.000000
 02,-0.00000296,0.00000055,0.00002742,-0.00000388,-0.00000204,-0.000004
 44,-0.00000408,-0.00000092,-0.00003594,0.00006865,0.00007569,0.0000066
 9,0.00000032,0.00000599,0.00008647,-0.00001627,0.00002953,-0.00350351,
 -0.00138021,-0.00097766,-0.00000757,0.00001284,0.00123318,-0.08531739,
 0.02873561,0.30729214,0.00000126,0.00000015,-0.00000024,-0.00000097,-0
 .00000023,0.00000030,-0.00000052,-0.00000008,0.,-0.00000054,-0.0000007
 7,0.00000045,0.00000263,0.00000287,-0.00000069,-0.00000389,-0.00000344
 ,0.00000095,0.00000020,0.00000389,0.00000254,-0.00001147,-0.00000660,-
 0.00000020,0.00002167,0.00001948,0.00000597,0.00003584,0.00007987,-0.0
 0012702,-0.00012126,-0.00027838,0.00032482,0.00019492,0.00008009,-0.00
 000717,-0.00008329,0.00003371,-0.00000555,0.00278606,0.00101960,0.0005
 8011,-0.01126664,-0.02384326,0.00702535,-0.08255308,-0.09058465,0.0336
 6464,0.00692281,0.01921052,-0.00745953,-0.00000013,-0.00000008,0.00000
 006,0.00000005,0.00000007,0.00000013,0.00000002,0.00000029,-0.00000019
 ,0.00000016,0.00000001,0.00000010,0.00000020,0.00000003,-0.00000018,-0
 .00000002,-0.00000003,0.00000038,0.00000002,0.00000050,-0.00000055,-0.
 00000007,-0.00000122,0.00000015,-0.00000025,0.00000028,0.00000124,0.00
 000009,0.00000206,-0.00000163,0.00000149,-0.00000028,0.00000052,0.0000
 0162,0.00000053,-0.00000148,-0.00000067,0.00000043,0.00000537,-0.00000
 213,0.00000365,-0.00000328,0.00000957,-0.00000170,-0.00000057,0.000012
 43,-0.00000258,-0.00000696,-0.00002200,-0.00000196,0.00004184,-0.00004
 795,0.00007719,-0.00000214,0.00003671,-0.00002405,0.00003394,0.0009690
 2,0.00088410,0.00010093,-0.00317026,-0.00049008,-0.00371202,-0.0035764
 4,-0.00974901,0.00278693,0.09413751,0.00000007,0.00000044,-0.00000021,
 -0.00000026,-0.00000078,0.00000008,-0.00000002,0.00000031,0.00000016,-
 0.00000034,-0.00000215,-0.00000010,-0.00000017,0.00000338,0.00000013,-
 0.00000151,-0.00000286,0.00000034,0.00000060,0.00000358,0.00000122,-0.
 00000863,-0.00000508,0.00000028,0.00000770,0.00001724,0.00000789,-0.00
 003997,-0.00000342,0.00000118,0.00008758,0.00003833,-0.00006376,0.0000
 0649,0.00002430,-0.00001454,-0.00003022,0.00002278,-0.00001219,0.00040
 248,0.00170586,0.00003682,-0.00442849,-0.00966909,0.00304270,-0.094944
 24,-0.24747092,0.07352743,-0.00345292,-0.01558172,0.00544795,-0.000000
 14,-0.00000004,0.00000018,0.00000005,0.00000006,0.00000019,0.00000002,
 0.00000029,-0.00000024,0.00000006,-0.00000006,0.00000014,0.00000009,0.
 00000011,-0.00000022,0.00000009,0.00000009,0.00000019,0.00000014,0.000
 00082,-0.00000048,0.00000003,-0.00000074,0.00000048,0.00000002,0.00000
 012,0.00000038,-0.00000002,0.00000104,-0.00000058,0.00000015,-0.000000
 18,0.00000022,0.00000038,0.00000024,-0.00000072,0.00000032,0.00000051,
 0.00000098,0.00000039,0.00000126,-0.00000088,0.00000164,-0.00000141,-0
 .00000050,-0.00000015,-0.00000050,-0.00000083,-0.00000072,0.00000636,0
 .00000705,-0.00000280,0.00000425,0.00000242,0.00000811,-0.00001691,0.0
 0001732,0.00030772,0.00036912,-0.00016015,-0.00083337,0.00058044,-0.00
 152992,0.00113487,0.00410800,-0.00155042,0.09854421,0.26769470,-0.0000
 0425,0.00000087,0.00000041,0.00000305,-0.00000141,-0.00000030,0.000000
 77,0.00000159,0.00000028,0.00000103,-0.00000308,-0.00000079,-0.0000063
 4,0.00000312,0.00000274,0.00000477,-0.00000276,0.00000125,0.00000320,0
 .00000288,-0.00000073,-0.00000070,-0.00000070,0.00000779,0.00001553,-0
 .00001031,-0.00002093,0.00002812,0.00004731,-0.00006751,-0.00019708,-0
 .00006647,0.00021622,0.00014946,0.00001046,-0.00000033,-0.00004208,0.0
 0000586,-0.00002685,0.00220923,0.00037642,0.00022020,-0.01005528,-0.02
 035779,0.00612210,0.03385493,0.07379973,-0.07446758,-0.00010284,-0.000
 44921,-0.00008546,0.00000064,-0.00000002,0.00000018,-0.00000034,-0.000
 00003,-0.00000045,-0.00000018,-0.00000003,0.00000018,-0.00000043,-0.00
 000017,-0.00000036,0.,-0.00000017,0.00000021,-0.00000002,0.00000016,-0
 .00000080,-0.00000008,0.00000094,0.00000012,0.00000021,0.00000031,-0.0
 0000063,-0.00000011,-0.00000021,-0.00000205,-0.00000071,-0.00000030,0.
 00000096,-0.00000299,-0.00000067,-0.00000117,-0.00000131,-0.00000048,0
 .00000082,0.00000068,0.00000036,-0.00000622,0.00000131,-0.00000170,0.0
 0000246,-0.00001167,-0.00000038,0.00000116,-0.00000439,-0.00000482,0.0
 0000274,0.00002420,0.00000817,-0.00002300,-0.00001075,0.00004300,0.000
 03273,-0.00000045,-0.00002024,0.00001898,0.00081546,-0.00006388,0.0011
 7988,-0.00362413,-0.00088846,-0.00181820,0.01085839,0.02628160,-0.0087
 5010,-0.03352853,-0.07808895,0.07727022,-0.00000095,0.00000075,-0.0000
 0030,0.00000060,-0.00000123,0.00000016,-0.00000003,0.00000050,0.000000
 34,0.00000040,-0.00000254,0.00000006,-0.00000156,0.00000290,0.00000012
 ,0.00000125,-0.00000211,0.00000140,0.00000094,0.00000025,0.00000033,0.
 00000186,-0.00000006,0.00000226,-0.00000084,-0.00000539,-0.00000426,0.
 00000220,-0.00000680,0.00001460,0.00000431,0.00000156,0.00005639,-0.00
 000550,-0.00000300,-0.00001352,0.00000924,-0.00000711,-0.00000478,-0.0
 0007459,-0.00047653,0.00017738,0.00174393,0.00112118,-0.00031398,0.009
 36587,0.01757095,-0.00874146,-0.08915886,-0.10403273,0.06331575,0.0000
 0012,-0.00000012,0.00000038,-0.00000018,-0.00000003,-0.00000006,-0.000
 00003,0.00000042,-0.00000025,-0.00000011,-0.00000003,-0.00000012,0.000
 00028,0.00000012,-0.00000010,-0.00000010,-0.00000011,-0.00000015,0.000
 00004,0.00000098,-0.00000052,0.00000013,-0.00000036,0.00000009,-0.0000
 0033,-0.00000033,-0.00000043,-0.00000025,0.00000072,-0.00000053,-0.000
 00106,-0.00000009,-0.00000056,0.00000012,0.00000043,-0.00000013,-0.000
 00028,-0.00000113,-0.00000183,0.00000040,0.00000022,-0.00000050,-0.000
 00477,0.00000078,-0.00000030,-0.00000095,0.00000121,0.00000094,0.00000
 516,-0.00000671,-0.00001211,0.00000572,-0.00000618,0.00000044,-0.00000
 602,0.00000324,0.00000109,-0.00012444,-0.00011547,-0.00004543,-0.00024
 749,-0.00037633,0.00017383,0.00118977,-0.00085493,0.00001641,-0.004272
 69,0.00324076,-0.00037634,0.08156866,0.00000184,-0.00000051,-0.0000010
 2,-0.00000104,0.00000079,0.00000082,-0.00000045,-0.00000093,-0.0000000
 4,-0.00000033,0.00000183,0.00000212,0.00000419,-0.00000201,-0.00000340
 ,-0.00000235,0.00000128,0.00000243,-0.00000224,-0.00000239,0.00000064,
 0.00000163,0.00000110,0.00000170,-0.00000550,0.00000040,0.00000580,0.0
 0000356,-0.00000156,0.00000159,-0.00004212,-0.00001468,-0.00000396,-0.
 00000236,0.00001561,-0.00000890,0.00000803,0.00000135,0.00000544,-0.00
 009693,0.00031696,-0.00026765,-0.00085220,0.00071485,-0.00018556,-0.00
 824146,-0.01661247,0.00796557,-0.07904831,-0.15115799,0.07615619,-0.00
 000020,0.00000006,0.00000040,-0.00000002,-0.00000018,-0.00000017,0.000
 00007,0.00000016,-0.00000016,-0.00000001,0.,-0.00000009,0.00000026,0.0
 0000019,-0.00000004,-0.00000023,-0.00000033,-0.00000021,0.00000012,-0.
 00000028,-0.00000037,-0.00000052,-0.00000009,0.00000050,-0.00000032,-0
 .00000035,-0.00000017,0.00000062,0.00000088,-0.00000129,0.00000048,-0.
 00000007,-0.00000018,0.00000145,0.00000086,-0.00000087,-0.00000089,-0.
 00000128,0.00000074,-0.00000073,0.00000191,-0.00000219,0.00000284,0.00
 000006,-0.00000073,0.00000501,0.00000202,-0.00000257,-0.00000661,-0.00
 000257,0.00001155,-0.00000759,0.00000433,-0.00000761,-0.00000455,0.000
 00084,-0.00000434,0.00005948,0.00004382,0.00001231,0.00049242,0.000289
 59,0.00036526,-0.00124224,0.00105584,-0.00042748,0.00502487,-0.0018277
 8,-0.00062054,0.08395235,0.16717075,0.00000250,-0.00000119,-0.00000199
 ,-0.00000100,0.00000258,0.00000230,-0.00000038,-0.00000269,0.00000017,
 0.00000056,0.00000713,0.00000454,0.00000685,-0.00001039,-0.00000639,0.
 00000074,0.00000947,0.00000412,-0.00000522,-0.00001422,-0.00000135,0.0
 0002079,0.00001644,0.00000559,-0.00003263,-0.00003467,-0.00000221,0.00
 005470,-0.00001770,0.00003161,-0.00038053,-0.00001865,0.00008090,0.000
 05617,-0.00002054,0.00003331,0.00004320,-0.00002200,0.00000660,0.00052
 281,-0.00049771,0.00004281,0.00078160,0.00104849,-0.00068214,-0.000484
 17,-0.00113867,0.00132359,0.05502259,0.08471493,-0.04868047,0.00000018
 ,-0.00000028,0.00000065,-0.00000024,-0.00000054,-0.00000102,0.00000022
 ,0.00000002,-0.00000018,-0.00000042,-0.00000002,-0.00000069,0.00000017
 ,0.00000037,0.00000006,-0.00000072,-0.00000092,-0.00000107,0.00000013,
 -0.00000187,0.00000003,-0.00000149,0.00000116,-0.00000030,-0.00000050,
 -0.00000129,-0.00000204,0.00000118,-0.00000045,-0.00000094,-0.00000113
 ,0.00000034,-0.00000127,0.00000124,0.00000108,0.00000013,-0.00000210,-
 0.00000410,-0.00000444,-0.00000024,-0.00000069,-0.00000078,-0.00000306
 ,0.00000326,-0.00000026,0.00000431,0.00000427,-0.00000038,0.00000125,-
 0.00001025,-0.00000352,0.00000251,-0.00001024,-0.00000753,-0.00002914,
 0.00002617,-0.00003049,0.00005879,0.00007952,-0.00005803,-0.00049884,0
 .00000069,0.00018041,-0.00117759,-0.00044226,0.00027462,0.00028120,-0.
 00067106,0.00019182,-0.05424432,-0.08299353,0.04730424\\-0.00000260,0.
 00000220,-0.00000107,0.00000118,-0.00000194,0.00000064,0.00000226,0.00
 000049,0.00000001,-0.00000213,-0.00000118,-0.00000068,0.00000079,0.000
 00161,0.00000042,0.,-0.00000254,-0.00000125,0.00000025,0.00000176,0.00
 000040,-0.00000067,-0.00000117,-0.00000033,0.00000207,0.00000158,0.000
 00014,-0.00000156,-0.00000078,-0.00000063,-0.00001097,-0.00000567,0.00
 000243,-0.00000048,0.00000597,0.00000025,0.00000077,-0.00000395,-0.000
 00049,0.00000824,0.00001066,0.00000062,0.00000843,-0.00000729,-0.00000
 249,-0.00000951,0.00000283,0.00000089,0.00000375,-0.00000084,-0.000001
 57,-0.00000101,-0.00000055,0.00000190,0.00000058,0.00000099,-0.0000005
 7,-0.00000059,0.00000003,-0.00000035,0.00000082,-0.00000026,-0.0000002
 3,-0.00000119,0.00000105,0.00000014,0.,-0.00000061,0.00000006,0.000000
 89,0.00000082,0.00000044,0.00000011,-0.00000048,0.00000065,0.00000002,
 -0.00000013,0.00000022,0.00000030,0.00000065,0.00000032,-0.00000025,-0
 .00000016,-0.00000010,-0.00000009,0.00000015,-0.00000013,0.00000023,-0
 .00000082,-0.00000051,0.00000049,0.00000044,0.00000019,-0.00000037,-0.
 00000009,-0.00000047,-0.00000108,-0.00000051,-0.00000040,0.00000133,-0
 .00000171,-0.00000061,-0.00000032,0.00000048,-0.00000002,-0.00000001,0
 .00000134,0.00000194,0.00000095,-0.00000259,-0.00000084,-0.00000078,0.
 00000210,0.00000024,0.00000081,-0.00000037,0.00000043,0.00000065,-0.00
 000182,-0.00000029,-0.00000130,0.00000032,0.00000066\\\@


 ALL OUR THINKING ABOUT NATURE MUST NECESSARILY MOVE IN CIRCLES OR SPIRALS;
 FOR WE CAN ONLY UNDERSTAND NATURE IF WE THINK ABOUT HER, AND WE CAN ONLY
 THINK BECAUSE OUR BRAIN IS BUILT IN ACCORDANCE WITH NATURE'S LAWS.

                                             -- TIMOTHY FERRIS, "GALAXIES"
 Job cpu time:       0 days 10 hours 36 minutes 58.9 seconds.
 Elapsed time:       0 days  2 hours 39 minutes 16.0 seconds.
 File lengths (MBytes):  RWF=   1145 Int=      0 D2E=      0 Chk=     31 Scr=      1
 Normal termination of Gaussian 16 at Mon May 29 04:31:31 2023.
### All Done ###
