### Starting Gaussian ###
 Entering Gaussian System, Link 0=g16
 Initial command:
 /cluster/software/gaussian/gaussian-16-A.03/avx2/g16/l1.exe "/local/scratch/ks29c/Gau-32754.inp" -scrdir="/local/scratch/ks29c/"
 Entering Link 1 = /cluster/software/gaussian/gaussian-16-A.03/avx2/g16/l1.exe PID=     32755.
  
 Copyright (c) 1988,1990,1992,1993,1995,1998,2003,2009,2016,
            Gaussian, Inc.  All Rights Reserved.
  
 This is part of the Gaussian(R) 16 program.  It is based on
 the Gaussian(R) 09 system (copyright 2009, Gaussian, Inc.),
 the Gaussian(R) 03 system (copyright 2003, Gaussian, Inc.),
 the Gaussian(R) 98 system (copyright 1998, Gaussian, Inc.),
 the Gaussian(R) 94 system (copyright 1995, Gaussian, Inc.),
 the Gaussian 92(TM) system (copyright 1992, Gaussian, Inc.),
 the Gaussian 90(TM) system (copyright 1990, Gaussian, Inc.),
 the Gaussian 88(TM) system (copyright 1988, Gaussian, Inc.),
 the Gaussian 86(TM) system (copyright 1986, Carnegie Mellon
 University), and the Gaussian 82(TM) system (copyright 1983,
 Carnegie Mellon University). Gaussian is a federally registered
 trademark of Gaussian, Inc.
  
 This software contains proprietary and confidential information,
 including trade secrets, belonging to Gaussian, Inc.
  
 This software is provided under written license and may be
 used, copied, transmitted, or stored only in accord with that
 written license.
  
 The following legend is applicable only to US Government
 contracts under FAR:
  
                    RESTRICTED RIGHTS LEGEND
  
 Use, reproduction and disclosure by the US Government is
 subject to restrictions as set forth in subparagraphs (a)
 and (c) of the Commercial Computer Software - Restricted
 Rights clause in FAR 52.227-19.
  
 Gaussian, Inc.
 340 Quinnipiac St., Bldg. 40, Wallingford CT 06492
  
  
 ---------------------------------------------------------------
 Warning -- This program may not be used in any manner that
 competes with the business of Gaussian, Inc. or will provide
 assistance to any competitor of Gaussian, Inc.  The licensee
 of this program is prohibited from giving any competitor of
 Gaussian, Inc. access to this program.  By using this program,
 the user acknowledges that Gaussian, Inc. is engaged in the
 business of creating and licensing software in the field of
 computational chemistry and represents and warrants to the
 licensee that it is not a competitor of Gaussian, Inc. and that
 it will not use this program in any manner prohibited above.
 ---------------------------------------------------------------
  

 Cite this work as:
 Gaussian 16, Revision A.03,
 M. J. Frisch, G. W. Trucks, H. B. Schlegel, G. E. Scuseria, 
 M. A. Robb, J. R. Cheeseman, G. Scalmani, V. Barone, 
 G. A. Petersson, H. Nakatsuji, X. Li, M. Caricato, A. V. Marenich, 
 J. Bloino, B. G. Janesko, R. Gomperts, B. Mennucci, H. P. Hratchian, 
 J. V. Ortiz, A. F. Izmaylov, J. L. Sonnenberg, D. Williams-Young, 
 F. Ding, F. Lipparini, F. Egidi, J. Goings, B. Peng, A. Petrone, 
 T. Henderson, D. Ranasinghe, V. G. Zakrzewski, J. Gao, N. Rega, 
 G. Zheng, W. Liang, M. Hada, M. Ehara, K. Toyota, R. Fukuda, 
 J. Hasegawa, M. Ishida, T. Nakajima, Y. Honda, O. Kitao, H. Nakai, 
 T. Vreven, K. Throssell, J. A. Montgomery, Jr., J. E. Peralta, 
 F. Ogliaro, M. J. Bearpark, J. J. Heyd, E. N. Brothers, K. N. Kudin, 
 V. N. Staroverov, T. A. Keith, R. Kobayashi, J. Normand, 
 K. Raghavachari, A. P. Rendell, J. C. Burant, S. S. Iyengar, 
 J. Tomasi, M. Cossi, J. M. Millam, M. Klene, C. Adamo, R. Cammi, 
 J. W. Ochterski, R. L. Martin, K. Morokuma, O. Farkas, 
 J. B. Foresman, and D. J. Fox, Gaussian, Inc., Wallingford CT, 2016.
 
 ******************************************
 Gaussian 16:  ES64L-G16RevA.03 25-Dec-2016
                22-May-2023 
 ******************************************
 %chk=OdC1CCCCNdCdC2CdC12.chk
 %NProcShared=20
 Will use up to   20 processors via shared memory.
 -----------------------------
 # opt freq b3lyp/6-31g(2df,p)
 -----------------------------
 1/18=20,19=15,26=3,38=1/1,3;
 2/9=110,12=2,17=6,18=5,40=1/2;
 3/5=1,6=6,7=104,11=2,25=1,30=1,71=1,74=-5/1,2,3;
 4//1;
 5/5=2,38=5/2;
 6/7=2,8=2,9=2,10=2,28=1/1;
 7//1,2,3,16;
 1/18=20,19=15,26=3/3(2);
 2/9=110/2;
 99//99;
 2/9=110/2;
 3/5=1,6=6,7=104,11=2,25=1,30=1,71=1,74=-5/1,2,3;
 4/5=5,16=3,69=1/1;
 5/5=2,38=5/2;
 7//1,2,3,16;
 1/18=20,19=15,26=3/3(-5);
 2/9=110/2;
 6/7=2,8=2,9=2,10=2,19=2,28=1/1;
 99/9=1/99;
 -------------------
 Title Card Required
 -------------------
 Symbolic Z-matrix:
 Charge =  0 Multiplicity = 1
 O                     5.3315    0.34772   0.54645 
 C                     5.79071  -0.12043  -0.49373 
 C                     3.97639  -0.5149   -1.14853 
 C                     5.18709  -0.72539  -1.51023 
 C                     5.195    -1.40698  -2.77024 
 C                     6.58758  -1.32609  -2.6855 
 N                     7.39402  -2.00821  -3.65124 
 C                     8.36822  -2.0192   -3.00909 
 C                     8.79095  -1.36181  -1.9227 
 C                     8.9585   -0.02395  -2.19619 
 C                     7.82415  -0.07529  -1.2082 
 H                     3.34776   0.01747  -1.99788 
 H                     3.36666  -1.54783  -1.16523 
 H                     5.10428  -1.61682  -0.3962 
 H                     4.97571   0.71293  -1.59987 
 H                     4.83991  -0.64888  -3.45189 
 H                     4.8493   -2.38584  -2.50856 
 H                     6.82426  -1.8781   -1.55565 
 H                     6.65121  -0.0831   -2.74469 
 H                     9.61391  -0.18259  -3.36031 
 
 Add virtual bond connecting atoms H20        and C10        Dist= 2.54D+00.
 Add virtual bond connecting atoms H14        and C4         Dist= 2.70D+00.
 Add virtual bond connecting atoms H15        and C2         Dist= 3.04D+00.
 Add virtual bond connecting atoms H15        and C4         Dist= 2.75D+00.

 GradGradGradGradGradGradGradGradGradGradGradGradGradGradGradGradGradGrad
 Berny optimization.
 Initialization pass.
                           ----------------------------
                           !    Initial Parameters    !
                           ! (Angstroms and Degrees)  !
 --------------------------                            --------------------------
 ! Name  Definition              Value          Derivative Info.                !
 --------------------------------------------------------------------------------
 ! R1    R(1,2)                  1.2296         estimate D2E/DX2                !
 ! R2    R(2,4)                  1.328          estimate D2E/DX2                !
 ! R3    R(2,15)                 1.6069         estimate D2E/DX2                !
 ! R4    R(3,4)                  1.281          estimate D2E/DX2                !
 ! R5    R(3,12)                 1.1832         estimate D2E/DX2                !
 ! R6    R(3,13)                 1.1996         estimate D2E/DX2                !
 ! R7    R(4,5)                  1.4326         estimate D2E/DX2                !
 ! R8    R(4,14)                 1.4292         estimate D2E/DX2                !
 ! R9    R(4,15)                 1.4565         estimate D2E/DX2                !
 ! R10   R(5,6)                  1.3975         estimate D2E/DX2                !
 ! R11   R(5,16)                 1.0796         estimate D2E/DX2                !
 ! R12   R(5,17)                 1.0706         estimate D2E/DX2                !
 ! R13   R(6,7)                  1.4312         estimate D2E/DX2                !
 ! R14   R(6,18)                 1.2796         estimate D2E/DX2                !
 ! R15   R(6,19)                 1.246          estimate D2E/DX2                !
 ! R16   R(7,8)                  1.1669         estimate D2E/DX2                !
 ! R17   R(8,9)                  1.3383         estimate D2E/DX2                !
 ! R18   R(9,10)                 1.3758         estimate D2E/DX2                !
 ! R19   R(9,11)                 1.7608         estimate D2E/DX2                !
 ! R20   R(10,11)                1.5052         estimate D2E/DX2                !
 ! R21   R(10,20)                1.3453         estimate D2E/DX2                !
 ! A1    A(1,2,4)              130.631          estimate D2E/DX2                !
 ! A2    A(1,2,15)             101.2707         estimate D2E/DX2                !
 ! A3    A(4,3,12)             111.9245         estimate D2E/DX2                !
 ! A4    A(4,3,13)             109.571          estimate D2E/DX2                !
 ! A5    A(12,3,13)             96.1648         estimate D2E/DX2                !
 ! A6    A(2,4,3)               97.9674         estimate D2E/DX2                !
 ! A7    A(2,4,5)              152.5558         estimate D2E/DX2                !
 ! A8    A(2,4,14)              73.3711         estimate D2E/DX2                !
 ! A9    A(3,4,5)              109.3749         estimate D2E/DX2                !
 ! A10   A(3,4,14)              80.0745         estimate D2E/DX2                !
 ! A11   A(3,4,15)              73.6174         estimate D2E/DX2                !
 ! A12   A(5,4,14)             112.9018         estimate D2E/DX2                !
 ! A13   A(5,4,15)             114.6141         estimate D2E/DX2                !
 ! A14   A(14,4,15)            130.9575         estimate D2E/DX2                !
 ! A15   A(4,5,6)               85.6775         estimate D2E/DX2                !
 ! A16   A(4,5,16)             102.6758         estimate D2E/DX2                !
 ! A17   A(4,5,17)             102.6063         estimate D2E/DX2                !
 ! A18   A(6,5,16)             108.99           estimate D2E/DX2                !
 ! A19   A(6,5,17)             111.0924         estimate D2E/DX2                !
 ! A20   A(16,5,17)            133.645          estimate D2E/DX2                !
 ! A21   A(5,6,7)              119.5373         estimate D2E/DX2                !
 ! A22   A(5,6,18)             102.2917         estimate D2E/DX2                !
 ! A23   A(5,6,19)              96.0702         estimate D2E/DX2                !
 ! A24   A(7,6,18)             106.6182         estimate D2E/DX2                !
 ! A25   A(7,6,19)             114.4956         estimate D2E/DX2                !
 ! A26   A(18,6,19)            117.5713         estimate D2E/DX2                !
 ! A27   A(6,7,8)               95.9455         estimate D2E/DX2                !
 ! A28   A(7,8,9)              134.8958         estimate D2E/DX2                !
 ! A29   A(8,9,10)             110.7793         estimate D2E/DX2                !
 ! A30   A(8,9,11)             120.9885         estimate D2E/DX2                !
 ! A31   A(9,10,20)             96.7003         estimate D2E/DX2                !
 ! A32   A(11,10,20)           158.6103         estimate D2E/DX2                !
 ! D1    D(1,2,4,3)              7.8024         estimate D2E/DX2                !
 ! D2    D(1,2,4,5)           -177.1119         estimate D2E/DX2                !
 ! D3    D(1,2,4,14)           -69.2861         estimate D2E/DX2                !
 ! D4    D(12,3,4,2)           125.5551         estimate D2E/DX2                !
 ! D5    D(12,3,4,5)           -52.0463         estimate D2E/DX2                !
 ! D6    D(12,3,4,14)         -162.9775         estimate D2E/DX2                !
 ! D7    D(12,3,4,15)           58.858          estimate D2E/DX2                !
 ! D8    D(13,3,4,2)          -129.0215         estimate D2E/DX2                !
 ! D9    D(13,3,4,5)            53.3771         estimate D2E/DX2                !
 ! D10   D(13,3,4,14)          -57.554          estimate D2E/DX2                !
 ! D11   D(13,3,4,15)          164.2814         estimate D2E/DX2                !
 ! D12   D(2,4,5,6)              3.2734         estimate D2E/DX2                !
 ! D13   D(2,4,5,16)          -105.2374         estimate D2E/DX2                !
 ! D14   D(2,4,5,17)           113.9388         estimate D2E/DX2                !
 ! D15   D(3,4,5,6)            178.1138         estimate D2E/DX2                !
 ! D16   D(3,4,5,16)            69.603          estimate D2E/DX2                !
 ! D17   D(3,4,5,17)           -71.2208         estimate D2E/DX2                !
 ! D18   D(14,4,5,6)           -94.7401         estimate D2E/DX2                !
 ! D19   D(14,4,5,16)          156.749          estimate D2E/DX2                !
 ! D20   D(14,4,5,17)           15.9253         estimate D2E/DX2                !
 ! D21   D(15,4,5,6)            97.7711         estimate D2E/DX2                !
 ! D22   D(15,4,5,16)          -10.7397         estimate D2E/DX2                !
 ! D23   D(15,4,5,17)         -151.5634         estimate D2E/DX2                !
 ! D24   D(4,5,6,7)            172.7037         estimate D2E/DX2                !
 ! D25   D(4,5,6,18)            55.3239         estimate D2E/DX2                !
 ! D26   D(4,5,6,19)           -64.6465         estimate D2E/DX2                !
 ! D27   D(16,5,6,7)           -85.3665         estimate D2E/DX2                !
 ! D28   D(16,5,6,18)          157.2538         estimate D2E/DX2                !
 ! D29   D(16,5,6,19)           37.2834         estimate D2E/DX2                !
 ! D30   D(17,5,6,7)            70.8486         estimate D2E/DX2                !
 ! D31   D(17,5,6,18)          -46.5311         estimate D2E/DX2                !
 ! D32   D(17,5,6,19)         -166.5015         estimate D2E/DX2                !
 ! D33   D(5,6,7,8)           -160.1067         estimate D2E/DX2                !
 ! D34   D(18,6,7,8)           -44.9894         estimate D2E/DX2                !
 ! D35   D(19,6,7,8)            86.8304         estimate D2E/DX2                !
 ! D36   D(6,7,8,9)            -16.0841         estimate D2E/DX2                !
 ! D37   D(7,8,9,10)           -66.1992         estimate D2E/DX2                !
 ! D38   D(7,8,9,11)            -4.5268         estimate D2E/DX2                !
 ! D39   D(8,9,10,20)          -45.7582         estimate D2E/DX2                !
 ! D40   D(9,10,11,20)         -69.9016         estimate D2E/DX2                !
 --------------------------------------------------------------------------------
 Trust Radius=3.00D-01 FncErr=1.00D-07 GrdErr=1.00D-06 EigMax=2.50D+02 EigMin=1.00D-04
 Number of steps in this run=    103 maximum allowed number of steps=    120.
 GradGradGradGradGradGradGradGradGradGradGradGradGradGradGradGradGradGrad

                          Input orientation:                          
 ---------------------------------------------------------------------
 Center     Atomic      Atomic             Coordinates (Angstroms)
 Number     Number       Type             X           Y           Z
 ---------------------------------------------------------------------
      1          8           0        5.331500    0.347720    0.546450
      2          6           0        5.790710   -0.120430   -0.493730
      3          6           0        3.976390   -0.514900   -1.148530
      4          6           0        5.187090   -0.725390   -1.510230
      5          6           0        5.195000   -1.406980   -2.770240
      6          6           0        6.587580   -1.326090   -2.685500
      7          7           0        7.394020   -2.008210   -3.651240
      8          6           0        8.368220   -2.019200   -3.009090
      9          6           0        8.790950   -1.361810   -1.922700
     10          6           0        8.958500   -0.023950   -2.196190
     11          6           0        7.824150   -0.075290   -1.208200
     12          1           0        3.347760    0.017470   -1.997880
     13          1           0        3.366660   -1.547830   -1.165230
     14          1           0        5.104280   -1.616820   -0.396200
     15          1           0        4.975710    0.712930   -1.599870
     16          1           0        4.839910   -0.648880   -3.451890
     17          1           0        4.849300   -2.385840   -2.508560
     18          1           0        6.824260   -1.878100   -1.555650
     19          1           0        6.651210   -0.083100   -2.744690
     20          1           0        9.613910   -0.182590   -3.360310
 ---------------------------------------------------------------------
                    Distance matrix (angstroms):
                    1          2          3          4          5
     1  O    0.000000
     2  C    1.229639   0.000000
     3  C    2.335250   1.968788   0.000000
     4  C    2.324296   1.328008   1.280987   0.000000
     5  C    3.754735   2.681898   2.216024   1.432569   0.000000
     6  C    3.850309   2.625352   3.136657   1.924441   1.397499
     7  N    5.236888   4.013002   4.491517   3.331680   2.444039
     8  C    5.240787   4.071354   5.001277   3.747014   3.240554
     9  C    4.581156   3.547453   4.949402   3.682794   3.694756
    10  C    4.562383   3.597579   5.114689   3.896934   4.050461
    11  C    3.077505   2.155779   3.873251   2.732753   3.335535
    12  H    3.243132   2.872192   1.183211   2.042738   2.457213
    13  H    3.222352   2.892127   1.199581   2.027165   2.436950
    14  H    2.190807   1.649206   1.747102   1.429184   2.385022
    15  H    2.206050   1.606941   1.646182   1.456531   2.431434
    16  H    4.149891   3.151823   2.463551   1.973938   1.079561
    17  H    4.127706   3.174567   2.472260   1.966687   1.070585
    18  H    3.406087   2.298979   3.183461   2.002780   2.086066
    19  H    3.571952   2.410119   3.144653   2.019920   1.968212
    20  H    5.820914   4.778912   6.064984   4.828474   4.623211
                    6          7          8          9         10
     6  C    0.000000
     7  N    1.431184   0.000000
     8  C    1.937986   1.166852   0.000000
     9  C    2.331947   2.314540   1.338322   0.000000
    10  C    2.748864   2.915829   2.233889   1.375769   0.000000
    11  C    2.296959   3.144779   2.705181   1.760780   1.505161
    12  H    3.574130   4.817593   5.511405   5.615726   5.614396
    13  H    3.568573   4.755189   5.351412   5.480081   5.886745
    14  H    2.743282   3.998922   4.200287   3.998346   4.542269
    15  H    2.816792   4.178630   4.578161   4.354862   4.094045
    16  H    2.024924   2.900172   3.810882   4.296209   4.350874
    17  H    2.043525   2.814946   3.573199   4.114423   4.749908
    18  H    1.279568   2.175558   2.125138   2.066192   2.898818
    19  H    1.246024   2.253807   2.601252   2.624739   2.372328
    20  H    3.304790   2.888848   2.246828   2.033358   1.345327
                   11         12         13         14         15
    11  C    0.000000
    12  H    4.546456   0.000000
    13  H    4.694618   1.773084   0.000000
    14  H    3.230070   2.884726   1.901444   0.000000
    15  H    2.981326   1.814469   2.808735   2.625469   0.000000
    16  H    3.777412   2.187391   2.864854   3.216215   2.302813
    17  H    3.984885   2.879464   2.169105   2.262404   3.231729
    18  H    2.090604   3.984320   3.495212   2.090675   3.183163
    19  H    1.933042   3.388307   3.927900   3.203232   2.179811
    20  H    2.801130   6.415674   6.760946   5.583881   5.041230
                   16         17         18         19         20
    16  H    0.000000
    17  H    1.976611   0.000000
    18  H    3.007383   2.250845   0.000000
    19  H    2.025104   2.933470   2.160043   0.000000
    20  H    4.797592   5.318016   3.730107   3.027619   0.000000
 Stoichiometry    C9H9NO
 Framework group  C1[X(C9H9NO)]
 Deg. of freedom    54
 Full point group                 C1      NOp   1
 Largest Abelian subgroup         C1      NOp   1
 Largest concise Abelian subgroup C1      NOp   1
                         Standard orientation:                         
 ---------------------------------------------------------------------
 Center     Atomic      Atomic             Coordinates (Angstroms)
 Number     Number       Type             X           Y           Z
 ---------------------------------------------------------------------
      1          8           0        2.384820    1.612995   -0.251233
      2          6           0        1.397961    0.896130   -0.095586
      3          6           0        2.548014   -0.689432    0.103159
      4          6           0        1.297509   -0.422434    0.026500
      5          6           0        0.543653   -1.632324    0.168347
      6          6           0       -0.585884   -0.815760    0.066487
      7          7           0       -1.882819   -1.413815   -0.026120
      8          6           0       -2.414817   -0.479242   -0.478994
      9          6           0       -2.115297    0.821124   -0.581189
     10          6           0       -2.081124    1.413140    0.660216
     11          6           0       -0.661524    1.477874    0.164176
     12          1           0        2.807040   -1.317790    1.071694
     13          1           0        2.824393   -1.549476   -0.686102
     14          1           0        1.687564   -0.165286   -1.324167
     15          1           0        1.764128    0.152197    1.280911
     16          1           0        0.699629   -1.888414    1.205429
     17          1           0        0.737855   -2.138234   -0.754958
     18          1           0       -0.383410   -0.207622   -1.040972
     19          1           0       -0.384136   -0.179902    1.118894
     20          1           0       -3.222842    0.872811    1.123281
 ---------------------------------------------------------------------
 Rotational constants (GHZ):           2.2452851           0.9916786           0.7374478
 Standard basis: 6-31G(2df,p) (6D, 7F)
 There are   386 symmetry adapted cartesian basis functions of A   symmetry.
 There are   353 symmetry adapted basis functions of A   symmetry.
   353 basis functions,   547 primitive gaussians,   386 cartesian basis functions
    39 alpha electrons       39 beta electrons
       nuclear repulsion energy       592.3944911042 Hartrees.
 NAtoms=   20 NActive=   20 NUniq=   20 SFac= 1.00D+00 NAtFMM=   60 NAOKFM=F Big=F
 Integral buffers will be    131072 words long.
 Raffenetti 2 integral format.
 Two-electron integral symmetry is turned on.
 One-electron integrals computed using PRISM.
 PrsmSu:  requested number of processors reduced to:  13 ShMem   1 Linda.
 NBasis=   353 RedAO= T EigKep=  1.81D-04  NBF=   353
 NBsUse=   353 1.00D-06 EigRej= -1.00D+00 NBFU=   353
 ExpMin= 1.61D-01 ExpMax= 5.48D+03 ExpMxC= 8.25D+02 IAcc=3 IRadAn=         5 AccDes= 0.00D+00
 Harris functional with IExCor=  402 and IRadAn=       5 diagonalized for initial guess.
 HarFok:  IExCor=  402 AccDes= 0.00D+00 IRadAn=         5 IDoV= 1 UseB2=F ITyADJ=14
 ICtDFT=  3500011 ScaDFX=  1.000000  1.000000  1.000000  1.000000
 FoFCou: FMM=F IPFlag=           0 FMFlag=      100000 FMFlg1=           0
         NFxFlg=           0 DoJE=T BraDBF=F KetDBF=T FulRan=T
         wScrn=  0.000000 ICntrl=       500 IOpCl=  0 I1Cent=   200000004 NGrid=           0
         NMat0=    1 NMatS0=      1 NMatT0=    0 NMatD0=    1 NMtDS0=    0 NMtDT0=    0
 Petite list used in FoFCou.
 Requested convergence on RMS density matrix=1.00D-08 within 128 cycles.
 Requested convergence on MAX density matrix=1.00D-06.
 Requested convergence on             energy=1.00D-06.
 No special actions if energy rises.
 Integral accuracy reduced to 1.0D-05 until final iterations.
 EnCoef did     2 forward-backward iterations
 EnCoef did   100 forward-backward iterations
 Problem detected with inexpensive integrals.
 Switching to full accuracy and repeating last cycle.
 EnCoef did     3 forward-backward iterations
 EnCoef did     2 forward-backward iterations
 EnCoef did     3 forward-backward iterations
 EnCoef did     7 forward-backward iterations
 EnCoef did     1 forward-backward iterations
 EnCoef did     3 forward-backward iterations
 EnCoef did     2 forward-backward iterations
 EnCoef did   100 forward-backward iterations
 EnCoef did     2 forward-backward iterations
 Restarting incremental Fock formation.
 SCF Done:  E(RB3LYP) =  -477.279900831     A.U. after   29 cycles
            NFock= 29  Conv=0.57D-08     -V/T= 2.0039

 **********************************************************************

            Population analysis using the SCF density.

 **********************************************************************

 Orbital symmetries:
       Occupied  (A) (A) (A) (A) (A) (A) (A) (A) (A) (A) (A) (A)
                 (A) (A) (A) (A) (A) (A) (A) (A) (A) (A) (A) (A)
                 (A) (A) (A) (A) (A) (A) (A) (A) (A) (A) (A) (A)
                 (A) (A) (A)
       Virtual   (A) (A) (A) (A) (A) (A) (A) (A) (A) (A) (A) (A)
                 (A) (A) (A) (A) (A) (A) (A) (A) (A) (A) (A) (A)
                 (A) (A) (A) (A) (A) (A) (A) (A) (A) (A) (A) (A)
                 (A) (A) (A) (A) (A) (A) (A) (A) (A) (A) (A) (A)
                 (A) (A) (A) (A) (A) (A) (A) (A) (A) (A) (A) (A)
                 (A) (A) (A) (A) (A) (A) (A) (A) (A) (A) (A) (A)
                 (A) (A) (A) (A) (A) (A) (A) (A) (A) (A) (A) (A)
                 (A) (A) (A) (A) (A) (A) (A) (A) (A) (A) (A) (A)
                 (A) (A) (A) (A) (A) (A) (A) (A) (A) (A) (A) (A)
                 (A) (A) (A) (A) (A) (A) (A) (A) (A) (A) (A) (A)
                 (A) (A) (A) (A) (A) (A) (A) (A) (A) (A) (A) (A)
                 (A) (A) (A) (A) (A) (A) (A) (A) (A) (A) (A) (A)
                 (A) (A) (A) (A) (A) (A) (A) (A) (A) (A) (A) (A)
                 (A) (A) (A) (A) (A) (A) (A) (A) (A) (A) (A) (A)
                 (A) (A) (A) (A) (A) (A) (A) (A) (A) (A) (A) (A)
                 (A) (A) (A) (A) (A) (A) (A) (A) (A) (A) (A) (A)
                 (A) (A) (A) (A) (A) (A) (A) (A) (A) (A) (A) (A)
                 (A) (A) (A) (A) (A) (A) (A) (A) (A) (A) (A) (A)
                 (A) (A) (A) (A) (A) (A) (A) (A) (A) (A) (A) (A)
                 (A) (A) (A) (A) (A) (A) (A) (A) (A) (A) (A) (A)
                 (A) (A) (A) (A) (A) (A) (A) (A) (A) (A) (A) (A)
                 (A) (A) (A) (A) (A) (A) (A) (A) (A) (A) (A) (A)
                 (A) (A) (A) (A) (A) (A) (A) (A) (A) (A) (A) (A)
                 (A) (A) (A) (A) (A) (A) (A) (A) (A) (A) (A) (A)
                 (A) (A) (A) (A) (A) (A) (A) (A) (A) (A) (A) (A)
                 (A) (A) (A) (A) (A) (A) (A) (A) (A) (A) (A) (A)
                 (A) (A)
 The electronic state is 1-A.
 Alpha  occ. eigenvalues --  -19.19379 -14.35077 -10.35511 -10.31559 -10.26569
 Alpha  occ. eigenvalues --  -10.26358 -10.25830 -10.24370 -10.23609 -10.23384
 Alpha  occ. eigenvalues --  -10.21765  -1.09839  -1.02681  -0.96376  -0.88100
 Alpha  occ. eigenvalues --   -0.83907  -0.72972  -0.67991  -0.62260  -0.61282
 Alpha  occ. eigenvalues --   -0.58667  -0.54366  -0.51765  -0.50784  -0.47924
 Alpha  occ. eigenvalues --   -0.47590  -0.45985  -0.44186  -0.43232  -0.39577
 Alpha  occ. eigenvalues --   -0.37983  -0.35926  -0.34834  -0.33513  -0.30713
 Alpha  occ. eigenvalues --   -0.27904  -0.27089  -0.21544  -0.17098
 Alpha virt. eigenvalues --   -0.13516  -0.13028  -0.09113  -0.03850  -0.01816
 Alpha virt. eigenvalues --    0.00330   0.00941   0.02157   0.04600   0.08066
 Alpha virt. eigenvalues --    0.08716   0.10195   0.11985   0.15200   0.16507
 Alpha virt. eigenvalues --    0.19092   0.21814   0.23825   0.26050   0.28002
 Alpha virt. eigenvalues --    0.29190   0.32758   0.33104   0.37164   0.39356
 Alpha virt. eigenvalues --    0.40373   0.43674   0.44711   0.45639   0.46496
 Alpha virt. eigenvalues --    0.48281   0.48434   0.50196   0.51026   0.52278
 Alpha virt. eigenvalues --    0.54369   0.55015   0.55312   0.56567   0.56825
 Alpha virt. eigenvalues --    0.58643   0.58708   0.61196   0.61697   0.62734
 Alpha virt. eigenvalues --    0.64062   0.65034   0.65969   0.66662   0.67244
 Alpha virt. eigenvalues --    0.68368   0.69532   0.70982   0.72932   0.73189
 Alpha virt. eigenvalues --    0.74660   0.74755   0.75571   0.77132   0.77594
 Alpha virt. eigenvalues --    0.78558   0.80145   0.81034   0.82301   0.83859
 Alpha virt. eigenvalues --    0.85554   0.86381   0.88155   0.90548   0.91259
 Alpha virt. eigenvalues --    0.92604   0.93554   0.95006   0.96157   0.97969
 Alpha virt. eigenvalues --    0.99883   1.02328   1.03213   1.05369   1.09542
 Alpha virt. eigenvalues --    1.11950   1.14071   1.18022   1.18768   1.20417
 Alpha virt. eigenvalues --    1.22672   1.23799   1.29286   1.30002   1.31570
 Alpha virt. eigenvalues --    1.34555   1.35075   1.37397   1.37609   1.40853
 Alpha virt. eigenvalues --    1.42437   1.42960   1.44519   1.47922   1.49497
 Alpha virt. eigenvalues --    1.49836   1.51822   1.53161   1.54774   1.56125
 Alpha virt. eigenvalues --    1.57692   1.59409   1.61116   1.62908   1.64349
 Alpha virt. eigenvalues --    1.65243   1.65789   1.68089   1.68795   1.71476
 Alpha virt. eigenvalues --    1.72236   1.75809   1.78198   1.81914   1.82440
 Alpha virt. eigenvalues --    1.83070   1.86639   1.89605   1.91267   1.92387
 Alpha virt. eigenvalues --    1.95338   1.99692   2.03188   2.04921   2.07015
 Alpha virt. eigenvalues --    2.10497   2.13018   2.15628   2.15918   2.23809
 Alpha virt. eigenvalues --    2.24817   2.26843   2.29425   2.32196   2.35983
 Alpha virt. eigenvalues --    2.37792   2.40336   2.42445   2.47665   2.49715
 Alpha virt. eigenvalues --    2.51615   2.53619   2.56084   2.57611   2.59246
 Alpha virt. eigenvalues --    2.60304   2.62560   2.64700   2.67965   2.68463
 Alpha virt. eigenvalues --    2.69689   2.71723   2.72910   2.74104   2.74980
 Alpha virt. eigenvalues --    2.78196   2.79380   2.82813   2.84104   2.85837
 Alpha virt. eigenvalues --    2.88255   2.91699   2.93257   2.94617   2.99562
 Alpha virt. eigenvalues --    3.00856   3.03542   3.04132   3.05551   3.07478
 Alpha virt. eigenvalues --    3.10373   3.10561   3.12385   3.14373   3.14920
 Alpha virt. eigenvalues --    3.16529   3.18432   3.21105   3.23923   3.25700
 Alpha virt. eigenvalues --    3.28014   3.29433   3.31782   3.34364   3.35628
 Alpha virt. eigenvalues --    3.37550   3.38429   3.40469   3.42180   3.44065
 Alpha virt. eigenvalues --    3.44255   3.47678   3.49494   3.51295   3.53943
 Alpha virt. eigenvalues --    3.56580   3.59770   3.62199   3.64671   3.68283
 Alpha virt. eigenvalues --    3.70937   3.72146   3.73992   3.76096   3.77646
 Alpha virt. eigenvalues --    3.79429   3.80408   3.83324   3.88019   3.90200
 Alpha virt. eigenvalues --    3.93301   3.96685   3.97385   3.99799   4.03676
 Alpha virt. eigenvalues --    4.07214   4.11415   4.12231   4.16209   4.18070
 Alpha virt. eigenvalues --    4.20011   4.21987   4.23604   4.27080   4.27985
 Alpha virt. eigenvalues --    4.30640   4.32730   4.35197   4.36817   4.38634
 Alpha virt. eigenvalues --    4.41221   4.42692   4.43465   4.44404   4.46214
 Alpha virt. eigenvalues --    4.48476   4.49846   4.51620   4.52345   4.54532
 Alpha virt. eigenvalues --    4.55856   4.57000   4.61110   4.61770   4.62435
 Alpha virt. eigenvalues --    4.65355   4.66257   4.67144   4.68441   4.70619
 Alpha virt. eigenvalues --    4.73263   4.74245   4.77968   4.79664   4.81995
 Alpha virt. eigenvalues --    4.82338   4.84579   4.88291   4.90601   4.92915
 Alpha virt. eigenvalues --    4.97278   4.99736   5.00928   5.02082   5.03019
 Alpha virt. eigenvalues --    5.06454   5.08872   5.10249   5.13901   5.15610
 Alpha virt. eigenvalues --    5.17541   5.19235   5.21803   5.22497   5.29051
 Alpha virt. eigenvalues --    5.33617   5.34640   5.38484   5.41044   5.42603
 Alpha virt. eigenvalues --    5.49939   5.53504   5.54720   5.58182   5.59624
 Alpha virt. eigenvalues --    5.67340   5.75043   5.87926   5.97496   6.01448
 Alpha virt. eigenvalues --    6.04233   6.23926   6.35028   6.43651   6.45682
 Alpha virt. eigenvalues --    6.97263   7.33239  10.18371  10.93821  11.11533
 Alpha virt. eigenvalues --   11.28616  11.37016  11.59079  11.78669  11.90552
 Alpha virt. eigenvalues --   12.12548  12.79298  13.26210  20.42961
          Condensed to atoms (all electrons):
               1          2          3          4          5          6
     1  O    7.653889   0.771551  -0.034151  -0.068510   0.001541   0.000983
     2  C    0.771551   4.909379  -0.014029   0.334021  -0.063553   0.008748
     3  C   -0.034151  -0.014029   5.974416   0.270567  -0.099935  -0.002292
     4  C   -0.068510   0.334021   0.270567   4.702342   0.334065  -0.003122
     5  C    0.001541  -0.063553  -0.099935   0.334065   5.239133   0.323463
     6  C    0.000983   0.008748  -0.002292  -0.003122   0.323463   5.241888
     7  N   -0.000004   0.001475  -0.001424  -0.009571  -0.024027   0.256028
     8  C   -0.000001  -0.000813  -0.000653  -0.000357   0.001995  -0.186990
     9  C    0.000087  -0.001876  -0.000214   0.001258   0.004655  -0.067445
    10  C    0.000109  -0.003380   0.000002   0.000515   0.000764  -0.027547
    11  C   -0.020363   0.141816   0.006763  -0.061996  -0.005808  -0.059117
    12  H    0.002581   0.000668   0.354300  -0.046466   0.000396   0.000908
    13  H    0.002449   0.002250   0.318202  -0.035839  -0.001919   0.002690
    14  H   -0.026201  -0.189934  -0.138364   0.178780   0.024225  -0.045523
    15  H   -0.038847  -0.145434  -0.153449   0.126716   0.021740  -0.047941
    16  H   -0.000048  -0.004359  -0.020671  -0.018013   0.333103  -0.023572
    17  H   -0.000031  -0.003035  -0.020167  -0.010202   0.349251  -0.014912
    18  H   -0.000117  -0.037978   0.000771   0.006426  -0.061665   0.374308
    19  H   -0.000246  -0.026684  -0.005486  -0.010534  -0.055751   0.312579
    20  H   -0.000000   0.000069   0.000001  -0.000103   0.000215  -0.001507
               7          8          9         10         11         12
     1  O   -0.000004  -0.000001   0.000087   0.000109  -0.020363   0.002581
     2  C    0.001475  -0.000813  -0.001876  -0.003380   0.141816   0.000668
     3  C   -0.001424  -0.000653  -0.000214   0.000002   0.006763   0.354300
     4  C   -0.009571  -0.000357   0.001258   0.000515  -0.061996  -0.046466
     5  C   -0.024027   0.001995   0.004655   0.000764  -0.005808   0.000396
     6  C    0.256028  -0.186990  -0.067445  -0.027547  -0.059117   0.000908
     7  N    6.279148   0.774598  -0.069731  -0.005706  -0.002114   0.000022
     8  C    0.774598   4.961754   0.641697  -0.079489  -0.054257  -0.000020
     9  C   -0.069731   0.641697   5.091780   0.399542   0.146542  -0.000011
    10  C   -0.005706  -0.079489   0.399542   5.170625   0.441190   0.000011
    11  C   -0.002114  -0.054257   0.146542   0.441190   5.535962  -0.000037
    12  H    0.000022  -0.000020  -0.000011   0.000011  -0.000037   0.627221
    13  H    0.000022  -0.000025  -0.000001   0.000004  -0.000130  -0.051635
    14  H    0.001844  -0.001652  -0.000952   0.000445   0.000763   0.003751
    15  H    0.001264  -0.000683  -0.000742   0.001172   0.003809  -0.019783
    16  H    0.000209  -0.000910  -0.000387   0.000164   0.000052   0.004972
    17  H   -0.002080   0.001502  -0.000044  -0.000053  -0.000300  -0.001738
    18  H   -0.041807  -0.056844  -0.027052   0.000329   0.002081   0.000020
    19  H   -0.015235  -0.014884  -0.012913  -0.004431   0.027693  -0.000092
    20  H    0.006649   0.001080  -0.095171   0.309352  -0.000626   0.000000
              13         14         15         16         17         18
     1  O    0.002449  -0.026201  -0.038847  -0.000048  -0.000031  -0.000117
     2  C    0.002250  -0.189934  -0.145434  -0.004359  -0.003035  -0.037978
     3  C    0.318202  -0.138364  -0.153449  -0.020671  -0.020167   0.000771
     4  C   -0.035839   0.178780   0.126716  -0.018013  -0.010202   0.006426
     5  C   -0.001919   0.024225   0.021740   0.333103   0.349251  -0.061665
     6  C    0.002690  -0.045523  -0.047941  -0.023572  -0.014912   0.374308
     7  N    0.000022   0.001844   0.001264   0.000209  -0.002080  -0.041807
     8  C   -0.000025  -0.001652  -0.000683  -0.000910   0.001502  -0.056844
     9  C   -0.000001  -0.000952  -0.000742  -0.000387  -0.000044  -0.027052
    10  C    0.000004   0.000445   0.001172   0.000164  -0.000053   0.000329
    11  C   -0.000130   0.000763   0.003809   0.000052  -0.000300   0.002081
    12  H   -0.051635   0.003751  -0.019783   0.004972  -0.001738   0.000020
    13  H    0.655260  -0.009663   0.006774  -0.000711   0.003692   0.000353
    14  H   -0.009663   1.114415   0.076769   0.006100   0.004558   0.036050
    15  H    0.006774   0.076769   1.170713   0.017906   0.003425   0.007015
    16  H   -0.000711   0.006100   0.017906   0.576983  -0.017408   0.008840
    17  H    0.003692   0.004558   0.003425  -0.017408   0.546329  -0.004068
    18  H    0.000353   0.036050   0.007015   0.008840  -0.004068   0.673927
    19  H   -0.000057   0.006287   0.029907  -0.005209   0.008340  -0.012895
    20  H    0.000000   0.000007   0.000042  -0.000009  -0.000004   0.000679
              19         20
     1  O   -0.000246  -0.000000
     2  C   -0.026684   0.000069
     3  C   -0.005486   0.000001
     4  C   -0.010534  -0.000103
     5  C   -0.055751   0.000215
     6  C    0.312579  -0.001507
     7  N   -0.015235   0.006649
     8  C   -0.014884   0.001080
     9  C   -0.012913  -0.095171
    10  C   -0.004431   0.309352
    11  C    0.027693  -0.000626
    12  H   -0.000092   0.000000
    13  H   -0.000057   0.000000
    14  H    0.006287   0.000007
    15  H    0.029907   0.000042
    16  H   -0.005209  -0.000009
    17  H    0.008340  -0.000004
    18  H   -0.012895   0.000679
    19  H    0.637580  -0.000886
    20  H   -0.000886   0.625387
 Mulliken charges:
               1
     1  O   -0.244671
     2  C    0.321098
     3  C   -0.434185
     4  C    0.310023
     5  C   -0.321888
     6  C   -0.041626
     7  N   -0.149561
     8  C    0.014953
     9  C   -0.009024
    10  C   -0.203617
    11  C   -0.101925
    12  H    0.124932
    13  H    0.108283
    14  H   -0.041704
    15  H   -0.060373
    16  H    0.142969
    17  H    0.156946
    18  H    0.131628
    19  H    0.142919
    20  H    0.154824
 Sum of Mulliken charges =  -0.00000
 Mulliken charges with hydrogens summed into heavy atoms:
               1
     1  O   -0.244671
     2  C    0.321098
     3  C   -0.200970
     4  C    0.207946
     5  C   -0.021973
     6  C    0.232920
     7  N   -0.149561
     8  C    0.014953
     9  C   -0.009024
    10  C   -0.048793
    11  C   -0.101925
 Electronic spatial extent (au):  <R**2>=           1527.2001
 Charge=             -0.0000 electrons
 Dipole moment (field-independent basis, Debye):
    X=             -1.1976    Y=             -2.0122    Z=              0.5870  Tot=              2.4140
 Quadrupole moment (field-independent basis, Debye-Ang):
   XX=            -73.3742   YY=            -71.1912   ZZ=            -66.3398
   XY=             -7.9667   XZ=             -0.1658   YZ=             -0.0063
 Traceless Quadrupole moment (field-independent basis, Debye-Ang):
   XX=             -3.0725   YY=             -0.8895   ZZ=              3.9620
   XY=             -7.9667   XZ=             -0.1658   YZ=             -0.0063
 Octapole moment (field-independent basis, Debye-Ang**2):
  XXX=            -22.4819  YYY=             -9.2249  ZZZ=             -0.5978  XYY=             11.2353
  XXY=             -3.9905  XXZ=              4.9885  XZZ=              0.7813  YZZ=             -5.7022
  YYZ=             -1.9654  XYZ=             -0.8018
 Hexadecapole moment (field-independent basis, Debye-Ang**3):
 XXXX=          -1401.7409 YYYY=           -618.2948 ZZZZ=           -171.3109 XXXY=            -19.5201
 XXXZ=            -15.7080 YYYX=              0.8404 YYYZ=             -3.4334 ZZZX=             -0.8035
 ZZZY=             -7.3647 XXYY=           -358.5225 XXZZ=           -259.8751 YYZZ=           -122.4961
 XXYZ=              2.4218 YYXZ=              4.4078 ZZXY=              8.6355
 N-N= 5.923944911042D+02 E-N=-2.293760681774D+03  KE= 4.754438104762D+02
 PrsmSu:  requested number of processors reduced to:  13 ShMem   1 Linda.
 Calling FoFJK, ICntrl=      2127 FMM=F ISym2X=0 I1Cent= 0 IOpClX= 0 NMat=1 NMatS=1 NMatT=0.
 ***** Axes restored to original set *****
 -------------------------------------------------------------------
 Center     Atomic                   Forces (Hartrees/Bohr)
 Number     Number              X              Y              Z
 -------------------------------------------------------------------
      1        8           0.073137980   -0.020173697   -0.043546183
      2        6           0.024660222    0.087872214    0.102978213
      3        6          -0.297391640   -0.020799124   -0.036315588
      4        6           0.057379721   -0.030305885    0.026479222
      5        6          -0.011571257   -0.001114663   -0.013107375
      6        6           0.023773748   -0.004666200    0.016280604
      7        7          -0.109655515   -0.032961298   -0.110081973
      8        6           0.168283156   -0.005786539    0.088235785
      9        6          -0.027550253    0.011379663    0.040860028
     10        6           0.029296019   -0.009823867   -0.018281695
     11        6           0.093060291   -0.014892834   -0.039966168
     12        1           0.013889850   -0.004104166    0.040074034
     13        1           0.012185347    0.039898718    0.021665128
     14        1           0.009209494   -0.039399067   -0.003292189
     15        1           0.010750940    0.040727539   -0.021236068
     16        1          -0.022161233   -0.014310454   -0.019301547
     17        1          -0.020142122   -0.011032028   -0.021761573
     18        1          -0.011439260    0.031150128   -0.067366066
     19        1           0.026107430   -0.056795043    0.004016838
     20        1          -0.041822919    0.055136606    0.053666573
 -------------------------------------------------------------------
 Cartesian Forces:  Max     0.297391640 RMS     0.061338463

 GradGradGradGradGradGradGradGradGradGradGradGradGradGradGradGradGradGrad
 Berny optimization.
 FormGI is forming the generalized inverse of G from B-inverse, IUseBI=4.
 Internal  Forces:  Max     0.266072275 RMS     0.064725332
 Search for a local minimum.
 Step number   1 out of a maximum of  103
 All quantities printed in internal units (Hartrees-Bohrs-Radians)
 Mixed Optimization -- RFO/linear search
 Second derivative matrix not updated -- first step.
 ITU=  0
     Eigenvalues ---    0.01279   0.01658   0.01835   0.02122   0.02905
     Eigenvalues ---    0.03056   0.03663   0.04022   0.04776   0.04935
     Eigenvalues ---    0.05312   0.05619   0.06246   0.07386   0.07439
     Eigenvalues ---    0.07462   0.07634   0.07708   0.08630   0.10146
     Eigenvalues ---    0.11500   0.11622   0.12442   0.13382   0.14211
     Eigenvalues ---    0.14892   0.16000   0.16000   0.16502   0.18994
     Eigenvalues ---    0.19662   0.21589   0.22293   0.22533   0.22611
     Eigenvalues ---    0.22620   0.23172   0.23580   0.24696   0.25000
     Eigenvalues ---    0.25000   0.25932   0.29507   0.36047   0.37156
     Eigenvalues ---    0.40622   0.40820   0.46038   0.48168   0.55421
     Eigenvalues ---    0.57583   0.72763   0.91237   1.23413
 RFO step:  Lambda=-4.51074115D-01 EMin= 1.27927921D-02
 Linear search not attempted -- first point.
 Maximum step size (   0.300) exceeded in Quadratic search.
    -- Step size scaled by   0.408
 Iteration  1 RMS(Cart)=  0.17282873 RMS(Int)=  0.01369447
 Iteration  2 RMS(Cart)=  0.04449986 RMS(Int)=  0.00056862
 Iteration  3 RMS(Cart)=  0.00084317 RMS(Int)=  0.00022497
 Iteration  4 RMS(Cart)=  0.00000085 RMS(Int)=  0.00022497
 Variable       Old X    -DE/DX   Delta X   Delta X   Delta X     New X
                                 (Linear)    (Quad)   (Total)
    R1        2.32368  -0.07183   0.00000  -0.02152  -0.02152   2.30216
    R2        2.50957   0.09027   0.00000   0.03804   0.03791   2.54748
    R3        3.03668   0.04542   0.00000   0.02483   0.02500   3.06168
    R4        2.42071   0.26607   0.00000   0.09220   0.09220   2.51292
    R5        2.23595  -0.03799   0.00000  -0.02185  -0.02185   2.21410
    R6        2.26688  -0.04085   0.00000  -0.02390  -0.02390   2.24297
    R7        2.70716   0.10244   0.00000   0.04881   0.04881   2.75597
    R8        2.70077   0.02147   0.00000   0.01500   0.01500   2.71576
    R9        2.75244   0.01767   0.00000   0.01743   0.01736   2.76980
   R10        2.64089   0.14597   0.00000   0.06541   0.06541   2.70630
   R11        2.04007   0.00943   0.00000   0.00475   0.00475   2.04482
   R12        2.02311   0.01127   0.00000   0.00560   0.00560   2.02871
   R13        2.70455   0.05170   0.00000   0.02458   0.02458   2.72912
   R14        2.41803  -0.07504   0.00000  -0.04732  -0.04732   2.37071
   R15        2.35464  -0.05551   0.00000  -0.03400  -0.03400   2.32065
   R16        2.20503   0.25292   0.00000   0.06130   0.06130   2.26633
   R17        2.52906   0.06672   0.00000   0.02654   0.02654   2.55560
   R18        2.59983   0.07456   0.00000   0.03197   0.03215   2.63198
   R19        3.32739  -0.05551   0.00000  -0.03820  -0.03799   3.28940
   R20        2.84434  -0.06223   0.00000  -0.03228  -0.03269   2.81165
   R21        2.54230  -0.07331   0.00000  -0.04861  -0.04861   2.49369
    A1        2.27994   0.09518   0.00000   0.05721   0.05710   2.33705
    A2        1.76751   0.03709   0.00000   0.02100   0.02119   1.78869
    A3        1.95345   0.02514   0.00000   0.01745   0.01730   1.97075
    A4        1.91237   0.03242   0.00000   0.02236   0.02220   1.93457
    A5        1.67839  -0.00752   0.00000  -0.00345  -0.00380   1.67460
    A6        1.70985   0.09160   0.00000   0.05547   0.05547   1.76532
    A7        2.66260  -0.10921   0.00000  -0.06693  -0.06699   2.59561
    A8        1.28057   0.04827   0.00000   0.02986   0.02986   1.31043
    A9        1.90895   0.01689   0.00000   0.01096   0.01099   1.91994
   A10        1.39756   0.01251   0.00000   0.00928   0.00914   1.40670
   A11        1.28487   0.00588   0.00000   0.00598   0.00597   1.29083
   A12        1.97051  -0.01989   0.00000  -0.01276  -0.01269   1.95782
   A13        2.00039   0.02590   0.00000   0.01308   0.01295   2.01335
   A14        2.28564   0.00268   0.00000   0.00586   0.00555   2.29119
   A15        1.49535   0.06763   0.00000   0.04227   0.04220   1.53755
   A16        1.79203  -0.01523   0.00000  -0.00870  -0.00884   1.78319
   A17        1.79082  -0.00115   0.00000   0.00231   0.00232   1.79314
   A18        1.90223  -0.00039   0.00000   0.00142   0.00144   1.90367
   A19        1.93893  -0.00847   0.00000  -0.00485  -0.00514   1.93379
   A20        2.33255  -0.00768   0.00000  -0.00861  -0.00868   2.32387
   A21        2.08632   0.04646   0.00000   0.02869   0.02869   2.11501
   A22        1.78533  -0.00811   0.00000  -0.00368  -0.00368   1.78165
   A23        1.67674   0.01842   0.00000   0.01435   0.01443   1.69117
   A24        1.86084  -0.00770   0.00000  -0.00456  -0.00472   1.85612
   A25        1.99832  -0.03689   0.00000  -0.02534  -0.02562   1.97270
   A26        2.05201  -0.00305   0.00000  -0.00333  -0.00348   2.04853
   A27        1.67456   0.20686   0.00000   0.12052   0.12052   1.79509
   A28        2.35438   0.22398   0.00000   0.13050   0.13050   2.48487
   A29        1.93346   0.09367   0.00000   0.05393   0.05351   1.98697
   A30        2.11165   0.09232   0.00000   0.05668   0.05634   2.16799
   A31        1.68774   0.04605   0.00000   0.03057   0.03034   1.71808
   A32        2.76827   0.03301   0.00000   0.01976   0.02000   2.78827
    D1        0.13618  -0.00335   0.00000  -0.00080  -0.00043   0.13575
    D2       -3.09119  -0.01196   0.00000  -0.00737  -0.00706  -3.09824
    D3       -1.20927   0.00410   0.00000   0.00176   0.00096  -1.20831
    D4        2.19135  -0.03023   0.00000  -0.02006  -0.02038   2.17097
    D5       -0.90838  -0.01698   0.00000  -0.01130  -0.01123  -0.91961
    D6       -2.84449   0.00116   0.00000  -0.00005  -0.00013  -2.84462
    D7        1.02727   0.00938   0.00000   0.00237   0.00242   1.02969
    D8       -2.25185  -0.01033   0.00000  -0.00423  -0.00441  -2.25626
    D9        0.93161   0.00292   0.00000   0.00453   0.00474   0.93634
   D10       -1.00451   0.02106   0.00000   0.01578   0.01584  -0.98867
   D11        2.86725   0.02928   0.00000   0.01820   0.01840   2.88565
   D12        0.05713   0.01231   0.00000   0.00951   0.00948   0.06662
   D13       -1.83674  -0.00169   0.00000  -0.00094  -0.00087  -1.83761
   D14        1.98861   0.01787   0.00000   0.01345   0.01356   2.00217
   D15        3.10867   0.00389   0.00000   0.00297   0.00304   3.11172
   D16        1.21480  -0.01011   0.00000  -0.00748  -0.00731   1.20749
   D17       -1.24304   0.00944   0.00000   0.00691   0.00712  -1.23592
   D18       -1.65353   0.01834   0.00000   0.01372   0.01349  -1.64003
   D19        2.73579   0.00435   0.00000   0.00327   0.00314   2.73893
   D20        0.27795   0.02390   0.00000   0.01767   0.01757   0.29552
   D21        1.70643  -0.01685   0.00000  -0.01190  -0.01202   1.69441
   D22       -0.18744  -0.03084   0.00000  -0.02235  -0.02238  -0.20982
   D23       -2.64528  -0.01129   0.00000  -0.00796  -0.00795  -2.65323
   D24        3.01425   0.01745   0.00000   0.01366   0.01354   3.02778
   D25        0.96558   0.00828   0.00000   0.00675   0.00667   0.97225
   D26       -1.12829   0.00775   0.00000   0.00668   0.00673  -1.12156
   D27       -1.48993   0.02405   0.00000   0.01865   0.01861  -1.47132
   D28        2.74460   0.01489   0.00000   0.01173   0.01174   2.75633
   D29        0.65072   0.01435   0.00000   0.01166   0.01180   0.66252
   D30        1.23654  -0.00687   0.00000  -0.00478  -0.00484   1.23170
   D31       -0.81212  -0.01604   0.00000  -0.01170  -0.01171  -0.82383
   D32       -2.90600  -0.01658   0.00000  -0.01176  -0.01164  -2.91764
   D33       -2.79439  -0.00114   0.00000  -0.00257  -0.00275  -2.79714
   D34       -0.78521   0.01012   0.00000   0.00626   0.00608  -0.77913
   D35        1.51548  -0.03062   0.00000  -0.02276  -0.02240   1.49308
   D36       -0.28072   0.01091   0.00000   0.00893   0.00893  -0.27179
   D37       -1.15539  -0.01603   0.00000  -0.01162  -0.01258  -1.16797
   D38       -0.07901   0.01770   0.00000   0.01304   0.01399  -0.06502
   D39       -0.79863   0.03039   0.00000   0.02279   0.02295  -0.77568
   D40       -1.22001  -0.02369   0.00000  -0.02173  -0.02178  -1.24179
         Item               Value     Threshold  Converged?
 Maximum Force            0.266072     0.000450     NO 
 RMS     Force            0.064725     0.000300     NO 
 Maximum Displacement     1.256536     0.001800     NO 
 RMS     Displacement     0.213614     0.001200     NO 
 Predicted change in Energy=-1.682355D-01
 GradGradGradGradGradGradGradGradGradGradGradGradGradGradGradGradGradGrad

                          Input orientation:                          
 ---------------------------------------------------------------------
 Center     Atomic      Atomic             Coordinates (Angstroms)
 Number     Number       Type             X           Y           Z
 ---------------------------------------------------------------------
      1          8           0        5.289023    0.455137    0.543909
      2          6           0        5.658956   -0.051757   -0.500287
      3          6           0        3.756892   -0.544318   -1.146950
      4          6           0        5.029774   -0.710342   -1.494112
      5          6           0        5.111860   -1.428840   -2.760580
      6          6           0        6.536348   -1.301719   -2.685560
      7          7           0        7.397024   -1.958511   -3.641353
      8          6           0        8.454739   -1.980946   -3.076520
      9          6           0        9.124730   -1.436865   -2.035377
     10          6           0        9.394581   -0.078945   -2.187291
     11          6           0        8.489080   -0.181153   -1.011130
     12          1           0        3.112982   -0.054699   -1.994546
     13          1           0        3.182102   -1.582767   -1.140156
     14          1           0        4.975555   -1.601110   -0.367654
     15          1           0        4.764180    0.726924   -1.603911
     16          1           0        4.728239   -0.699523   -3.461873
     17          1           0        4.802926   -2.420845   -2.490421
     18          1           0        6.787720   -1.818630   -1.570459
     19          1           0        6.579365   -0.076864   -2.762671
     20          1           0        9.801034   -0.101516   -3.442538
 ---------------------------------------------------------------------
                    Distance matrix (angstroms):
                    1          2          3          4          5
     1  O    0.000000
     2  C    1.218252   0.000000
     3  C    2.491052   2.068487   0.000000
     4  C    2.362008   1.348070   1.329779   0.000000
     5  C    3.807940   2.702702   2.285195   1.458397   0.000000
     6  C    3.882247   2.666016   3.265938   2.009737   1.432115
     7  N    5.271223   4.064836   4.633848   3.431100   2.505651
     8  C    5.391082   4.263232   5.277964   3.981060   3.402863
     9  C    4.994502   4.035669   5.513586   4.193981   4.077881
    10  C    4.959870   4.098978   5.751732   4.464382   4.526872
    11  C    3.614330   2.878768   4.748046   3.532720   4.002863
    12  H    3.382136   2.952085   1.171651   2.086719   2.543735
    13  H    3.380569   2.981313   1.186931   2.073716   2.524566
    14  H    2.270983   1.698566   1.791438   1.437120   2.402988
    15  H    2.227658   1.620171   1.685081   1.465718   2.471049
    16  H    4.206425   3.171250   2.515247   1.990760   1.082072
    17  H    4.208887   3.210297   2.533861   1.992465   1.073546
    18  H    3.447705   2.353980   3.314988   2.079545   2.092088
    19  H    3.589078   2.442573   3.285638   2.100421   1.995348
    20  H    6.046476   5.080958   6.480544   5.189601   4.920895
                    6          7          8          9         10
     6  C    0.000000
     7  N    1.444188   0.000000
     8  C    2.072299   1.199292   0.000000
     9  C    2.672214   2.415831   1.352365   0.000000
    10  C    3.148483   3.104400   2.300356   1.392783   0.000000
    11  C    2.805807   3.357032   2.739758   1.740675   1.487862
    12  H    3.708368   4.968853   5.780611   6.168726   6.284603
    13  H    3.703812   4.915560   5.631052   6.011450   6.477103
    14  H    2.810408   4.087585   4.425714   4.474811   5.015561
    15  H    2.902746   4.277219   4.808468   4.886978   4.736072
    16  H    2.057805   2.956295   3.959463   4.680566   4.876928
    17  H    2.072504   2.875368   3.724615   4.455701   5.163301
    18  H    1.254526   2.163197   2.252447   2.413195   3.194168
    19  H    1.228033   2.231870   2.690921   2.976146   2.873414
    20  H    3.559731   3.044211   2.340671   2.054421   1.319605
                   11         12         13         14         15
    11  C    0.000000
    12  H    5.466766   0.000000
    13  H    5.490463   1.752071   0.000000
    14  H    3.843852   2.916736   1.952836   0.000000
    15  H    3.879546   1.868150   2.837730   2.644382   0.000000
    16  H    4.518714   2.275500   2.925923   3.232370   2.342662
    17  H    4.559853   2.949653   2.269947   2.282084   3.270451
    18  H    2.426687   4.098171   3.638856   2.185863   3.252027
    19  H    2.593411   3.550538   4.054835   3.260619   2.298629
    20  H    2.763931   6.843166   7.162774   5.915145   5.425566
                   16         17         18         19         20
    16  H    0.000000
    17  H    1.977940   0.000000
    18  H    3.011862   2.269009   0.000000
    19  H    2.074429   2.953659   2.120974   0.000000
    20  H    5.107958   5.591681   3.941221   3.292716   0.000000
 Stoichiometry    C9H9NO
 Framework group  C1[X(C9H9NO)]
 Deg. of freedom    54
 Full point group                 C1      NOp   1
 Largest Abelian subgroup         C1      NOp   1
 Largest concise Abelian subgroup C1      NOp   1
                         Standard orientation:                         
 ---------------------------------------------------------------------
 Center     Atomic      Atomic             Coordinates (Angstroms)
 Number     Number       Type             X           Y           Z
 ---------------------------------------------------------------------
      1          8           0        2.274494    1.900518   -0.156766
      2          6           0        1.455059    1.008684   -0.025255
      3          6           0        2.853983   -0.512859    0.055713
      4          6           0        1.536441   -0.336105    0.021766
      5          6           0        0.857689   -1.623135    0.120620
      6          6           0       -0.386899   -0.915503    0.085820
      7          7           0       -1.645515   -1.619642    0.009956
      8          6           0       -2.398044   -0.778023   -0.394616
      9          6           0       -2.518789    0.558032   -0.565692
     10          6           0       -2.582970    1.274844    0.626744
     11          6           0       -1.333752    1.722410   -0.046213
     12          1           0        3.205612   -1.147279    0.975841
     13          1           0        3.196783   -1.293452   -0.770100
     14          1           0        1.854363    0.006486   -1.337231
     15          1           0        1.988945    0.234225    1.293886
     16          1           0        1.069958   -1.915206    1.140676
     17          1           0        1.066298   -2.074481   -0.830837
     18          1           0       -0.285458   -0.258011   -0.977782
     19          1           0       -0.239975   -0.306688    1.142145
     20          1           0       -3.430185    0.497683    1.274515
 ---------------------------------------------------------------------
 Rotational constants (GHZ):           2.0069496           0.8509997           0.6305302
 Standard basis: 6-31G(2df,p) (6D, 7F)
 There are   386 symmetry adapted cartesian basis functions of A   symmetry.
 There are   353 symmetry adapted basis functions of A   symmetry.
   353 basis functions,   547 primitive gaussians,   386 cartesian basis functions
    39 alpha electrons       39 beta electrons
       nuclear repulsion energy       563.3293688209 Hartrees.
 NAtoms=   20 NActive=   20 NUniq=   20 SFac= 1.00D+00 NAtFMM=   60 NAOKFM=F Big=F
 Integral buffers will be    131072 words long.
 Raffenetti 2 integral format.
 Two-electron integral symmetry is turned on.
 One-electron integrals computed using PRISM.
 PrsmSu:  requested number of processors reduced to:  13 ShMem   1 Linda.
 NBasis=   353 RedAO= T EigKep=  2.13D-04  NBF=   353
 NBsUse=   353 1.00D-06 EigRej= -1.00D+00 NBFU=   353
 Initial guess from the checkpoint file:  "OdC1CCCCNdCdC2CdC12.chk"
 B after Tr=    -0.000000    0.000000    0.000000
         Rot=    0.998090    0.000471   -0.000219   -0.061775 Ang=   7.08 deg.
 ExpMin= 1.61D-01 ExpMax= 5.48D+03 ExpMxC= 8.25D+02 IAcc=2 IRadAn=         4 AccDes= 0.00D+00
 Harris functional with IExCor=  402 and IRadAn=       4 diagonalized for initial guess.
 HarFok:  IExCor=  402 AccDes= 0.00D+00 IRadAn=         4 IDoV= 1 UseB2=F ITyADJ=14
 ICtDFT=  3500011 ScaDFX=  1.000000  1.000000  1.000000  1.000000
 FoFCou: FMM=F IPFlag=           0 FMFlag=      100000 FMFlg1=           0
         NFxFlg=           0 DoJE=T BraDBF=F KetDBF=T FulRan=T
         wScrn=  0.000000 ICntrl=       500 IOpCl=  0 I1Cent=   200000004 NGrid=           0
         NMat0=    1 NMatS0=      1 NMatT0=    0 NMatD0=    1 NMtDS0=    0 NMtDT0=    0
 Petite list used in FoFCou.
 Requested convergence on RMS density matrix=1.00D-08 within 128 cycles.
 Requested convergence on MAX density matrix=1.00D-06.
 Requested convergence on             energy=1.00D-06.
 No special actions if energy rises.
 Integral accuracy reduced to 1.0D-05 until final iterations.
 Initial convergence to 1.0D-05 achieved.  Increase integral accuracy.
 SCF Done:  E(RB3LYP) =  -477.422001639     A.U. after   25 cycles
            NFock= 25  Conv=0.66D-08     -V/T= 2.0059
 PrsmSu:  requested number of processors reduced to:  13 ShMem   1 Linda.
 Calling FoFJK, ICntrl=      2127 FMM=F ISym2X=0 I1Cent= 0 IOpClX= 0 NMat=1 NMatS=1 NMatT=0.
 ***** Axes restored to original set *****
 -------------------------------------------------------------------
 Center     Atomic                   Forces (Hartrees/Bohr)
 Number     Number              X              Y              Z
 -------------------------------------------------------------------
      1        8           0.075966229   -0.023156804   -0.044611993
      2        6          -0.028945176    0.081641596    0.105502577
      3        6          -0.204378852   -0.026490506   -0.047475889
      4        6           0.012217018   -0.041692410    0.020327296
      5        6           0.023602384    0.005874131    0.001680729
      6        6           0.035930385    0.021466264    0.033109905
      7        7          -0.024866500   -0.033177512   -0.059398854
      8        6           0.069609992    0.005407548    0.051118914
      9        6          -0.045171606   -0.005011426    0.008586093
     10        6           0.002288195   -0.017846491   -0.046660065
     11        6           0.065644545   -0.006219425   -0.048522680
     12        1           0.018238011   -0.001064932    0.035086558
     13        1           0.016784129    0.037752697    0.022576665
     14        1           0.007819675   -0.029853119   -0.003111240
     15        1           0.002598725    0.038676097   -0.015611650
     16        1          -0.018958494   -0.017857204   -0.016592717
     17        1          -0.020061758   -0.009131375   -0.020709739
     18        1           0.000250003    0.034972442   -0.059087432
     19        1           0.029881547   -0.058424370    0.007286078
     20        1          -0.018448453    0.044134799    0.076507445
 -------------------------------------------------------------------
 Cartesian Forces:  Max     0.204378852 RMS     0.046016735

 GradGradGradGradGradGradGradGradGradGradGradGradGradGradGradGradGradGrad
 Berny optimization.
 Using GEDIIS/GDIIS optimizer.
 FormGI is forming the generalized inverse of G from B-inverse, IUseBI=4.
 Internal  Forces:  Max     0.166043422 RMS     0.041867169
 Search for a local minimum.
 Step number   2 out of a maximum of  103
 All quantities printed in internal units (Hartrees-Bohrs-Radians)
 Mixed Optimization -- RFO/linear search
 Update second derivatives using D2CorX and points    1    2
 DE= -1.42D-01 DEPred=-1.68D-01 R= 8.45D-01
 TightC=F SS=  1.41D+00  RLast= 3.10D-01 DXNew= 5.0454D-01 9.2891D-01
 Trust test= 8.45D-01 RLast= 3.10D-01 DXMaxT set to 5.05D-01
 ITU=  1  0
 Use linear search instead of GDIIS.
 Linear search step of   0.600 exceeds DXMaxT=   0.505 but not scaled.
 Quartic linear search produced a step of  2.00000.
 Iteration  1 RMS(Cart)=  0.25654940 RMS(Int)=  0.03306985
 Iteration  2 RMS(Cart)=  0.19416687 RMS(Int)=  0.01059193
 Iteration  3 RMS(Cart)=  0.01369032 RMS(Int)=  0.00141504
 Iteration  4 RMS(Cart)=  0.00012045 RMS(Int)=  0.00141342
 Iteration  5 RMS(Cart)=  0.00000063 RMS(Int)=  0.00141342
 Variable       Old X    -DE/DX   Delta X   Delta X   Delta X     New X
                                 (Linear)    (Quad)   (Total)
    R1        2.30216  -0.07094  -0.04304   0.00000  -0.04304   2.25912
    R2        2.54748   0.06995   0.07582   0.00000   0.07481   2.62230
    R3        3.06168   0.03194   0.05000   0.00000   0.05134   3.11302
    R4        2.51292   0.16604   0.18441   0.00000   0.18441   2.69732
    R5        2.21410  -0.03585  -0.04369   0.00000  -0.04369   2.17041
    R6        2.24297  -0.04103  -0.04781   0.00000  -0.04781   2.19517
    R7        2.75597   0.08638   0.09762   0.00000   0.09762   2.85359
    R8        2.71576   0.01577   0.02999   0.00000   0.02999   2.74576
    R9        2.76980   0.02673   0.03472   0.00000   0.03418   2.80399
   R10        2.70630   0.11126   0.13083   0.00000   0.13083   2.83713
   R11        2.04482   0.00544   0.00949   0.00000   0.00949   2.05431
   R12        2.02871   0.00900   0.01119   0.00000   0.01119   2.03990
   R13        2.72912   0.04718   0.04915   0.00000   0.04915   2.77827
   R14        2.37071  -0.06688  -0.09464   0.00000  -0.09464   2.27607
   R15        2.32065  -0.05768  -0.06800   0.00000  -0.06800   2.25265
   R16        2.26633   0.08414   0.12260   0.00000   0.12260   2.38894
   R17        2.55560   0.00042   0.05307   0.00000   0.05307   2.60867
   R18        2.63198   0.05640   0.06430   0.00000   0.06559   2.69757
   R19        3.28940  -0.04029  -0.07599   0.00000  -0.07469   3.21470
   R20        2.81165  -0.05435  -0.06538   0.00000  -0.06816   2.74350
   R21        2.49369  -0.07921  -0.09721   0.00000  -0.09721   2.39648
    A1        2.33705   0.10537   0.11421   0.00000   0.11344   2.45049
    A2        1.78869   0.04474   0.04237   0.00000   0.04378   1.83248
    A3        1.97075   0.01327   0.03459   0.00000   0.03363   2.00438
    A4        1.93457   0.02191   0.04440   0.00000   0.04340   1.97798
    A5        1.67460  -0.00005  -0.00759   0.00000  -0.00958   1.66501
    A6        1.76532   0.04969   0.11094   0.00000   0.11063   1.87595
    A7        2.59561  -0.06483  -0.13399   0.00000  -0.13407   2.46154
    A8        1.31043   0.03324   0.05972   0.00000   0.05931   1.36973
    A9        1.91994   0.01444   0.02198   0.00000   0.02213   1.94207
   A10        1.40670   0.01058   0.01828   0.00000   0.01735   1.42405
   A11        1.29083  -0.00126   0.01193   0.00000   0.01201   1.30284
   A12        1.95782  -0.01682  -0.02538   0.00000  -0.02498   1.93284
   A13        2.01335   0.02178   0.02591   0.00000   0.02532   2.03867
   A14        2.29119   0.00009   0.01110   0.00000   0.00913   2.30031
   A15        1.53755   0.11844   0.08440   0.00000   0.08394   1.62149
   A16        1.78319  -0.02149  -0.01768   0.00000  -0.01847   1.76472
   A17        1.79314  -0.02132   0.00464   0.00000   0.00468   1.79781
   A18        1.90367  -0.01102   0.00287   0.00000   0.00294   1.90661
   A19        1.93379  -0.01345  -0.01027   0.00000  -0.01198   1.92181
   A20        2.32387   0.00015  -0.01736   0.00000  -0.01777   2.30610
   A21        2.11501  -0.00438   0.05739   0.00000   0.05728   2.17229
   A22        1.78165   0.01748  -0.00736   0.00000  -0.00735   1.77430
   A23        1.69117   0.03387   0.02887   0.00000   0.02931   1.72049
   A24        1.85612  -0.00564  -0.00944   0.00000  -0.01035   1.84576
   A25        1.97270  -0.02446  -0.05125   0.00000  -0.05279   1.91991
   A26        2.04853  -0.01200  -0.00696   0.00000  -0.00784   2.04069
   A27        1.79509   0.05944   0.24104   0.00000   0.24104   2.03613
   A28        2.48487   0.08847   0.26099   0.00000   0.26099   2.74586
   A29        1.98697   0.05237   0.10702   0.00000   0.10351   2.09048
   A30        2.16799   0.06167   0.11268   0.00000   0.10994   2.27792
   A31        1.71808   0.03773   0.06069   0.00000   0.05928   1.77736
   A32        2.78827   0.03768   0.04000   0.00000   0.04145   2.82972
    D1        0.13575   0.00126  -0.00086   0.00000   0.00141   0.13716
    D2       -3.09824  -0.00790  -0.01412   0.00000  -0.01240  -3.11064
    D3       -1.20831  -0.00296   0.00191   0.00000  -0.00283  -1.21115
    D4        2.17097  -0.02498  -0.04076   0.00000  -0.04274   2.12823
    D5       -0.91961  -0.01422  -0.02247   0.00000  -0.02215  -0.94177
    D6       -2.84462   0.00083  -0.00026   0.00000  -0.00071  -2.84534
    D7        1.02969   0.00650   0.00485   0.00000   0.00538   1.03507
    D8       -2.25626  -0.00604  -0.00882   0.00000  -0.01001  -2.26627
    D9        0.93634   0.00472   0.00948   0.00000   0.01058   0.94693
   D10       -0.98867   0.01978   0.03168   0.00000   0.03202  -0.95664
   D11        2.88565   0.02544   0.03679   0.00000   0.03812   2.92377
   D12        0.06662   0.00733   0.01897   0.00000   0.01884   0.08546
   D13       -1.83761  -0.00620  -0.00174   0.00000  -0.00128  -1.83889
   D14        2.00217   0.01960   0.02712   0.00000   0.02780   2.02997
   D15        3.11172  -0.00179   0.00609   0.00000   0.00662   3.11833
   D16        1.20749  -0.01532  -0.01462   0.00000  -0.01351   1.19399
   D17       -1.23592   0.01048   0.01424   0.00000   0.01558  -1.22034
   D18       -1.64003   0.01004   0.02699   0.00000   0.02564  -1.61439
   D19        2.73893  -0.00350   0.00628   0.00000   0.00552   2.74445
   D20        0.29552   0.02230   0.03514   0.00000   0.03460   0.33012
   D21        1.69441  -0.01288  -0.02405   0.00000  -0.02496   1.66944
   D22       -0.20982  -0.02641  -0.04475   0.00000  -0.04508  -0.25490
   D23       -2.65323  -0.00061  -0.01589   0.00000  -0.01600  -2.66923
   D24        3.02778   0.00632   0.02707   0.00000   0.02631   3.05410
   D25        0.97225   0.00216   0.01334   0.00000   0.01280   0.98505
   D26       -1.12156  -0.00049   0.01347   0.00000   0.01374  -1.10782
   D27       -1.47132   0.02416   0.03721   0.00000   0.03698  -1.43434
   D28        2.75633   0.02001   0.02347   0.00000   0.02347   2.77980
   D29        0.66252   0.01735   0.02361   0.00000   0.02441   0.68693
   D30        1.23170  -0.01538  -0.00968   0.00000  -0.00995   1.22176
   D31       -0.82383  -0.01954  -0.02341   0.00000  -0.02346  -0.84729
   D32       -2.91764  -0.02219  -0.02328   0.00000  -0.02252  -2.94016
   D33       -2.79714  -0.00289  -0.00550   0.00000  -0.00659  -2.80373
   D34       -0.77913   0.01292   0.01217   0.00000   0.01108  -0.76805
   D35        1.49308  -0.02558  -0.04480   0.00000  -0.04262   1.45046
   D36       -0.27179   0.01473   0.01786   0.00000   0.01786  -0.25393
   D37       -1.16797  -0.00231  -0.02515   0.00000  -0.03098  -1.19895
   D38       -0.06502   0.01410   0.02798   0.00000   0.03381  -0.03121
   D39       -0.77568   0.01257   0.04590   0.00000   0.04689  -0.72879
   D40       -1.24179  -0.02078  -0.04356   0.00000  -0.04386  -1.28565
         Item               Value     Threshold  Converged?
 Maximum Force            0.166043     0.000450     NO 
 RMS     Force            0.041867     0.000300     NO 
 Maximum Displacement     2.572129     0.001800     NO 
 RMS     Displacement     0.436384     0.001200     NO 
 Predicted change in Energy=-7.573305D-02
 GradGradGradGradGradGradGradGradGradGradGradGradGradGradGradGradGradGrad

                          Input orientation:                          
 ---------------------------------------------------------------------
 Center     Atomic      Atomic             Coordinates (Angstroms)
 Number     Number       Type             X           Y           Z
 ---------------------------------------------------------------------
      1          8           0        5.105895    0.652422    0.549166
      2          6           0        5.336698    0.073305   -0.470892
      3          6           0        3.293591   -0.629728   -1.167000
      4          6           0        4.693686   -0.684697   -1.439172
      5          6           0        4.974693   -1.445080   -2.713186
      6          6           0        6.455751   -1.221818   -2.609935
      7          7           0        7.450653   -1.805669   -3.521400
      8          6           0        8.644253   -1.847094   -3.106992
      9          6           0        9.723575   -1.547682   -2.300110
     10          6           0       10.287984   -0.236822   -2.328689
     11          6           0        9.850192   -0.496051   -0.968965
     12          1           0        2.651104   -0.216965   -2.024882
     13          1           0        2.787835   -1.675249   -1.144966
     14          1           0        4.663451   -1.584575   -0.298781
     15          1           0        4.321694    0.744687   -1.581179
     16          1           0        4.561340   -0.768203   -3.456656
     17          1           0        4.733311   -2.462958   -2.446887
     18          1           0        6.696417   -1.683663   -1.523904
     19          1           0        6.463460   -0.033583   -2.704935
     20          1           0       10.281527    0.022132   -3.570115
 ---------------------------------------------------------------------
                    Distance matrix (angstroms):
                    1          2          3          4          5
     1  O    0.000000
     2  C    1.195477   0.000000
     3  C    2.805990   2.270046   0.000000
     4  C    2.431315   1.387659   1.427363   0.000000
     5  C    3.880679   2.732110   2.425199   1.510053   0.000000
     6  C    3.913414   2.739549   3.525888   2.182672   1.501346
     7  N    5.301850   4.159922   4.920081   3.632233   2.629375
     8  C    5.668778   4.645091   5.820234   4.442946   3.712461
     9  C    5.855067   5.021785   6.593275   5.175494   4.767918
    10  C    5.993902   5.297436   7.101086   5.682253   5.462489
    11  C    5.111954   4.576447   6.560953   5.181335   5.264357
    12  H    3.661633   3.116337   1.148532   2.175769   2.716817
    13  H    3.696152   3.163625   1.161632   2.167953   2.700859
    14  H    2.432885   1.797624   1.882034   1.452992   2.438376
    15  H    2.271972   1.647339   1.765661   1.483807   2.550084
    16  H    4.285012   3.197515   2.620856   2.023544   1.087094
    17  H    4.338288   3.271278   2.659254   2.044326   1.079470
    18  H    3.504950   2.458578   3.580136   2.239652   2.106097
    19  H    3.592041   2.504389   3.573331   2.271168   2.051541
    20  H    6.644765   5.836020   7.418296   6.022000   5.572210
                    6          7          8          9         10
     6  C    0.000000
     7  N    1.470197   0.000000
     8  C    2.329715   1.264171   0.000000
     9  C    3.298614   2.593122   1.380450   0.000000
    10  C    3.966778   3.454604   2.429112   1.427490   0.000000
    11  C    3.839498   3.740028   2.801922   1.701148   1.451795
    12  H    3.978361   5.272496   6.304452   7.201834   7.642947
    13  H    3.975594   5.235105   6.178730   7.032434   7.728034
    14  H    2.947094   4.266456   4.878703   5.441649   6.129628
    15  H    3.078909   4.478745   5.265923   5.912033   6.092516
    16  H    2.124028   3.070612   4.237504   5.347322   5.860813
    17  H    2.129275   2.995089   4.013787   5.075629   5.985319
    18  H    1.204443   2.138632   2.515341   3.128047   3.954793
    19  H    1.192052   2.186654   2.864670   3.617283   3.848358
    20  H    4.135930   3.370026   2.527678   2.094883   1.268163
                   11         12         13         14         15
    11  C    0.000000
    12  H    7.281464   0.000000
    13  H    7.162289   1.708665   0.000000
    14  H    5.341940   2.983173   2.059657   0.000000
    15  H    5.698994   1.978009   2.898120   2.680822   0.000000
    16  H    5.851036   2.450070   3.051551   3.263290   2.421504
    17  H    5.677627   3.091627   2.469891   2.321808   3.347815
    18  H    3.415359   4.332059   3.926917   2.375646   3.396980
    19  H    3.833722   3.876875   4.317266   3.381595   2.540805
    20  H    2.687106   7.788984   8.057162   6.696709   6.324362
                   16         17         18         19         20
    16  H    0.000000
    17  H    1.980253   0.000000
    18  H    3.021944   2.304990   0.000000
    19  H    2.173202   2.993637   2.042515   0.000000
    20  H    5.775641   6.182233   4.466512   3.915262   0.000000
 Stoichiometry    C9H9NO
 Framework group  C1[X(C9H9NO)]
 Deg. of freedom    54
 Full point group                 C1      NOp   1
 Largest Abelian subgroup         C1      NOp   1
 Largest concise Abelian subgroup C1      NOp   1
                         Standard orientation:                         
 ---------------------------------------------------------------------
 Center     Atomic      Atomic             Coordinates (Angstroms)
 Number     Number       Type             X           Y           Z
 ---------------------------------------------------------------------
      1          8           0        2.273124    2.234776    0.003713
      2          6           0        1.721583    1.175985    0.066404
      3          6           0        3.420514   -0.325433   -0.045327
      4          6           0        2.000947   -0.181228   -0.007927
      5          6           0        1.314780   -1.525537    0.039703
      6          6           0       -0.053432   -0.910465    0.100697
      7          7           0       -1.310386   -1.672192    0.064354
      8          6           0       -2.353022   -1.031433   -0.252609
      9          6           0       -3.145416    0.072907   -0.493835
     10          6           0       -3.543102    0.910743    0.591340
     11          6           0       -2.801918    1.732642   -0.348254
     12          1           0        3.862804   -0.966530    0.798769
     13          1           0        3.790830   -1.009788   -0.907831
     14          1           0        2.220740    0.235969   -1.382272
     15          1           0        2.485807    0.368678    1.282110
     16          1           0        1.597272   -1.869917    1.031356
     17          1           0        1.497778   -1.926765   -0.945579
     18          1           0       -0.057041   -0.226038   -0.890378
     19          1           0        0.051575   -0.346578    1.145682
     20          1           0       -3.827652    0.059022    1.486796
 ---------------------------------------------------------------------
 Rotational constants (GHZ):           1.9139338           0.5861790           0.4660800
 Standard basis: 6-31G(2df,p) (6D, 7F)
 There are   386 symmetry adapted cartesian basis functions of A   symmetry.
 There are   353 symmetry adapted basis functions of A   symmetry.
   353 basis functions,   547 primitive gaussians,   386 cartesian basis functions
    39 alpha electrons       39 beta electrons
       nuclear repulsion energy       520.2996488769 Hartrees.
 NAtoms=   20 NActive=   20 NUniq=   20 SFac= 1.00D+00 NAtFMM=   60 NAOKFM=F Big=F
 Integral buffers will be    131072 words long.
 Raffenetti 2 integral format.
 Two-electron integral symmetry is turned on.
 One-electron integrals computed using PRISM.
 PrsmSu:  requested number of processors reduced to:  13 ShMem   1 Linda.
 NBasis=   353 RedAO= T EigKep=  2.58D-04  NBF=   353
 NBsUse=   353 1.00D-06 EigRej= -1.00D+00 NBFU=   353
 Initial guess from the checkpoint file:  "OdC1CCCCNdCdC2CdC12.chk"
 B after Tr=     0.000000   -0.000000   -0.000000
         Rot=    0.997187   -0.002475   -0.001790   -0.074887 Ang=  -8.60 deg.
 ExpMin= 1.61D-01 ExpMax= 5.48D+03 ExpMxC= 8.25D+02 IAcc=2 IRadAn=         4 AccDes= 0.00D+00
 Harris functional with IExCor=  402 and IRadAn=       4 diagonalized for initial guess.
 HarFok:  IExCor=  402 AccDes= 0.00D+00 IRadAn=         4 IDoV= 1 UseB2=F ITyADJ=14
 ICtDFT=  3500011 ScaDFX=  1.000000  1.000000  1.000000  1.000000
 FoFCou: FMM=F IPFlag=           0 FMFlag=      100000 FMFlg1=           0
         NFxFlg=           0 DoJE=T BraDBF=F KetDBF=T FulRan=T
         wScrn=  0.000000 ICntrl=       500 IOpCl=  0 I1Cent=   200000004 NGrid=           0
         NMat0=    1 NMatS0=      1 NMatT0=    0 NMatD0=    1 NMtDS0=    0 NMtDT0=    0
 Petite list used in FoFCou.
 Requested convergence on RMS density matrix=1.00D-08 within 128 cycles.
 Requested convergence on MAX density matrix=1.00D-06.
 Requested convergence on             energy=1.00D-06.
 No special actions if energy rises.
 Integral accuracy reduced to 1.0D-05 until final iterations.
 Restarting incremental Fock formation.
 Initial convergence to 1.0D-05 achieved.  Increase integral accuracy.
 SCF Done:  E(RB3LYP) =  -477.575393835     A.U. after   35 cycles
            NFock= 35  Conv=0.38D-08     -V/T= 2.0084
 PrsmSu:  requested number of processors reduced to:  13 ShMem   1 Linda.
 Calling FoFJK, ICntrl=      2127 FMM=F ISym2X=0 I1Cent= 0 IOpClX= 0 NMat=1 NMatS=1 NMatT=0.
 ***** Axes restored to original set *****
[...]
    13  H    4.358453   3.340686   1.079472   2.224927   3.335480
    14  H    3.068992   2.023890   2.121010   1.069761   1.992879
    15  H    2.374525   1.702614   1.397126   1.815416   3.167578
    16  H    3.930686   3.014679   2.874734   2.188403   1.091424
    17  H    4.399530   3.357147   3.112289   2.176489   1.090850
    18  H    3.398928   2.903605   4.358564   2.886545   2.188652
    19  H    2.864152   2.585450   4.235518   2.943429   2.186333
    20  H    7.514927   7.448142   8.913498   7.624138   6.337577
                    6          7          8          9         10
     6  C    0.000000
     7  N    1.487676   0.000000
     8  C    2.361221   1.212543   0.000000
     9  C    3.510837   2.493492   1.280950   0.000000
    10  C    4.731724   3.775977   2.615816   1.482928   0.000000
    11  C    4.698755   3.867000   2.670553   1.437179   1.326140
    12  H    4.224970   5.166155   6.346227   7.604225   8.789298
    13  H    4.701386   5.695334   6.822635   8.041263   9.374706
    14  H    2.809871   4.026908   4.960777   6.056783   7.384869
    15  H    4.057763   5.338044   6.391664   7.557273   8.680281
    16  H    2.129708   2.575041   3.782469   5.060625   6.260467
    17  H    2.117984   2.540159   3.605341   4.807733   6.216000
    18  H    1.098181   2.151584   2.623333   3.530645   4.769752
    19  H    1.097164   2.113720   2.785121   3.798452   4.760288
    20  H    5.038459   4.078977   3.071796   2.239004   1.062915
                   11         12         13         14         15
    11  C    0.000000
    12  H    8.889118   0.000000
    13  H    9.216867   1.843985   0.000000
    14  H    7.077446   3.010419   2.448052   0.000000
    15  H    8.700997   1.656176   2.328162   2.576486   0.000000
    16  H    6.422561   2.699302   3.567103   2.901950   3.349357
    17  H    6.023650   3.475940   3.413283   2.180234   3.906197
    18  H    4.466482   4.821677   4.970739   2.703762   4.381131
    19  H    4.935271   4.327489   5.115717   3.362011   3.958624
    20  H    2.385245   8.885280   9.665438   7.805836   8.819636
                   16         17         18         19         20
    16  H    0.000000
    17  H    1.731840   0.000000
    18  H    3.072231   2.542392   0.000000
    19  H    2.513403   3.059670   1.740560   0.000000
    20  H    6.377547   6.610449   5.253327   4.885906   0.000000
 Stoichiometry    C9H9NO
 Framework group  C1[X(C9H9NO)]
 Deg. of freedom    54
 Full point group                 C1      NOp   1
 Largest Abelian subgroup         C1      NOp   1
 Largest concise Abelian subgroup C1      NOp   1
                         Standard orientation:                         
 ---------------------------------------------------------------------
 Center     Atomic      Atomic             Coordinates (Angstroms)
 Number     Number       Type             X           Y           Z
 ---------------------------------------------------------------------
      1          8           0        2.573092    2.199761    0.121950
      2          6           0        2.602011    1.067359   -0.085691
      3          6           0        3.959466   -0.946477    0.026122
      4          6           0        2.639499   -0.400615   -0.354863
      5          6           0        1.254622   -1.003480    0.064438
      6          6           0        0.069923   -0.071971   -0.015253
      7          7           0       -1.102931   -0.898687    0.377343
      8          6           0       -2.237559   -0.552415    0.126392
      9          6           0       -3.436932   -0.187277   -0.136310
     10          6           0       -4.601641    0.519725    0.449076
     11          6           0       -4.526794    0.396312   -0.869186
     12          1           0        4.008233   -1.125168    1.094190
     13          1           0        4.453399   -1.663028   -0.612506
     14          1           0        2.478069   -0.457344   -1.410852
     15          1           0        4.077599    0.387651    0.423751
     16          1           0        1.323229   -1.402166    1.078118
     17          1           0        1.046622   -1.868607   -0.566629
     18          1           0       -0.062554    0.375859   -1.009185
     19          1           0        0.146307    0.780953    0.670644
     20          1           0       -4.670700    0.737607    1.487125
 ---------------------------------------------------------------------
 Rotational constants (GHZ):           2.9392797           0.3873667           0.3541141
 Standard basis: 6-31G(2df,p) (6D, 7F)
 There are   386 symmetry adapted cartesian basis functions of A   symmetry.
 There are   353 symmetry adapted basis functions of A   symmetry.
   353 basis functions,   547 primitive gaussians,   386 cartesian basis functions
    39 alpha electrons       39 beta electrons
       nuclear repulsion energy       503.0652393317 Hartrees.
 NAtoms=   20 NActive=   20 NUniq=   20 SFac= 1.00D+00 NAtFMM=   60 NAOKFM=F Big=F
 Integral buffers will be    131072 words long.
 Raffenetti 2 integral format.
 Two-electron integral symmetry is turned on.
 One-electron integrals computed using PRISM.
 PrsmSu:  requested number of processors reduced to:  13 ShMem   1 Linda.
 NBasis=   353 RedAO= T EigKep=  8.85D-05  NBF=   353
 NBsUse=   353 1.00D-06 EigRej= -1.00D+00 NBFU=   353
 Initial guess from the checkpoint file:  "OdC1CCCCNdCdC2CdC12.chk"
 B after Tr=    -0.000000    0.000000    0.000000
         Rot=    1.000000    0.000194   -0.000016    0.000029 Ang=   0.02 deg.
 Requested convergence on RMS density matrix=1.00D-08 within 128 cycles.
 Requested convergence on MAX density matrix=1.00D-06.
 Requested convergence on             energy=1.00D-06.
 No special actions if energy rises.
 SCF Done:  E(RB3LYP) =  -477.931470428     A.U. after   14 cycles
            NFock= 14  Conv=0.65D-08     -V/T= 2.0067
 PrsmSu:  requested number of processors reduced to:  13 ShMem   1 Linda.
 Calling FoFJK, ICntrl=      2127 FMM=F ISym2X=0 I1Cent= 0 IOpClX= 0 NMat=1 NMatS=1 NMatT=0.
 ***** Axes restored to original set *****
 -------------------------------------------------------------------
 Center     Atomic                   Forces (Hartrees/Bohr)
 Number     Number              X              Y              Z
 -------------------------------------------------------------------
      1        8           0.014039420    0.013045677    0.011509330
      2        6          -0.013119895   -0.015476424   -0.016147725
      3        6           0.009557751    0.089206105   -0.002723645
      4        6           0.073519866   -0.013989512   -0.000219151
      5        6          -0.013948268    0.000225373   -0.015485156
      6        6           0.004921857    0.004165360    0.001424836
      7        7          -0.042520732   -0.004539150   -0.006252944
      8        6           0.031678065   -0.005278270    0.008021427
      9        6          -0.000142576    0.027582994   -0.013345592
     10        6          -0.044759359   -0.004046657   -0.010140060
     11        6           0.042534832   -0.024193733    0.026892254
     12        1          -0.002017145   -0.017329327   -0.018164913
     13        1          -0.008130551    0.004495853    0.011749141
     14        1          -0.002787724   -0.009837185    0.025201693
     15        1          -0.059065738   -0.049174506    0.003742259
     16        1          -0.000014560    0.003275644   -0.001913814
     17        1          -0.001043905   -0.003649225    0.000056389
     18        1          -0.000831878   -0.004680024   -0.000249617
     19        1          -0.004263998    0.003031453   -0.001879450
     20        1           0.016394539    0.007165554   -0.002075264
 -------------------------------------------------------------------
 Cartesian Forces:  Max     0.089206105 RMS     0.023229417

 GradGradGradGradGradGradGradGradGradGradGradGradGradGradGradGradGradGrad
 Berny optimization.
 Using GEDIIS/GDIIS optimizer.
 FormGI is forming the generalized inverse of G from B-inverse, IUseBI=4.
 Internal  Forces:  Max     0.049935128 RMS     0.014181211
 Search for a local minimum.
 Step number  16 out of a maximum of  103
 All quantities printed in internal units (Hartrees-Bohrs-Radians)
 Mixed Optimization -- RFO/linear search
 Update second derivatives using D2CorX and points   15   16
 DE= -1.04D-03 DEPred=-1.03D-03 R= 1.01D+00
 TightC=F SS=  1.41D+00  RLast= 6.33D-01 DXNew= 1.2613D+00 1.8987D+00
 Trust test= 1.01D+00 RLast= 6.33D-01 DXMaxT set to 1.26D+00
 ITU=  1  0 -1 -1  1  1  0  1  1  0  1  1  0  0  1  0
 Use linear search instead of GDIIS.
     Eigenvalues ---    0.00001   0.00001   0.00751   0.01284   0.01650
     Eigenvalues ---    0.02122   0.02475   0.03679   0.03886   0.03899
     Eigenvalues ---    0.04083   0.04764   0.05386   0.06054   0.06320
     Eigenvalues ---    0.06664   0.07803   0.09328   0.10011   0.10584
     Eigenvalues ---    0.11068   0.11300   0.12629   0.12967   0.13525
     Eigenvalues ---    0.14502   0.15304   0.15955   0.16290   0.18242
     Eigenvalues ---    0.19576   0.20621   0.21547   0.22016   0.22471
     Eigenvalues ---    0.23950   0.25343   0.26305   0.27616   0.31531
     Eigenvalues ---    0.35902   0.36226   0.37177   0.40347   0.41639
     Eigenvalues ---    0.44835   0.47399   0.53251   0.61157   0.65290
     Eigenvalues ---    0.87659   1.17847   2.43254  19.46660
 RFO step:  Lambda=-6.10202829D-02 EMin= 5.00930977D-06
 Quartic linear search produced a step of  2.00000.
 Iteration  1 RMS(Cart)=  0.09567024 RMS(Int)=  0.10402915
 Iteration  2 RMS(Cart)=  0.02265663 RMS(Int)=  0.06709557
 Iteration  3 RMS(Cart)=  0.00621178 RMS(Int)=  0.03829094
 Iteration  4 RMS(Cart)=  0.00263605 RMS(Int)=  0.02008675
 Iteration  5 RMS(Cart)=  0.00435857 RMS(Int)=  0.01954946
 SLEqS3 Cycle:    30 Max:0.153211     RMS: 343.890     Conv:0.189205E-02
 Iteration  6 RMS(Cart)=  0.00001616 RMS(Int)=  0.01954838
 SLEqS3 Cycle:    15 Max:0.159678     RMS: 343.724     Conv:0.189111E-02
 Iteration  7 RMS(Cart)=  0.00002217 RMS(Int)=  0.01954699
 SLEqS3 Cycle:    15 Max:0.159656     RMS: 343.520     Conv:0.188999E-02
 Iteration  8 RMS(Cart)=  0.00002272 RMS(Int)=  0.01954558
 SLEqS3 Cycle:    30 Max:0.158548     RMS: 341.467     Conv:0.187870E-02
 Iteration  9 RMS(Cart)=  0.00000980 RMS(Int)=  0.01954496
 Iteration 10 RMS(Cart)=  0.00000865 RMS(Int)=  0.56287364
 Iteration 11 RMS(Cart)=  0.00082024 RMS(Int)=  0.01951859
 SLEqS3 Cycle:   601 Max:0.136682E-02 RMS:0.306127E-03 Conv:0.453933E-05
 SLEqS3 Cycle:   601 Max:0.184477E-02 RMS:0.457597E-03 Conv:0.453933E-05
 Iteration 12 RMS(Cart)=  0.00001327 RMS(Int)=  0.01951451
 SLEqS3 Cycle:   601 Max:0.790385E-03 RMS:0.135564E-03 Conv:0.565984E-05
 SLEqS3 Cycle:   601 Max:0.324302E-01 RMS:0.579428E-02 Conv:0.565984E-05
 Iteration 13 RMS(Cart)=  0.00001599 RMS(Int)=  0.01950964
 SLEqS3 Cycle:   601 Max:0.179509E-02 RMS:0.449324E-03 Conv:0.784122E-05
 SLEqS3 Cycle:   601 Max:0.355045E-01 RMS:0.639258E-02 Conv:0.784122E-05
 Iteration 14 RMS(Cart)=  0.00001586 RMS(Int)=  0.01950474
 SLEqS3 Cycle:   601 Max:0.232871E-02 RMS:0.458475E-03 Conv:0.128679E-04
 SLEqS3 Cycle:   601 Max:0.370176E-01 RMS:0.672097E-02 Conv:0.128679E-04
 Iteration 15 RMS(Cart)=  0.00001582 RMS(Int)=  0.01949985
 SLEqS3 Cycle:   186 Max:0.370214E-01 RMS:0.672016E-02 Conv:0.367381E-04
 Iteration 16 RMS(Cart)=  0.00001564 RMS(Int)=  0.56283312
 Iteration 17 RMS(Cart)=  0.00082175 RMS(Int)=  0.01947194
 SLEqS3 Cycle:   410 Max:0.310952E-03 RMS:0.622793E-04 Conv:0.164645E-04
 Iteration 18 RMS(Cart)=  0.00001776 RMS(Int)=  0.01946625
 Iteration 19 RMS(Cart)=  0.00001776 RMS(Int)=  0.01946056
 Iteration 20 RMS(Cart)=  0.00001765 RMS(Int)=  0.56280402
 Iteration 21 RMS(Cart)=  0.00084254 RMS(Int)=  0.01943670
 Iteration 22 RMS(Cart)=  0.00002232 RMS(Int)=  0.01942948
 Iteration 23 RMS(Cart)=  0.00002224 RMS(Int)=  0.01942227
 Iteration 24 RMS(Cart)=  0.00002213 RMS(Int)=  0.01941503
 Iteration 25 RMS(Cart)=  0.00002172 RMS(Int)=  0.56275767
 Iteration 26 RMS(Cart)=  0.00083448 RMS(Int)=  0.01939334
 Iteration 27 RMS(Cart)=  0.00002781 RMS(Int)=  0.01938421
 Iteration 28 RMS(Cart)=  0.00002764 RMS(Int)=  0.01937453
 Iteration 29 RMS(Cart)=  0.00002585 RMS(Int)=  0.56272051
 Iteration 30 RMS(Cart)=  0.00082412 RMS(Int)=  0.01935564
 Iteration 31 RMS(Cart)=  0.00003389 RMS(Int)=  0.01934425
 Iteration 32 RMS(Cart)=  0.00003345 RMS(Int)=  0.56270973
 Iteration 33 RMS(Cart)=  0.00081336 RMS(Int)=  0.01932574
 Iteration 34 RMS(Cart)=  0.00003997 RMS(Int)=  0.01931196
 Iteration 35 RMS(Cart)=  0.00003927 RMS(Int)=  0.56268839
 Iteration 36 RMS(Cart)=  0.00080225 RMS(Int)=  0.01929703
 Iteration 37 RMS(Cart)=  0.00004797 RMS(Int)=  0.56270534
 Iteration 38 RMS(Cart)=  0.00079370 RMS(Int)=  0.01927974
 Iteration 39 RMS(Cart)=  0.00005314 RMS(Int)=  0.01926021
 Iteration 40 RMS(Cart)=  0.00005172 RMS(Int)=  0.56266083
 Iteration 41 RMS(Cart)=  0.00078122 RMS(Int)=  0.01925949
 Iteration 42 RMS(Cart)=  0.00006679 RMS(Int)=  0.56272271
 Iteration 43 RMS(Cart)=  0.00076973 RMS(Int)=  0.56426873
 New curvilinear step failed, DQL= 7.54D+00 SP=-5.73D-01.
 ITry= 1 IFail=1 DXMaxC= 4.45D-01 DCOld= 1.00D+10 DXMaxT= 1.26D+00 DXLimC= 3.00D+00 Rises=F
 Iteration  1 RMS(Cart)=  0.08919015 RMS(Int)=  0.10227656
 Iteration  2 RMS(Cart)=  0.01850247 RMS(Int)=  0.06685189
 Iteration  3 RMS(Cart)=  0.00552421 RMS(Int)=  0.03781133
 Iteration  4 RMS(Cart)=  0.00953444 RMS(Int)=  0.01780632
 Iteration  5 RMS(Cart)=  0.00012778 RMS(Int)=  0.01779445
 Iteration  6 RMS(Cart)=  0.00012869 RMS(Int)=  0.01778238
 Iteration  7 RMS(Cart)=  0.00012785 RMS(Int)=  0.01777044
 Iteration  8 RMS(Cart)=  0.00012688 RMS(Int)=  0.01775863
 Iteration  9 RMS(Cart)=  0.00012341 RMS(Int)=  0.01774719
 Iteration 10 RMS(Cart)=  0.00012482 RMS(Int)=  0.01773569
 Iteration 11 RMS(Cart)=  0.00012522 RMS(Int)=  0.01772419
 Iteration 12 RMS(Cart)=  0.00012445 RMS(Int)=  0.01771279
 Iteration 13 RMS(Cart)=  0.00011886 RMS(Int)=  0.01770193
 Iteration 14 RMS(Cart)=  0.00012114 RMS(Int)=  0.01769094
 Iteration 15 RMS(Cart)=  0.00012230 RMS(Int)=  0.01767961
 Iteration 16 RMS(Cart)=  0.00013905 RMS(Int)=  0.01766676
 Iteration 17 RMS(Cart)=  0.00015451 RMS(Int)=  0.01765306
 Iteration 18 RMS(Cart)=  0.00021305 RMS(Int)=  0.01763445
 Iteration 19 RMS(Cart)=  0.00020784 RMS(Int)=  0.01761642
 Iteration 20 RMS(Cart)=  0.00020764 RMS(Int)=  0.01759846
 Iteration 21 RMS(Cart)=  0.00020410 RMS(Int)=  0.01758087
 Iteration 22 RMS(Cart)=  0.00020094 RMS(Int)=  0.01756368
 Iteration 23 RMS(Cart)=  0.00019890 RMS(Int)=  0.01754676
 Iteration 24 RMS(Cart)=  0.00019770 RMS(Int)=  0.01752997
 Iteration 25 RMS(Cart)=  0.00019452 RMS(Int)=  0.01751355
 Iteration 26 RMS(Cart)=  0.00019353 RMS(Int)=  0.01749727
 Iteration 27 RMS(Cart)=  0.00019042 RMS(Int)=  0.01748133
 Iteration 28 RMS(Cart)=  0.00018827 RMS(Int)=  0.01746566
 Iteration 29 RMS(Cart)=  0.00018706 RMS(Int)=  0.01745012
 Iteration 30 RMS(Cart)=  0.00018438 RMS(Int)=  0.01743489
 Iteration 31 RMS(Cart)=  0.00018239 RMS(Int)=  0.01741992
 Iteration 32 RMS(Cart)=  0.00018117 RMS(Int)=  0.01740509
 Iteration 33 RMS(Cart)=  0.00017924 RMS(Int)=  0.01739046
 Iteration 34 RMS(Cart)=  0.00017677 RMS(Int)=  0.01737611
 Iteration 35 RMS(Cart)=  0.00017520 RMS(Int)=  0.01736197
 Iteration 36 RMS(Cart)=  0.00017374 RMS(Int)=  0.01734797
 Iteration 37 RMS(Cart)=  0.00017064 RMS(Int)=  0.01733435
 Iteration 38 RMS(Cart)=  0.00017012 RMS(Int)=  0.01732082
 Iteration 39 RMS(Cart)=  0.00016804 RMS(Int)=  0.01730750
 Iteration 40 RMS(Cart)=  0.00016632 RMS(Int)=  0.01729434
 Iteration 41 RMS(Cart)=  0.00016415 RMS(Int)=  0.01728143
 Iteration 42 RMS(Cart)=  0.00016275 RMS(Int)=  0.01726867
 Iteration 43 RMS(Cart)=  0.00016065 RMS(Int)=  0.01725616
 Iteration 44 RMS(Cart)=  0.00015900 RMS(Int)=  0.01724384
 Iteration 45 RMS(Cart)=  0.00015741 RMS(Int)=  0.01723172
 Iteration 46 RMS(Cart)=  0.00015568 RMS(Int)=  0.01721981
 Iteration 47 RMS(Cart)=  0.00015463 RMS(Int)=  0.01720793
 Iteration 48 RMS(Cart)=  0.00015244 RMS(Int)=  0.01719629
 Iteration 49 RMS(Cart)=  0.00015096 RMS(Int)=  0.01718480
 Iteration 50 RMS(Cart)=  0.00014952 RMS(Int)=  0.01717345
 Iteration 51 RMS(Cart)=  0.00014759 RMS(Int)=  0.01716231
 Iteration 52 RMS(Cart)=  0.00014585 RMS(Int)=  0.01715133
 Iteration 53 RMS(Cart)=  0.00014449 RMS(Int)=  0.01714048
 Iteration 54 RMS(Cart)=  0.00014350 RMS(Int)=  0.01712979
 Iteration 55 RMS(Cart)=  0.00014223 RMS(Int)=  0.01711924
 Iteration 56 RMS(Cart)=  0.00014098 RMS(Int)=  0.01710880
 Iteration 57 RMS(Cart)=  0.00013975 RMS(Int)=  0.01709851
 Iteration 58 RMS(Cart)=  0.00013849 RMS(Int)=  0.01708836
 Iteration 59 RMS(Cart)=  0.00013720 RMS(Int)=  0.01707829
 Iteration 60 RMS(Cart)=  0.00013595 RMS(Int)=  0.01706832
 Iteration 61 RMS(Cart)=  0.00013476 RMS(Int)=  0.01705854
 Iteration 62 RMS(Cart)=  0.00013350 RMS(Int)=  0.01704885
 Iteration 63 RMS(Cart)=  0.00013231 RMS(Int)=  0.01703929
 Iteration 64 RMS(Cart)=  0.00013108 RMS(Int)=  0.01702985
 Iteration 65 RMS(Cart)=  0.00012985 RMS(Int)=  0.01702053
 Iteration 66 RMS(Cart)=  0.00012873 RMS(Int)=  0.01701122
 New curvilinear step failed, DQL= 7.64D+00 SP=-1.59D-01.
 ITry= 2 IFail=1 DXMaxC= 3.86D-01 DCOld= 1.00D+10 DXMaxT= 1.26D+00 DXLimC= 3.00D+00 Rises=F
 Iteration  1 RMS(Cart)=  0.08223240 RMS(Int)=  0.10071207
 Iteration  2 RMS(Cart)=  0.01490561 RMS(Int)=  0.06657313
 Iteration  3 RMS(Cart)=  0.00496469 RMS(Int)=  0.03750989
 Iteration  4 RMS(Cart)=  0.00234789 RMS(Int)=  0.01631786
 Iteration  5 RMS(Cart)=  0.00829937 RMS(Int)=  0.01509093
 SLEqS3 Cycle:    52 Max:0.112021     RMS: 320.249     Conv:0.174773E-02
 Iteration  6 RMS(Cart)=  0.00003860 RMS(Int)=  0.01508886
 SLEqS3 Cycle:    59 Max:0.126343     RMS:0.206202E-01 Conv:0.174480E-02
 Iteration  7 RMS(Cart)=  0.00002609 RMS(Int)=  0.56335633
 Iteration  8 RMS(Cart)=  0.00011794 RMS(Int)=  0.56334205
 Iteration  9 RMS(Cart)=  0.00007624 RMS(Int)=  0.01508011
 SLEqS3 Cycle:    49 Max:0.255805E-02 RMS:0.682801E-03 Conv:0.227008E-03
 Iteration 10 RMS(Cart)=  0.00003507 RMS(Int)=  0.56335171
 Iteration 11 RMS(Cart)=  0.00007756 RMS(Int)=  0.56333639
 Iteration 12 RMS(Cart)=  0.00007591 RMS(Int)=  0.56332042
 Iteration 13 RMS(Cart)=  0.00007594 RMS(Int)=  0.56330263
 Iteration 14 RMS(Cart)=  0.00007596 RMS(Int)=  0.56327656
 Iteration 15 RMS(Cart)=  0.00007599 RMS(Int)=  0.01506358
 SLEqS3 Cycle:   601 Max:0.257694E-02 RMS:0.683275E-03 Conv:0.650951E-05
 SLEqS3 Cycle:   601 Max:0.127104     RMS:0.218416E-01 Conv:0.650951E-05
 Iteration 16 RMS(Cart)=  0.00002617 RMS(Int)=  0.01506217
 SLEqS3 Cycle:   601 Max:0.489608E-01 RMS:0.116654E-01 Conv:0.653685E-05
 SLEqS3 Cycle:   601 Max:0.127105     RMS:0.218418E-01 Conv:0.653685E-05
 Iteration 17 RMS(Cart)=  0.00002613 RMS(Int)=  0.01506076
 SLEqS3 Cycle:   601 Max:0.489606E-01 RMS:0.116654E-01 Conv:0.656421E-05
 SLEqS3 Cycle:   601 Max:0.127105     RMS:0.218418E-01 Conv:0.656421E-05
 Iteration 18 RMS(Cart)=  0.00002609 RMS(Int)=  0.01505936
 SLEqS3 Cycle:   601 Max:0.489604E-01 RMS:0.116653E-01 Conv:0.659179E-05
 SLEqS3 Cycle:   601 Max:0.127105     RMS:0.218419E-01 Conv:0.659179E-05
 Iteration 19 RMS(Cart)=  0.00002605 RMS(Int)=  0.01505795
 SLEqS3 Cycle:   601 Max:0.489603E-01 RMS:0.116653E-01 Conv:0.661952E-05
 SLEqS3 Cycle:   601 Max:0.127106     RMS:0.218421E-01 Conv:0.661952E-05
 Iteration 20 RMS(Cart)=  0.00002600 RMS(Int)=  0.01505655
 SLEqS3 Cycle:   601 Max:0.489602E-01 RMS:0.116653E-01 Conv:0.664736E-05
 SLEqS3 Cycle:   601 Max:0.127106     RMS:0.218433E-01 Conv:0.664736E-05
 Iteration 21 RMS(Cart)=  0.00002597 RMS(Int)=  0.01505516
 SLEqS3 Cycle:   601 Max:0.489601E-01 RMS:0.116653E-01 Conv:0.667533E-05
 SLEqS3 Cycle:   601 Max:0.127106     RMS:0.218423E-01 Conv:0.667533E-05
 Iteration 22 RMS(Cart)=  0.00002592 RMS(Int)=  0.01505376
slurmstepd: error: *** JOB 27470823 ON lewis4-r630-hpc4rc-node375 CANCELLED AT 2023-05-23T15:22:31 DUE TO TIME LIMIT ***
