### Starting Gaussian ###
 Entering Gaussian System, Link 0=g16
 Initial command:
 /cluster/software/gaussian/gaussian-16-A.03/avx2/g16/l1.exe "/local/scratch/ks29c/Gau-1251.inp" -scrdir="/local/scratch/ks29c/"
 Entering Link 1 = /cluster/software/gaussian/gaussian-16-A.03/avx2/g16/l1.exe PID=      1253.
  
 Copyright (c) 1988,1990,1992,1993,1995,1998,2003,2009,2016,
            Gaussian, Inc.  All Rights Reserved.
  
 This is part of the Gaussian(R) 16 program.  It is based on
 the Gaussian(R) 09 system (copyright 2009, Gaussian, Inc.),
 the Gaussian(R) 03 system (copyright 2003, Gaussian, Inc.),
 the Gaussian(R) 98 system (copyright 1998, Gaussian, Inc.),
 the Gaussian(R) 94 system (copyright 1995, Gaussian, Inc.),
 the Gaussian 92(TM) system (copyright 1992, Gaussian, Inc.),
 the Gaussian 90(TM) system (copyright 1990, Gaussian, Inc.),
 the Gaussian 88(TM) system (copyright 1988, Gaussian, Inc.),
 the Gaussian 86(TM) system (copyright 1986, Carnegie Mellon
 University), and the Gaussian 82(TM) system (copyright 1983,
 Carnegie Mellon University). Gaussian is a federally registered
 trademark of Gaussian, Inc.
  
 This software contains proprietary and confidential information,
 including trade secrets, belonging to Gaussian, Inc.
  
 This software is provided under written license and may be
 used, copied, transmitted, or stored only in accord with that
 written license.
  
 The following legend is applicable only to US Government
 contracts under FAR:
  
                    RESTRICTED RIGHTS LEGEND
  
 Use, reproduction and disclosure by the US Government is
 subject to restrictions as set forth in subparagraphs (a)
 and (c) of the Commercial Computer Software - Restricted
 Rights clause in FAR 52.227-19.
  
 Gaussian, Inc.
 340 Quinnipiac St., Bldg. 40, Wallingford CT 06492
  
  
 ---------------------------------------------------------------
 Warning -- This program may not be used in any manner that
 competes with the business of Gaussian, Inc. or will provide
 assistance to any competitor of Gaussian, Inc.  The licensee
 of this program is prohibited from giving any competitor of
 Gaussian, Inc. access to this program.  By using this program,
 the user acknowledges that Gaussian, Inc. is engaged in the
 business of creating and licensing software in the field of
 computational chemistry and represents and warrants to the
 licensee that it is not a competitor of Gaussian, Inc. and that
 it will not use this program in any manner prohibited above.
 ---------------------------------------------------------------
  

 Cite this work as:
 Gaussian 16, Revision A.03,
 M. J. Frisch, G. W. Trucks, H. B. Schlegel, G. E. Scuseria, 
 M. A. Robb, J. R. Cheeseman, G. Scalmani, V. Barone, 
 G. A. Petersson, H. Nakatsuji, X. Li, M. Caricato, A. V. Marenich, 
 J. Bloino, B. G. Janesko, R. Gomperts, B. Mennucci, H. P. Hratchian, 
 J. V. Ortiz, A. F. Izmaylov, J. L. Sonnenberg, D. Williams-Young, 
 F. Ding, F. Lipparini, F. Egidi, J. Goings, B. Peng, A. Petrone, 
 T. Henderson, D. Ranasinghe, V. G. Zakrzewski, J. Gao, N. Rega, 
 G. Zheng, W. Liang, M. Hada, M. Ehara, K. Toyota, R. Fukuda, 
 J. Hasegawa, M. Ishida, T. Nakajima, Y. Honda, O. Kitao, H. Nakai, 
 T. Vreven, K. Throssell, J. A. Montgomery, Jr., J. E. Peralta, 
 F. Ogliaro, M. J. Bearpark, J. J. Heyd, E. N. Brothers, K. N. Kudin, 
 V. N. Staroverov, T. A. Keith, R. Kobayashi, J. Normand, 
 K. Raghavachari, A. P. Rendell, J. C. Burant, S. S. Iyengar, 
 J. Tomasi, M. Cossi, J. M. Millam, M. Klene, C. Adamo, R. Cammi, 
 J. W. Ochterski, R. L. Martin, K. Morokuma, O. Farkas, 
 J. B. Foresman, and D. J. Fox, Gaussian, Inc., Wallingford CT, 2016.
 
 ******************************************
 Gaussian 16:  ES64L-G16RevA.03 25-Dec-2016
                28-May-2023 
 ******************************************
 %chk=OdC1CdCC2dCCN2C2CCC1S2.chk
 %NProcShared=20
 Will use up to   20 processors via shared memory.
 -----------------------------
 # opt freq b3lyp/6-31g(2df,p)
 -----------------------------
 1/18=20,19=15,26=3,38=1/1,3;
 2/9=110,12=2,17=6,18=5,40=1/2;
 3/5=1,6=6,7=104,11=2,25=1,30=1,71=1,74=-5/1,2,3;
 4//1;
 5/5=2,38=5/2;
 6/7=2,8=2,9=2,10=2,28=1/1;
 7//1,2,3,16;
 1/18=20,19=15,26=3/3(2);
 2/9=110/2;
 99//99;
 2/9=110/2;
 3/5=1,6=6,7=104,11=2,25=1,30=1,71=1,74=-5/1,2,3;
 4/5=5,16=3,69=1/1;
 5/5=2,38=5/2;
 7//1,2,3,16;
 1/18=20,19=15,26=3/3(-5);
 2/9=110/2;
 6/7=2,8=2,9=2,10=2,19=2,28=1/1;
 99/9=1/99;
 -------------------
 Title Card Required
 -------------------
 Symbolic Z-matrix:
 Charge =  0 Multiplicity = 1
 O                     1.01729  -0.09397   0.12298 
 C                     2.24163   0.12277   0.10111 
 C                     2.99932  -0.20957  -1.12673 
 C                     2.89073   0.60389  -2.18091 
 C                     2.49662   2.01538  -2.09262 
 C                     1.42654   2.73412  -2.51269 
 C                     2.3016    3.9498   -2.19847 
 N                     2.95315   2.99389  -1.34118 
 C                     2.86979   3.14716   0.13145 
 C                     4.31116   2.66745   0.44966 
 C                     4.39357   1.20787   0.90463 
 C                     2.99258   0.76097   1.26567 
 S                     2.25978   2.3672    1.6435 
 H                     3.64213  -1.0746   -1.13293 
 H                     3.50887   0.41041  -3.05583 
 H                     0.4815    2.45741  -2.95414 
 H                     1.94621   4.84765  -1.69148 
 H                     3.04043   4.24468  -2.96495 
 H                     1.89712   2.66521  -0.00978 
 H                     4.75016   3.31786   1.21669 
 H                     4.98173   2.78244  -0.41586 
 H                     5.07591   1.12706   1.75687 
 H                     4.85467   0.59435   0.12537 
 H                     2.97226   0.09258   2.13064 
 

 GradGradGradGradGradGradGradGradGradGradGradGradGradGradGradGradGradGrad
 Berny optimization.
 Initialization pass.
                           ----------------------------
                           !    Initial Parameters    !
                           ! (Angstroms and Degrees)  !
 --------------------------                            --------------------------
 ! Name  Definition              Value          Derivative Info.                !
 --------------------------------------------------------------------------------
 ! R1    R(1,2)                  1.2436         estimate D2E/DX2                !
 ! R2    R(2,3)                  1.4806         estimate D2E/DX2                !
 ! R3    R(2,12)                 1.5256         estimate D2E/DX2                !
 ! R4    R(3,4)                  1.336          estimate D2E/DX2                !
 ! R5    R(3,14)                 1.0777         estimate D2E/DX2                !
 ! R6    R(4,5)                  1.4681         estimate D2E/DX2                !
 ! R7    R(4,15)                 1.0886         estimate D2E/DX2                !
 ! R8    R(5,6)                  1.3558         estimate D2E/DX2                !
 ! R9    R(5,8)                  1.3155         estimate D2E/DX2                !
 ! R10   R(6,7)                  1.5305         estimate D2E/DX2                !
 ! R11   R(6,16)                 1.0791         estimate D2E/DX2                !
 ! R12   R(7,8)                  1.4399         estimate D2E/DX2                !
 ! R13   R(7,17)                 1.0906         estimate D2E/DX2                !
 ! R14   R(7,18)                 1.1047         estimate D2E/DX2                !
 ! R15   R(8,9)                  1.4829         estimate D2E/DX2                !
 ! R16   R(9,10)                 1.5521         estimate D2E/DX2                !
 ! R17   R(9,13)                 1.8074         estimate D2E/DX2                !
 ! R18   R(9,19)                 1.0947         estimate D2E/DX2                !
 ! R19   R(10,11)                1.5311         estimate D2E/DX2                !
 ! R20   R(10,20)                1.0973         estimate D2E/DX2                !
 ! R21   R(10,21)                1.1009         estimate D2E/DX2                !
 ! R22   R(11,12)                1.5142         estimate D2E/DX2                !
 ! R23   R(11,22)                1.0947         estimate D2E/DX2                !
 ! R24   R(11,23)                1.0937         estimate D2E/DX2                !
 ! R25   R(12,13)                1.8055         estimate D2E/DX2                !
 ! R26   R(12,24)                1.0933         estimate D2E/DX2                !
 ! A1    A(1,2,3)              118.6397         estimate D2E/DX2                !
 ! A2    A(1,2,12)             122.9639         estimate D2E/DX2                !
 ! A3    A(3,2,12)             118.362          estimate D2E/DX2                !
 ! A4    A(2,3,4)              118.4313         estimate D2E/DX2                !
 ! A5    A(2,3,14)             119.3514         estimate D2E/DX2                !
 ! A6    A(4,3,14)             122.1853         estimate D2E/DX2                !
 ! A7    A(3,4,5)              124.0396         estimate D2E/DX2                !
 ! A8    A(3,4,15)             118.6738         estimate D2E/DX2                !
 ! A9    A(5,4,15)             111.817          estimate D2E/DX2                !
 ! A10   A(4,5,6)              134.6619         estimate D2E/DX2                !
 ! A11   A(4,5,8)              131.0197         estimate D2E/DX2                !
 ! A12   A(6,5,8)               93.2427         estimate D2E/DX2                !
 ! A13   A(5,6,7)               84.6181         estimate D2E/DX2                !
 ! A14   A(5,6,16)             133.0008         estimate D2E/DX2                !
 ! A15   A(7,6,16)             142.0335         estimate D2E/DX2                !
 ! A16   A(6,7,8)               81.5832         estimate D2E/DX2                !
 ! A17   A(6,7,17)             124.2664         estimate D2E/DX2                !
 ! A18   A(6,7,18)             116.8709         estimate D2E/DX2                !
 ! A19   A(8,7,17)             114.6589         estimate D2E/DX2                !
 ! A20   A(8,7,18)             106.7194         estimate D2E/DX2                !
 ! A21   A(17,7,18)            108.707          estimate D2E/DX2                !
 ! A22   A(5,8,7)               89.8098         estimate D2E/DX2                !
 ! A23   A(5,8,9)              128.6543         estimate D2E/DX2                !
 ! A24   A(7,8,9)              119.8153         estimate D2E/DX2                !
 ! A25   A(8,9,10)              96.8604         estimate D2E/DX2                !
 ! A26   A(8,9,13)             143.624          estimate D2E/DX2                !
 ! A27   A(8,9,19)              82.8957         estimate D2E/DX2                !
 ! A28   A(10,9,13)             90.4891         estimate D2E/DX2                !
 ! A29   A(10,9,19)            135.688          estimate D2E/DX2                !
 ! A30   A(13,9,19)             67.5456         estimate D2E/DX2                !
 ! A31   A(9,10,11)            113.926          estimate D2E/DX2                !
 ! A32   A(9,10,20)            109.3688         estimate D2E/DX2                !
 ! A33   A(9,10,21)            111.8508         estimate D2E/DX2                !
 ! A34   A(11,10,20)           109.6215         estimate D2E/DX2                !
 ! A35   A(11,10,21)           107.4822         estimate D2E/DX2                !
 ! A36   A(20,10,21)           104.1201         estimate D2E/DX2                !
 ! A37   A(10,11,12)           107.6023         estimate D2E/DX2                !
 ! A38   A(10,11,22)           109.5881         estimate D2E/DX2                !
 ! A39   A(10,11,23)           110.2258         estimate D2E/DX2                !
 ! A40   A(12,11,22)           111.6715         estimate D2E/DX2                !
 ! A41   A(12,11,23)           113.2275         estimate D2E/DX2                !
 ! A42   A(22,11,23)           104.5059         estimate D2E/DX2                !
 ! A43   A(2,12,11)            113.3836         estimate D2E/DX2                !
 ! A44   A(2,12,13)            109.3977         estimate D2E/DX2                !
 ! A45   A(2,12,24)            109.8178         estimate D2E/DX2                !
 ! A46   A(11,12,13)            99.3728         estimate D2E/DX2                !
 ! A47   A(11,12,24)           112.7221         estimate D2E/DX2                !
 ! A48   A(13,12,24)           111.7633         estimate D2E/DX2                !
 ! A49   A(9,13,12)             94.1206         estimate D2E/DX2                !
 ! D1    D(1,2,3,4)             75.8846         estimate D2E/DX2                !
 ! D2    D(1,2,3,14)          -106.1276         estimate D2E/DX2                !
 ! D3    D(12,2,3,4)          -102.0437         estimate D2E/DX2                !
 ! D4    D(12,2,3,14)           75.9441         estimate D2E/DX2                !
 ! D5    D(1,2,12,11)         -167.0784         estimate D2E/DX2                !
 ! D6    D(1,2,12,13)          -57.1795         estimate D2E/DX2                !
 ! D7    D(1,2,12,24)           65.8263         estimate D2E/DX2                !
 ! D8    D(3,2,12,11)           10.7544         estimate D2E/DX2                !
 ! D9    D(3,2,12,13)          120.6533         estimate D2E/DX2                !
 ! D10   D(3,2,12,24)         -116.3409         estimate D2E/DX2                !
 ! D11   D(2,3,4,5)             23.2439         estimate D2E/DX2                !
 ! D12   D(2,3,4,15)           174.9603         estimate D2E/DX2                !
 ! D13   D(14,3,4,5)          -154.6837         estimate D2E/DX2                !
 ! D14   D(14,3,4,15)           -2.9673         estimate D2E/DX2                !
 ! D15   D(3,4,5,6)           -113.8124         estimate D2E/DX2                !
 ! D16   D(3,4,5,8)             51.0043         estimate D2E/DX2                !
 ! D17   D(15,4,5,6)            92.7903         estimate D2E/DX2                !
 ! D18   D(15,4,5,8)          -102.393          estimate D2E/DX2                !
 ! D19   D(4,5,6,7)           -166.4643         estimate D2E/DX2                !
 ! D20   D(4,5,6,16)             7.7429         estimate D2E/DX2                !
 ! D21   D(8,5,6,7)             24.9511         estimate D2E/DX2                !
 ! D22   D(8,5,6,16)          -160.8416         estimate D2E/DX2                !
 ! D23   D(4,5,8,7)            164.2397         estimate D2E/DX2                !
 ! D24   D(4,5,8,9)            -66.412          estimate D2E/DX2                !
 ! D25   D(6,5,8,7)            -26.5138         estimate D2E/DX2                !
 ! D26   D(6,5,8,9)            102.8345         estimate D2E/DX2                !
 ! D27   D(5,6,7,8)            -22.8912         estimate D2E/DX2                !
 ! D28   D(5,6,7,17)          -137.0664         estimate D2E/DX2                !
 ! D29   D(5,6,7,18)            81.6482         estimate D2E/DX2                !
 ! D30   D(16,6,7,8)           164.0            estimate D2E/DX2                !
 ! D31   D(16,6,7,17)           49.8248         estimate D2E/DX2                !
 ! D32   D(16,6,7,18)          -91.4606         estimate D2E/DX2                !
 ! D33   D(6,7,8,5)             23.5233         estimate D2E/DX2                !
 ! D34   D(6,7,8,9)           -112.3675         estimate D2E/DX2                !
 ! D35   D(17,7,8,5)           147.4655         estimate D2E/DX2                !
 ! D36   D(17,7,8,9)            11.5747         estimate D2E/DX2                !
 ! D37   D(18,7,8,5)           -92.1109         estimate D2E/DX2                !
 ! D38   D(18,7,8,9)           131.9983         estimate D2E/DX2                !
 ! D39   D(5,8,9,10)           100.0188         estimate D2E/DX2                !
 ! D40   D(5,8,9,13)            -0.2244         estimate D2E/DX2                !
 ! D41   D(5,8,9,19)           -35.3211         estimate D2E/DX2                !
 ! D42   D(7,8,9,10)          -143.0154         estimate D2E/DX2                !
 ! D43   D(7,8,9,13)           116.7414         estimate D2E/DX2                !
 ! D44   D(7,8,9,19)            81.6447         estimate D2E/DX2                !
 ! D45   D(8,9,10,11)          -99.1999         estimate D2E/DX2                !
 ! D46   D(8,9,10,20)          137.7489         estimate D2E/DX2                !
 ! D47   D(8,9,10,21)           22.9411         estimate D2E/DX2                !
 ! D48   D(13,9,10,11)          45.0924         estimate D2E/DX2                !
 ! D49   D(13,9,10,20)         -77.9588         estimate D2E/DX2                !
 ! D50   D(13,9,10,21)         167.2334         estimate D2E/DX2                !
 ! D51   D(19,9,10,11)         -12.3576         estimate D2E/DX2                !
 ! D52   D(19,9,10,20)        -135.4087         estimate D2E/DX2                !
 ! D53   D(19,9,10,21)         109.7835         estimate D2E/DX2                !
 ! D54   D(8,9,13,12)           49.9752         estimate D2E/DX2                !
 ! D55   D(10,9,13,12)         -52.3231         estimate D2E/DX2                !
 ! D56   D(19,9,13,12)          88.098          estimate D2E/DX2                !
 ! D57   D(9,10,11,12)         -14.9516         estimate D2E/DX2                !
 ! D58   D(9,10,11,22)        -136.5607         estimate D2E/DX2                !
 ! D59   D(9,10,11,23)         108.9548         estimate D2E/DX2                !
 ! D60   D(20,10,11,12)        107.9617         estimate D2E/DX2                !
 ! D61   D(20,10,11,22)        -13.6474         estimate D2E/DX2                !
 ! D62   D(20,10,11,23)       -128.1319         estimate D2E/DX2                !
 ! D63   D(21,10,11,12)       -139.4677         estimate D2E/DX2                !
 ! D64   D(21,10,11,22)         98.9232         estimate D2E/DX2                !
 ! D65   D(21,10,11,23)        -15.5613         estimate D2E/DX2                !
 ! D66   D(10,11,12,2)          91.6666         estimate D2E/DX2                !
 ! D67   D(10,11,12,13)        -24.3168         estimate D2E/DX2                !
 ! D68   D(10,11,12,24)       -142.776          estimate D2E/DX2                !
 ! D69   D(22,11,12,2)        -148.032          estimate D2E/DX2                !
 ! D70   D(22,11,12,13)         95.9845         estimate D2E/DX2                !
 ! D71   D(22,11,12,24)        -22.4746         estimate D2E/DX2                !
 ! D72   D(23,11,12,2)         -30.3966         estimate D2E/DX2                !
 ! D73   D(23,11,12,13)       -146.3801         estimate D2E/DX2                !
 ! D74   D(23,11,12,24)         95.1608         estimate D2E/DX2                !
 ! D75   D(2,12,13,9)          -70.3856         estimate D2E/DX2                !
 ! D76   D(11,12,13,9)          48.5996         estimate D2E/DX2                !
 ! D77   D(24,12,13,9)         167.7716         estimate D2E/DX2                !
 --------------------------------------------------------------------------------
 Trust Radius=3.00D-01 FncErr=1.00D-07 GrdErr=1.00D-06 EigMax=2.50D+02 EigMin=1.00D-04
 Number of steps in this run=    144 maximum allowed number of steps=    144.
 GradGradGradGradGradGradGradGradGradGradGradGradGradGradGradGradGradGrad

                          Input orientation:                          
 ---------------------------------------------------------------------
 Center     Atomic      Atomic             Coordinates (Angstroms)
 Number     Number       Type             X           Y           Z
 ---------------------------------------------------------------------
      1          8           0        1.017290   -0.093970    0.122980
      2          6           0        2.241630    0.122770    0.101110
      3          6           0        2.999320   -0.209570   -1.126730
      4          6           0        2.890730    0.603890   -2.180910
      5          6           0        2.496620    2.015380   -2.092620
      6          6           0        1.426540    2.734120   -2.512690
      7          6           0        2.301600    3.949800   -2.198470
      8          7           0        2.953150    2.993890   -1.341180
      9          6           0        2.869790    3.147160    0.131450
     10          6           0        4.311160    2.667450    0.449660
     11          6           0        4.393570    1.207870    0.904630
     12          6           0        2.992580    0.760970    1.265670
     13         16           0        2.259780    2.367200    1.643500
     14          1           0        3.642130   -1.074600   -1.132930
     15          1           0        3.508870    0.410410   -3.055830
     16          1           0        0.481500    2.457410   -2.954140
     17          1           0        1.946210    4.847650   -1.691480
     18          1           0        3.040430    4.244680   -2.964950
     19          1           0        1.897120    2.665210   -0.009780
     20          1           0        4.750160    3.317860    1.216690
     21          1           0        4.981730    2.782440   -0.415860
     22          1           0        5.075910    1.127060    1.756870
     23          1           0        4.854670    0.594350    0.125370
     24          1           0        2.972260    0.092580    2.130640
 ---------------------------------------------------------------------
                    Distance matrix (angstroms):
                    1          2          3          4          5
     1  O    0.000000
     2  C    1.243569   0.000000
     3  C    2.345971   1.480586   0.000000
     4  C    3.050360   2.420831   1.335966   0.000000
     5  C    3.398037   2.908512   2.477106   1.468135   0.000000
     6  C    3.887459   3.783579   3.613839   2.606110   1.355772
     7  C    4.836389   4.465179   4.351528   3.397425   1.947105
     8  N    3.927620   3.290865   3.210962   2.533997   1.315509
     9  C    3.733196   3.089084   3.587120   3.437393   2.523226
    10  C    4.310654   3.298460   3.533154   3.632602   3.190758
    11  C    3.702031   2.540459   2.842445   3.484807   3.637856
    12  C    2.436890   1.525590   2.581777   3.451661   3.619065
    13  S    3.148511   2.723373   3.854976   4.258341   3.760115
    14  H    3.070624   2.217645   1.077738   2.116647   3.432372
    15  H    4.070283   3.413928   2.089364   1.088585   2.127993
    16  H    4.033023   4.228848   4.097759   3.136528   2.235691
    17  H    5.345537   5.062128   5.196485   4.375061   2.913008
    18  H    5.696691   5.198937   4.818826   3.727262   2.454886
    19  H    2.899103   2.568070   3.275177   3.154379   2.262720
    20  H    5.174080   4.212581   4.582556   4.729355   4.210277
    21  H    4.927562   3.853473   3.658881   3.497680   3.094459
    22  H    4.542346   3.432679   3.796571   4.533743   4.718095
    23  H    3.898625   2.655363   2.378311   3.029204   3.535422
    24  H    2.808453   2.157249   3.271465   4.342528   4.664688
                    6          7          8          9         10
     6  C    0.000000
     7  C    1.530471   0.000000
     8  N    1.941766   1.439871   0.000000
     9  C    3.040567   2.528952   1.482929   0.000000
    10  C    4.135335   3.563053   2.271093   1.552072   0.000000
    11  C    4.776063   4.639369   3.210660   2.584678   1.531066
    12  C    4.541124   4.758819   3.432660   2.644888   2.457477
    13  S    4.254743   4.155371   3.127590   1.807414   2.392397
    14  H    4.617242   5.308200   4.131667   4.474195   4.117661
    15  H    3.167132   3.836645   3.150114   4.249350   4.245746
    16  H    1.079142   2.472050   2.999751   3.962392   5.127989
    17  H    2.326253   1.090631   2.138472   2.658522   3.864032
    18  H    2.256318   1.104679   2.051517   3.289584   3.970135
    19  H    2.547696   2.569852   1.730854   1.094673   2.457372
    20  H    5.029461   4.249484   3.142754   2.177769   1.097310
    21  H    4.127761   3.423963   2.239657   2.211981   1.100914
    22  H    5.842062   5.595478   4.193933   3.404374   2.160195
    23  H    4.825977   4.814296   3.394752   3.233670   2.167559
    24  H    5.561250   5.836876   4.524544   3.652084   3.353849
                   11         12         13         14         15
    11  C    0.000000
    12  C    1.514213   0.000000
    13  S    2.538313   1.805471   0.000000
    14  H    3.150553   3.089420   4.633081   0.000000
    15  H    4.135684   4.366327   5.241465   2.433220   0.000000
    16  H    5.635224   5.195212   4.930387   5.077547   3.655888
    17  H    5.096799   5.151755   4.168099   6.185561   4.898209
    18  H    5.101652   5.480572   5.037078   5.658010   3.863848
    19  H    3.031872   2.540263   1.718624   4.276997   4.118286
    20  H    2.162544   3.103091   2.699614   5.103151   5.314931
    21  H    2.137498   3.297060   3.438372   4.145537   3.842562
    22  H    1.094729   2.171535   3.079186   3.905634   5.111877
    23  H    1.093740   2.189846   3.490153   2.416395   3.459053
    24  H    2.183368   1.093312   2.432864   3.530145   5.223834
                   16         17         18         19         20
    16  H    0.000000
    17  H    3.074562   0.000000
    18  H    3.121310   1.783989   0.000000
    19  H    3.273594   2.755643   3.540468   0.000000
    20  H    6.029731   4.319704   4.611755   3.173329   0.000000
    21  H    5.176928   3.886731   3.522024   3.113433   1.733643
    22  H    6.713572   5.960615   6.013179   3.948628   2.279805
    23  H    5.663832   5.463574   5.115316   3.613008   2.935883
    24  H    6.136065   6.186442   6.573402   3.515075   3.794557
                   21         22         23         24
    21  H    0.000000
    22  H    2.733113   0.000000
    23  H    2.257612   1.730468   0.000000
    24  H    4.214022   2.373857   2.795773   0.000000
 Stoichiometry    C10H11NOS
 Framework group  C1[X(C10H11NOS)]
 Deg. of freedom    66
 Full point group                 C1      NOp   1
 Largest Abelian subgroup         C1      NOp   1
 Largest concise Abelian subgroup C1      NOp   1
                         Standard orientation:                         
 ---------------------------------------------------------------------
 Center     Atomic      Atomic             Coordinates (Angstroms)
 Number     Number       Type             X           Y           Z
 ---------------------------------------------------------------------
      1          8           0        0.903700    1.912142   -1.440378
      2          6           0        1.001862    1.429320   -0.298577
      3          6           0        0.183213    2.009629    0.790087
      4          6           0       -1.118555    1.712599    0.834564
      5          6           0       -1.709815    0.515991    0.223039
      6          6           0       -2.572999    0.295528   -0.798932
      7          6           0       -2.662379   -1.121384   -0.227342
      8          7           0       -1.381556   -0.754320    0.318536
      9          6           0       -0.153461   -1.432338   -0.162249
     10          6           0        0.581004   -1.476535    1.204328
     11          6           0        1.621748   -0.368385    1.386038
     12          6           0        1.892655    0.233332    0.023178
     13         16           0        1.417356   -1.164973   -1.015358
     14          1           0        0.656950    2.627072    1.535646
     15          1           0       -1.706961    2.068428    1.678472
     16          1           0       -3.009120    0.940577   -1.546099
     17          1           0       -2.656082   -2.029005   -0.832040
     18          1           0       -3.342087   -1.271809    0.630379
     19          1           0       -0.240168   -0.712019   -0.981964
     20          1           0        1.060048   -2.455915    1.328509
     21          1           0       -0.121636   -1.412151    2.049410
     22          1           0        2.530103   -0.787333    1.830792
     23          1           0        1.270517    0.363776    2.118734
     24          1           0        2.942403    0.504504   -0.117634
 ---------------------------------------------------------------------
 Rotational constants (GHZ):           1.0640610           0.8200251           0.6503131
 Standard basis: 6-31G(2df,p) (6D, 7F)
 There are   462 symmetry adapted cartesian basis functions of A   symmetry.
 There are   423 symmetry adapted basis functions of A   symmetry.
   423 basis functions,   673 primitive gaussians,   462 cartesian basis functions
    51 alpha electrons       51 beta electrons
       nuclear repulsion energy       941.8758554505 Hartrees.
 NAtoms=   24 NActive=   24 NUniq=   24 SFac= 1.00D+00 NAtFMM=   60 NAOKFM=F Big=F
 Integral buffers will be    131072 words long.
 Raffenetti 2 integral format.
 Two-electron integral symmetry is turned on.
 One-electron integrals computed using PRISM.
 PrsmSu:  requested number of processors reduced to:  13 ShMem   1 Linda.
 NBasis=   423 RedAO= T EigKep=  2.05D-04  NBF=   423
 NBsUse=   423 1.00D-06 EigRej= -1.00D+00 NBFU=   423
 ExpMin= 1.17D-01 ExpMax= 2.19D+04 ExpMxC= 3.30D+03 IAcc=3 IRadAn=         5 AccDes= 0.00D+00
 Harris functional with IExCor=  402 and IRadAn=       5 diagonalized for initial guess.
 HarFok:  IExCor=  402 AccDes= 0.00D+00 IRadAn=         5 IDoV= 1 UseB2=F ITyADJ=14
 ICtDFT=  3500011 ScaDFX=  1.000000  1.000000  1.000000  1.000000
 FoFCou: FMM=F IPFlag=           0 FMFlag=      100000 FMFlg1=           0
         NFxFlg=           0 DoJE=T BraDBF=F KetDBF=T FulRan=T
         wScrn=  0.000000 ICntrl=       500 IOpCl=  0 I1Cent=   200000004 NGrid=           0
         NMat0=    1 NMatS0=      1 NMatT0=    0 NMatD0=    1 NMtDS0=    0 NMtDT0=    0
 Petite list used in FoFCou.
 Requested convergence on RMS density matrix=1.00D-08 within 128 cycles.
 Requested convergence on MAX density matrix=1.00D-06.
 Requested convergence on             energy=1.00D-06.
 No special actions if energy rises.
 Integral accuracy reduced to 1.0D-05 until final iterations.
 EnCoef did     2 forward-backward iterations
 Initial convergence to 1.0D-05 achieved.  Increase integral accuracy.
 SCF Done:  E(RB3LYP) =  -915.454724598     A.U. after   20 cycles
            NFock= 20  Conv=0.71D-08     -V/T= 2.0044

 **********************************************************************

            Population analysis using the SCF density.

 **********************************************************************

 Orbital symmetries:
       Occupied  (A) (A) (A) (A) (A) (A) (A) (A) (A) (A) (A) (A)
                 (A) (A) (A) (A) (A) (A) (A) (A) (A) (A) (A) (A)
                 (A) (A) (A) (A) (A) (A) (A) (A) (A) (A) (A) (A)
                 (A) (A) (A) (A) (A) (A) (A) (A) (A) (A) (A) (A)
                 (A) (A) (A)
       Virtual   (A) (A) (A) (A) (A) (A) (A) (A) (A) (A) (A) (A)
                 (A) (A) (A) (A) (A) (A) (A) (A) (A) (A) (A) (A)
                 (A) (A) (A) (A) (A) (A) (A) (A) (A) (A) (A) (A)
                 (A) (A) (A) (A) (A) (A) (A) (A) (A) (A) (A) (A)
                 (A) (A) (A) (A) (A) (A) (A) (A) (A) (A) (A) (A)
                 (A) (A) (A) (A) (A) (A) (A) (A) (A) (A) (A) (A)
                 (A) (A) (A) (A) (A) (A) (A) (A) (A) (A) (A) (A)
                 (A) (A) (A) (A) (A) (A) (A) (A) (A) (A) (A) (A)
                 (A) (A) (A) (A) (A) (A) (A) (A) (A) (A) (A) (A)
                 (A) (A) (A) (A) (A) (A) (A) (A) (A) (A) (A) (A)
                 (A) (A) (A) (A) (A) (A) (A) (A) (A) (A) (A) (A)
                 (A) (A) (A) (A) (A) (A) (A) (A) (A) (A) (A) (A)
                 (A) (A) (A) (A) (A) (A) (A) (A) (A) (A) (A) (A)
                 (A) (A) (A) (A) (A) (A) (A) (A) (A) (A) (A) (A)
                 (A) (A) (A) (A) (A) (A) (A) (A) (A) (A) (A) (A)
                 (A) (A) (A) (A) (A) (A) (A) (A) (A) (A) (A) (A)
                 (A) (A) (A) (A) (A) (A) (A) (A) (A) (A) (A) (A)
                 (A) (A) (A) (A) (A) (A) (A) (A) (A) (A) (A) (A)
                 (A) (A) (A) (A) (A) (A) (A) (A) (A) (A) (A) (A)
                 (A) (A) (A) (A) (A) (A) (A) (A) (A) (A) (A) (A)
                 (A) (A) (A) (A) (A) (A) (A) (A) (A) (A) (A) (A)
                 (A) (A) (A) (A) (A) (A) (A) (A) (A) (A) (A) (A)
                 (A) (A) (A) (A) (A) (A) (A) (A) (A) (A) (A) (A)
                 (A) (A) (A) (A) (A) (A) (A) (A) (A) (A) (A) (A)
                 (A) (A) (A) (A) (A) (A) (A) (A) (A) (A) (A) (A)
                 (A) (A) (A) (A) (A) (A) (A) (A) (A) (A) (A) (A)
                 (A) (A) (A) (A) (A) (A) (A) (A) (A) (A) (A) (A)
                 (A) (A) (A) (A) (A) (A) (A) (A) (A) (A) (A) (A)
                 (A) (A) (A) (A) (A) (A) (A) (A) (A) (A) (A) (A)
                 (A) (A) (A) (A) (A) (A) (A) (A) (A) (A) (A) (A)
                 (A) (A) (A) (A) (A) (A) (A) (A) (A) (A) (A) (A)
 The electronic state is 1-A.
 Alpha  occ. eigenvalues --  -88.91677 -19.14618 -14.35299 -10.28893 -10.22389
 Alpha  occ. eigenvalues --  -10.22305 -10.22129 -10.21556 -10.21316 -10.19447
 Alpha  occ. eigenvalues --  -10.18435 -10.17996 -10.17664  -7.97581  -5.94198
 Alpha  occ. eigenvalues --   -5.93711  -5.93029  -1.03920  -1.02603  -0.88331
 Alpha  occ. eigenvalues --   -0.82325  -0.77729  -0.73768  -0.71722  -0.69039
 Alpha  occ. eigenvalues --   -0.64351  -0.60768  -0.60209  -0.55993  -0.51469
 Alpha  occ. eigenvalues --   -0.49823  -0.49037  -0.48967  -0.47357  -0.45687
 Alpha  occ. eigenvalues --   -0.44950  -0.43287  -0.42341  -0.41571  -0.39087
 Alpha  occ. eigenvalues --   -0.37363  -0.36531  -0.35077  -0.33628  -0.32999
 Alpha  occ. eigenvalues --   -0.29193  -0.28533  -0.25738  -0.24274  -0.18419
 Alpha  occ. eigenvalues --   -0.17602
 Alpha virt. eigenvalues --   -0.08447  -0.05707  -0.02907   0.01411   0.06265
 Alpha virt. eigenvalues --    0.07953   0.09593   0.10552   0.12085   0.13060
 Alpha virt. eigenvalues --    0.14149   0.14731   0.15277   0.16812   0.17137
 Alpha virt. eigenvalues --    0.17787   0.18585   0.19930   0.21233   0.22895
 Alpha virt. eigenvalues --    0.23649   0.24116   0.25923   0.27586   0.29726
 Alpha virt. eigenvalues --    0.32010   0.32683   0.33104   0.35496   0.36711
 Alpha virt. eigenvalues --    0.37261   0.40123   0.40537   0.41234   0.41818
 Alpha virt. eigenvalues --    0.43297   0.44421   0.45218   0.47053   0.47586
 Alpha virt. eigenvalues --    0.48456   0.48998   0.50657   0.51205   0.53661
 Alpha virt. eigenvalues --    0.54417   0.56447   0.57009   0.57381   0.58063
 Alpha virt. eigenvalues --    0.58946   0.59952   0.60913   0.61940   0.62255
 Alpha virt. eigenvalues --    0.64705   0.65071   0.65764   0.67728   0.68241
 Alpha virt. eigenvalues --    0.69095   0.70283   0.71127   0.73467   0.73901
 Alpha virt. eigenvalues --    0.74668   0.75369   0.76434   0.76798   0.77215
 Alpha virt. eigenvalues --    0.78288   0.79686   0.79934   0.80373   0.81597
 Alpha virt. eigenvalues --    0.82739   0.83432   0.86256   0.86738   0.87604
 Alpha virt. eigenvalues --    0.88113   0.89592   0.90731   0.91063   0.94027
 Alpha virt. eigenvalues --    0.96021   0.97599   0.97907   0.99296   1.01579
 Alpha virt. eigenvalues --    1.03711   1.05962   1.08104   1.09861   1.11031
 Alpha virt. eigenvalues --    1.12493   1.13812   1.15433   1.17123   1.18899
 Alpha virt. eigenvalues --    1.20936   1.23315   1.24366   1.24550   1.27334
 Alpha virt. eigenvalues --    1.27870   1.28029   1.31346   1.32408   1.34167
 Alpha virt. eigenvalues --    1.34905   1.35811   1.36464   1.39929   1.40513
 Alpha virt. eigenvalues --    1.42936   1.44158   1.44827   1.46665   1.47002
 Alpha virt. eigenvalues --    1.49360   1.50067   1.50666   1.52445   1.52907
 Alpha virt. eigenvalues --    1.54607   1.55727   1.58448   1.59656   1.59876
 Alpha virt. eigenvalues --    1.60890   1.63377   1.64845   1.65767   1.67008
 Alpha virt. eigenvalues --    1.70228   1.70754   1.72619   1.73578   1.75399
 Alpha virt. eigenvalues --    1.78154   1.78677   1.80596   1.81151   1.83354
 Alpha virt. eigenvalues --    1.85399   1.86426   1.88348   1.89217   1.92174
 Alpha virt. eigenvalues --    1.93557   1.96363   1.96759   1.99077   2.00220
 Alpha virt. eigenvalues --    2.00927   2.07127   2.08286   2.10248   2.11373
 Alpha virt. eigenvalues --    2.12315   2.15495   2.17312   2.17780   2.21084
 Alpha virt. eigenvalues --    2.23524   2.26782   2.28804   2.30945   2.33020
 Alpha virt. eigenvalues --    2.33766   2.36240   2.38338   2.38601   2.40566
 Alpha virt. eigenvalues --    2.41790   2.45319   2.46623   2.48685   2.49831
 Alpha virt. eigenvalues --    2.52483   2.53378   2.55512   2.56809   2.59245
 Alpha virt. eigenvalues --    2.61699   2.65022   2.66829   2.67117   2.72309
 Alpha virt. eigenvalues --    2.75077   2.76434   2.79312   2.81046   2.82054
 Alpha virt. eigenvalues --    2.83296   2.83822   2.84746   2.87126   2.87865
 Alpha virt. eigenvalues --    2.90757   2.91913   2.94022   2.95354   2.96073
 Alpha virt. eigenvalues --    2.98639   3.01281   3.01846   3.04185   3.05567
 Alpha virt. eigenvalues --    3.06066   3.09888   3.11100   3.13640   3.14079
 Alpha virt. eigenvalues --    3.14812   3.16911   3.17652   3.18710   3.20283
 Alpha virt. eigenvalues --    3.21169   3.21800   3.24308   3.25992   3.28336
 Alpha virt. eigenvalues --    3.29618   3.32048   3.33013   3.35642   3.36385
 Alpha virt. eigenvalues --    3.38530   3.38737   3.39996   3.41797   3.41915
 Alpha virt. eigenvalues --    3.43152   3.44824   3.46776   3.48212   3.50700
 Alpha virt. eigenvalues --    3.51846   3.54765   3.55214   3.58813   3.61204
 Alpha virt. eigenvalues --    3.62280   3.66042   3.69111   3.69752   3.71667
 Alpha virt. eigenvalues --    3.72000   3.75880   3.77799   3.79946   3.82860
 Alpha virt. eigenvalues --    3.85210   3.86947   3.89479   3.91194   3.91800
 Alpha virt. eigenvalues --    3.95213   3.97292   3.98128   3.98480   4.03742
 Alpha virt. eigenvalues --    4.06180   4.09056   4.10491   4.14839   4.16355
 Alpha virt. eigenvalues --    4.18674   4.20567   4.22147   4.24762   4.25517
 Alpha virt. eigenvalues --    4.27817   4.29164   4.30788   4.33348   4.35501
 Alpha virt. eigenvalues --    4.36936   4.38769   4.40488   4.44193   4.45418
 Alpha virt. eigenvalues --    4.48105   4.48676   4.50560   4.51754   4.52431
 Alpha virt. eigenvalues --    4.54044   4.56331   4.58288   4.59955   4.61443
 Alpha virt. eigenvalues --    4.64059   4.64814   4.66117   4.68130   4.69654
 Alpha virt. eigenvalues --    4.71733   4.71921   4.74217   4.75015   4.76323
 Alpha virt. eigenvalues --    4.77469   4.79489   4.79896   4.81529   4.82916
 Alpha virt. eigenvalues --    4.84085   4.84794   4.85770   4.87427   4.89869
 Alpha virt. eigenvalues --    4.90871   4.92778   4.94336   4.96169   4.97526
 Alpha virt. eigenvalues --    5.00474   5.01062   5.03113   5.05913   5.06398
 Alpha virt. eigenvalues --    5.07382   5.09799   5.11874   5.13709   5.19546
 Alpha virt. eigenvalues --    5.21102   5.25369   5.27277   5.29926   5.30505
 Alpha virt. eigenvalues --    5.33254   5.34025   5.36726   5.39256   5.41396
 Alpha virt. eigenvalues --    5.45552   5.48840   5.51570   5.53708   5.57929
 Alpha virt. eigenvalues --    5.62767   5.63127   5.67409   5.75254   5.78342
 Alpha virt. eigenvalues --    5.85738   6.01268   6.14378   6.20827   6.31340
 Alpha virt. eigenvalues --    6.38311   6.44842   6.84389   7.18968  10.37192
 Alpha virt. eigenvalues --   10.82929  11.11287  11.33503  11.53383  11.77316
 Alpha virt. eigenvalues --   11.83747  12.11113  12.17607  12.53541  12.80854
 Alpha virt. eigenvalues --   13.15163  22.95924
          Condensed to atoms (all electrons):
               1          2          3          4          5          6
     1  O    7.723557   0.727901  -0.068363   0.000954  -0.002088  -0.000481
     2  C    0.727901   4.405561   0.303805   0.008875  -0.014705   0.003471
     3  C   -0.068363   0.303805   5.130971   0.588441  -0.017181  -0.005277
     4  C    0.000954   0.008875   0.588441   4.953447   0.404460  -0.062323
     5  C   -0.002088  -0.014705  -0.017181   0.404460   4.551479   0.588494
     6  C   -0.000481   0.003471  -0.005277  -0.062323   0.588494   5.255713
     7  C    0.000035  -0.000088   0.000192   0.014453  -0.065716   0.289587
     8  N   -0.000037  -0.002413  -0.003246  -0.044210   0.421386  -0.124763
     9  C   -0.001578   0.004849   0.004068   0.000359  -0.062777  -0.013316
    10  C    0.000089  -0.003845   0.000360   0.000415   0.000032  -0.000370
    11  C    0.002012  -0.033569  -0.000570  -0.002983   0.001255   0.000275
    12  C   -0.064446   0.322463  -0.102111  -0.002390   0.002559  -0.000029
    13  S    0.003283  -0.018265   0.005867   0.000083   0.003675   0.009737
    14  H    0.000472  -0.035135   0.354689  -0.023042   0.003439  -0.000195
    15  H    0.000021   0.004598  -0.049947   0.365521  -0.043615   0.000663
    16  H    0.000004  -0.000193   0.000756  -0.000088  -0.026139   0.320214
    17  H    0.000001  -0.000005   0.000026  -0.000589  -0.000352  -0.012254
    18  H   -0.000000   0.000013  -0.000091  -0.000038  -0.018947  -0.010524
    19  H    0.002805   0.006799  -0.000896   0.001356   0.002055  -0.003823
    20  H    0.000001  -0.000310   0.000119  -0.000055   0.000048   0.000000
    21  H   -0.000002   0.001232  -0.000796   0.001297  -0.001372   0.000239
    22  H   -0.000055   0.004154  -0.000319   0.000217  -0.000047  -0.000000
    23  H    0.000255  -0.014829   0.016292   0.000389  -0.000098   0.000023
    24  H   -0.001628  -0.023485   0.004015   0.000085  -0.000000   0.000002
               7          8          9         10         11         12
     1  O    0.000035  -0.000037  -0.001578   0.000089   0.002012  -0.064446
     2  C   -0.000088  -0.002413   0.004849  -0.003845  -0.033569   0.322463
     3  C    0.000192  -0.003246   0.004068   0.000360  -0.000570  -0.102111
     4  C    0.014453  -0.044210   0.000359   0.000415  -0.002983  -0.002390
     5  C   -0.065716   0.421386  -0.062777   0.000032   0.001255   0.002559
     6  C    0.289587  -0.124763  -0.013316  -0.000370   0.000275  -0.000029
     7  C    5.052840   0.330670  -0.072893   0.002458  -0.000192  -0.000103
     8  N    0.330670   6.228676   0.342077  -0.086807   0.005845   0.000881
     9  C   -0.072893   0.342077   5.466596   0.462968  -0.095007  -0.051685
    10  C    0.002458  -0.086807   0.462968   4.974279   0.382592  -0.041469
    11  C   -0.000192   0.005845  -0.095007   0.382592   5.120286   0.386399
    12  C   -0.000103   0.000881  -0.051685  -0.041469   0.386399   5.247852
    13  S    0.000297  -0.030545   0.174036  -0.141767  -0.115760   0.159427
    14  H    0.000016  -0.000036   0.000154   0.000180  -0.001694   0.004887
    15  H   -0.000859   0.001066  -0.000388  -0.000100  -0.000005  -0.000332
    16  H   -0.034986   0.014315  -0.000172   0.000052  -0.000002   0.000003
    17  H    0.336922  -0.011455   0.013429   0.000826   0.000029   0.000022
    18  H    0.360538  -0.023897   0.003256   0.000239   0.000040   0.000003
    19  H    0.002641   0.000179   0.201875  -0.022753   0.001091  -0.014954
    20  H   -0.000428   0.004691  -0.036496   0.350650  -0.041865  -0.003884
    21  H    0.000604   0.006655  -0.027381   0.333240  -0.036853   0.004162
    22  H    0.000004  -0.000167   0.005515  -0.023760   0.343299  -0.021423
    23  H   -0.000015   0.000745   0.002573  -0.033195   0.346318  -0.027158
    24  H    0.000003  -0.000028   0.002894   0.006088  -0.039394   0.337117
              13         14         15         16         17         18
     1  O    0.003283   0.000472   0.000021   0.000004   0.000001  -0.000000
     2  C   -0.018265  -0.035135   0.004598  -0.000193  -0.000005   0.000013
     3  C    0.005867   0.354689  -0.049947   0.000756   0.000026  -0.000091
     4  C    0.000083  -0.023042   0.365521  -0.000088  -0.000589  -0.000038
     5  C    0.003675   0.003439  -0.043615  -0.026139  -0.000352  -0.018947
     6  C    0.009737  -0.000195   0.000663   0.320214  -0.012254  -0.010524
     7  C    0.000297   0.000016  -0.000859  -0.034986   0.336922   0.360538
     8  N   -0.030545  -0.000036   0.001066   0.014315  -0.011455  -0.023897
     9  C    0.174036   0.000154  -0.000388  -0.000172   0.013429   0.003256
    10  C   -0.141767   0.000180  -0.000100   0.000052   0.000826   0.000239
    11  C   -0.115760  -0.001694  -0.000005  -0.000002   0.000029   0.000040
    12  C    0.159427   0.004887  -0.000332   0.000003   0.000022   0.000003
    13  S   15.920842  -0.000037   0.000069  -0.000412   0.000252  -0.000133
    14  H   -0.000037   0.570626  -0.008422   0.000000  -0.000000   0.000000
    15  H    0.000069  -0.008422   0.613939  -0.000299  -0.000003   0.000388
    16  H   -0.000412   0.000000  -0.000299   0.608249   0.001248   0.001197
    17  H    0.000252  -0.000000  -0.000003   0.001248   0.599469  -0.043307
    18  H   -0.000133   0.000000   0.000388   0.001197  -0.043307   0.603303
    19  H    0.074461   0.000031   0.000144  -0.000052  -0.002336   0.000419
    20  H    0.012656  -0.000001   0.000000  -0.000001  -0.000023  -0.000023
    21  H    0.012004  -0.000011   0.000119  -0.000007  -0.000044   0.000050
    22  H    0.005462   0.000049  -0.000001   0.000000  -0.000000  -0.000000
    23  H    0.011452   0.000755   0.000250  -0.000001  -0.000001  -0.000002
    24  H   -0.013414  -0.000271   0.000004  -0.000000  -0.000000  -0.000000
              19         20         21         22         23         24
     1  O    0.002805   0.000001  -0.000002  -0.000055   0.000255  -0.001628
     2  C    0.006799  -0.000310   0.001232   0.004154  -0.014829  -0.023485
     3  C   -0.000896   0.000119  -0.000796  -0.000319   0.016292   0.004015
     4  C    0.001356  -0.000055   0.001297   0.000217   0.000389   0.000085
     5  C    0.002055   0.000048  -0.001372  -0.000047  -0.000098  -0.000000
     6  C   -0.003823   0.000000   0.000239  -0.000000   0.000023   0.000002
     7  C    0.002641  -0.000428   0.000604   0.000004  -0.000015   0.000003
     8  N    0.000179   0.004691   0.006655  -0.000167   0.000745  -0.000028
     9  C    0.201875  -0.036496  -0.027381   0.005515   0.002573   0.002894
    10  C   -0.022753   0.350650   0.333240  -0.023760  -0.033195   0.006088
    11  C    0.001091  -0.041865  -0.036853   0.343299   0.346318  -0.039394
    12  C   -0.014954  -0.003884   0.004162  -0.021423  -0.027158   0.337117
    13  S    0.074461   0.012656   0.012004   0.005462   0.011452  -0.013414
    14  H    0.000031  -0.000001  -0.000011   0.000049   0.000755  -0.000271
    15  H    0.000144   0.000000   0.000119  -0.000001   0.000250   0.000004
    16  H   -0.000052  -0.000001  -0.000007   0.000000  -0.000001  -0.000000
    17  H   -0.002336  -0.000023  -0.000044  -0.000000  -0.000001  -0.000000
    18  H    0.000419  -0.000023   0.000050  -0.000000  -0.000002  -0.000000
    19  H    0.415256   0.002333   0.000853  -0.000176  -0.000166   0.001013
    20  H    0.002333   0.658297  -0.040500  -0.014221   0.006143   0.000001
    21  H    0.000853  -0.040500   0.666967   0.004898  -0.007238  -0.000168
    22  H   -0.000176  -0.014221   0.004898   0.645926  -0.041477  -0.005911
    23  H   -0.000166   0.006143  -0.007238  -0.041477   0.635338   0.003493
    24  H    0.001013   0.000001  -0.000168  -0.005911   0.003493   0.601783
 Mulliken charges:
               1
     1  O   -0.322712
     2  C    0.353121
     3  C   -0.160805
     4  C   -0.204634
     5  C    0.274156
     6  C   -0.235062
     7  C   -0.215978
     8  N   -0.029582
     9  C   -0.322957
    10  C   -0.160401
    11  C   -0.221547
    12  C   -0.135791
    13  S   -0.073268
    14  H    0.133544
    15  H    0.117187
    16  H    0.116314
    17  H    0.118146
    18  H    0.127519
    19  H    0.331846
    20  H    0.102865
    21  H    0.082051
    22  H    0.098032
    23  H    0.100154
    24  H    0.127801
 Sum of Mulliken charges =  -0.00000
 Mulliken charges with hydrogens summed into heavy atoms:
               1
     1  O   -0.322712
     2  C    0.353121
     3  C   -0.027261
     4  C   -0.087447
     5  C    0.274156
     6  C   -0.118748
     7  C    0.029686
     8  N   -0.029582
     9  C    0.008889
    10  C    0.024515
    11  C   -0.023361
    12  C   -0.007990
    13  S   -0.073268
 Electronic spatial extent (au):  <R**2>=           2028.6857
 Charge=             -0.0000 electrons
 Dipole moment (field-independent basis, Debye):
    X=             -0.3471    Y=              1.1219    Z=              2.9983  Tot=              3.2201
 Quadrupole moment (field-independent basis, Debye-Ang):
   XX=            -74.0673   YY=            -88.2934   ZZ=            -84.9772
   XY=              0.4755   XZ=              3.2797   YZ=              5.3031
 Traceless Quadrupole moment (field-independent basis, Debye-Ang):
   XX=              8.3787   YY=             -5.8474   ZZ=             -2.5312
   XY=              0.4755   XZ=              3.2797   YZ=              5.3031
 Octapole moment (field-independent basis, Debye-Ang**2):
  XXX=              7.0819  YYY=             11.1055  ZZZ=              5.3882  XYY=             -0.0789
  XXY=              0.7107  XXZ=              0.3206  XZZ=             -6.8491  YZZ=              0.3859
  YYZ=             14.3387  XYZ=              3.0582
 Hexadecapole moment (field-independent basis, Debye-Ang**3):
 XXXX=          -1245.3062 YYYY=           -945.4350 ZZZZ=           -520.5714 XXXY=             23.8118
 XXXZ=            -11.4066 YYYX=             11.5372 YYYZ=             17.8069 ZZZX=              4.0841
 ZZZY=              4.7664 XXYY=           -356.9838 XXZZ=           -295.5656 YYZZ=           -236.3834
 XXYZ=             -3.2635 YYXZ=              8.5788 ZZXY=             -8.8460
 N-N= 9.418758554505D+02 E-N=-4.032987009296D+03  KE= 9.114067015185D+02
 PrsmSu:  requested number of processors reduced to:  13 ShMem   1 Linda.
 Calling FoFJK, ICntrl=      2127 FMM=F ISym2X=0 I1Cent= 0 IOpClX= 0 NMat=1 NMatS=1 NMatT=0.
 ***** Axes restored to original set *****
 -------------------------------------------------------------------
 Center     Atomic                   Forces (Hartrees/Bohr)
 Number     Number              X              Y              Z
 -------------------------------------------------------------------
      1        8           0.047570722    0.009590080    0.004564122
      2        6          -0.054050516   -0.018847770    0.006120241
      3        6          -0.005618292    0.006544128   -0.004864170
      4        6           0.033229939    0.011662082    0.003489569
      5        6          -0.107874302   -0.094559217   -0.028275291
      6        6          -0.006943227   -0.011615544   -0.046669745
      7        6          -0.032252994    0.031870136    0.009092576
      8        7           0.096380716    0.074871965    0.031463842
      9        6           0.108339966    0.046104243   -0.005528190
     10        6           0.030585530    0.015321389    0.004877132
     11        6           0.023584251   -0.010966230    0.004299619
     12        6           0.008542261   -0.014525400    0.003985128
     13       16          -0.067067075   -0.003226968    0.020711660
     14        1          -0.001807079   -0.008534604   -0.002284480
     15        1          -0.004150416   -0.007040667   -0.003874031
     16        1           0.001543799    0.005640197   -0.018484275
     17        1          -0.004667504   -0.000873678    0.002052734
     18        1          -0.011338997   -0.000734078   -0.002267623
     19        1          -0.028790903   -0.028813942    0.013347668
     20        1          -0.004931848   -0.001918081    0.004979721
     21        1          -0.009041795    0.004466936   -0.000383287
     22        1          -0.003480034   -0.002207268    0.003164822
     23        1          -0.002930437   -0.001737791   -0.001188701
     24        1          -0.004831766   -0.000469916    0.001670960
 -------------------------------------------------------------------
 Cartesian Forces:  Max     0.108339966 RMS     0.031750176

 GradGradGradGradGradGradGradGradGradGradGradGradGradGradGradGradGradGrad
 Berny optimization.
 FormGI is forming the generalized inverse of G from B-inverse, IUseBI=4.
 Internal  Forces:  Max     0.104672532 RMS     0.015501670
 Search for a local minimum.
 Step number   1 out of a maximum of  144
 All quantities printed in internal units (Hartrees-Bohrs-Radians)
 Mixed Optimization -- RFO/linear search
 Second derivative matrix not updated -- first step.
 ITU=  0
     Eigenvalues ---    0.00461   0.00644   0.01035   0.01277   0.01470
     Eigenvalues ---    0.01704   0.01867   0.02015   0.02368   0.02550
     Eigenvalues ---    0.02978   0.03345   0.03750   0.04133   0.04221
     Eigenvalues ---    0.04809   0.04923   0.05024   0.05380   0.05703
     Eigenvalues ---    0.06060   0.06439   0.06956   0.07679   0.08013
     Eigenvalues ---    0.08614   0.09062   0.09270   0.10532   0.11202
     Eigenvalues ---    0.12791   0.14308   0.15605   0.15972   0.16152
     Eigenvalues ---    0.17479   0.18499   0.21415   0.22339   0.23737
     Eigenvalues ---    0.24175   0.24984   0.26229   0.26959   0.27936
     Eigenvalues ---    0.28690   0.29900   0.32472   0.33170   0.33581
     Eigenvalues ---    0.33981   0.34137   0.34272   0.34278   0.34384
     Eigenvalues ---    0.34433   0.34553   0.34740   0.34977   0.35075
     Eigenvalues ---    0.36098   0.36269   0.48296   0.51729   0.56126
     Eigenvalues ---    0.85659
 RFO step:  Lambda=-1.07467556D-01 EMin= 4.60542335D-03
 Linear search not attempted -- first point.
 Maximum step size (   0.300) exceeded in Quadratic search.
    -- Step size scaled by   0.761
 Iteration  1 RMS(Cart)=  0.06773306 RMS(Int)=  0.00241545
 Iteration  2 RMS(Cart)=  0.00315013 RMS(Int)=  0.00113631
 Iteration  3 RMS(Cart)=  0.00000856 RMS(Int)=  0.00113629
 Iteration  4 RMS(Cart)=  0.00000001 RMS(Int)=  0.00113629
 Variable       Old X    -DE/DX   Delta X   Delta X   Delta X     New X
                                 (Linear)    (Quad)   (Total)
    R1        2.35000  -0.04843   0.00000  -0.03822  -0.03822   2.31179
    R2        2.79790   0.01142   0.00000   0.01486   0.01476   2.81266
    R3        2.88295   0.01390   0.00000   0.01600   0.01626   2.89921
    R4        2.52461   0.00902   0.00000   0.00879   0.00922   2.53382
    R5        2.03663   0.00579   0.00000   0.00936   0.00936   2.04599
    R6        2.77437   0.00456   0.00000   0.01196   0.01240   2.78678
    R7        2.05713   0.00201   0.00000   0.00334   0.00334   2.06047
    R8        2.56204   0.01937   0.00000   0.02076   0.01966   2.58169
    R9        2.48595   0.10467   0.00000   0.13050   0.13120   2.61716
   R10        2.89217   0.03631   0.00000   0.04149   0.04201   2.93419
   R11        2.03928   0.00476   0.00000   0.00774   0.00774   2.04702
   R12        2.72096   0.04256   0.00000   0.06715   0.06691   2.78787
   R13        2.06099   0.00175   0.00000   0.00293   0.00293   2.06393
   R14        2.08754  -0.00621   0.00000  -0.01075  -0.01075   2.07679
   R15        2.80233   0.04058   0.00000   0.07517   0.07498   2.87731
   R16        2.93299   0.01809   0.00000   0.03436   0.03365   2.96664
   R17        3.41552   0.04116   0.00000   0.08659   0.08657   3.50208
   R18        2.06863   0.03655   0.00000   0.06176   0.06176   2.13039
   R19        2.89330   0.02751   0.00000   0.04991   0.04920   2.94250
   R20        2.07362   0.00037   0.00000   0.00063   0.00063   2.07425
   R21        2.08043  -0.00474   0.00000  -0.00813  -0.00813   2.07229
   R22        2.86145   0.02298   0.00000   0.04274   0.04301   2.90446
   R23        2.06874   0.00046   0.00000   0.00077   0.00077   2.06951
   R24        2.06687   0.00058   0.00000   0.00099   0.00099   2.06785
   R25        3.41185   0.01587   0.00000   0.03170   0.03211   3.44395
   R26        2.06606   0.00170   0.00000   0.00286   0.00286   2.06892
    A1        2.07065   0.00146   0.00000   0.00338   0.00313   2.07378
    A2        2.14612  -0.01112   0.00000  -0.02378  -0.02395   2.12217
    A3        2.06581   0.00967   0.00000   0.01997   0.02029   2.08610
    A4        2.06702   0.01268   0.00000   0.02255   0.02139   2.08841
    A5        2.08307  -0.00663   0.00000  -0.01157  -0.01102   2.07206
    A6        2.13254  -0.00604   0.00000  -0.01075  -0.01017   2.12237
    A7        2.16490   0.00353   0.00000   0.01656   0.01577   2.18067
    A8        2.07125  -0.00713   0.00000  -0.01391  -0.01427   2.05698
    A9        1.95158   0.00746   0.00000   0.01767   0.01771   1.96928
   A10        2.35029   0.01858   0.00000   0.01724   0.01857   2.36887
   A11        2.28673  -0.02291   0.00000  -0.05812  -0.05803   2.22870
   A12        1.62739   0.00699   0.00000   0.05573   0.05142   1.67881
   A13        1.47686   0.01067   0.00000   0.01583   0.01215   1.48901
   A14        2.32130   0.00131   0.00000   0.01578   0.01741   2.33871
   A15        2.47895  -0.01125   0.00000  -0.02652  -0.02545   2.45350
   A16        1.42390   0.02361   0.00000   0.06373   0.06060   1.48449
   A17        2.16886   0.00366   0.00000   0.01817   0.01614   2.18500
   A18        2.03978  -0.01839   0.00000  -0.06466  -0.06349   1.97629
   A19        2.00117  -0.00590   0.00000   0.01099   0.01247   2.01365
   A20        1.86260  -0.00569   0.00000  -0.01995  -0.01945   1.84315
   A21        1.89729   0.00521   0.00000   0.00577   0.00494   1.90224
   A22        1.56748  -0.02297   0.00000  -0.03416  -0.03677   1.53071
   A23        2.24544  -0.00039   0.00000  -0.01037  -0.01004   2.23540
   A24        2.09117   0.01076   0.00000  -0.01343  -0.01362   2.07755
   A25        1.69053   0.01439   0.00000   0.06311   0.06579   1.75632
   A26        2.50671  -0.01758   0.00000  -0.04704  -0.05037   2.45634
   A27        1.44680  -0.01050   0.00000  -0.02958  -0.02868   1.41813
   A28        1.57933   0.00236   0.00000   0.01905   0.02075   1.60009
   A29        2.36820  -0.00891   0.00000  -0.03892  -0.03871   2.32950
   A30        1.17889  -0.01433   0.00000  -0.06374  -0.06472   1.11417
   A31        1.98838  -0.00474   0.00000  -0.01446  -0.01564   1.97274
   A32        1.90885  -0.00047   0.00000  -0.00160  -0.00116   1.90769
   A33        1.95216  -0.00316   0.00000  -0.01647  -0.01609   1.93607
   A34        1.91326   0.00270   0.00000   0.00403   0.00422   1.91747
   A35        1.87592   0.00442   0.00000   0.01926   0.01953   1.89545
   A36        1.81724   0.00200   0.00000   0.01202   0.01170   1.82894
   A37        1.87802   0.00595   0.00000   0.01251   0.01241   1.89042
   A38        1.91267   0.00074   0.00000   0.00675   0.00695   1.91962
   A39        1.92380  -0.00120   0.00000  -0.00042  -0.00043   1.92337
   A40        1.94903  -0.00331   0.00000  -0.01332  -0.01344   1.93560
   A41        1.97619  -0.00475   0.00000  -0.01261  -0.01253   1.96366
   A42        1.82397   0.00243   0.00000   0.00714   0.00700   1.83097
   A43        1.97892   0.01291   0.00000   0.03666   0.03713   2.01605
   A44        1.90935  -0.00411   0.00000  -0.02974  -0.03121   1.87814
   A45        1.91668  -0.00786   0.00000  -0.01780  -0.01801   1.89867
   A46        1.73438  -0.00057   0.00000   0.01224   0.01324   1.74763
   A47        1.96737  -0.00000   0.00000   0.00183   0.00140   1.96877
   A48        1.95064   0.00036   0.00000  -0.00169  -0.00182   1.94882
   A49        1.64271   0.00139   0.00000  -0.00625  -0.00817   1.63454
    D1        1.32444  -0.00246   0.00000  -0.00519  -0.00585   1.31859
    D2       -1.85228  -0.00232   0.00000   0.00198   0.00132  -1.85095
    D3       -1.78100  -0.00241   0.00000   0.00840   0.00829  -1.77271
    D4        1.32547  -0.00228   0.00000   0.01558   0.01546   1.34093
    D5       -2.91607  -0.00223   0.00000  -0.00575  -0.00626  -2.92232
    D6       -0.99797   0.00152   0.00000   0.01107   0.01039  -0.98758
    D7        1.14889  -0.00588   0.00000  -0.02225  -0.02235   1.12653
    D8        0.18770  -0.00198   0.00000  -0.01933  -0.02016   0.16754
    D9        2.10580   0.00178   0.00000  -0.00250  -0.00352   2.10228
   D10       -2.03053  -0.00562   0.00000  -0.03583  -0.03626  -2.06679
   D11        0.40568  -0.01376   0.00000  -0.04552  -0.04585   0.35983
   D12        3.05363  -0.00255   0.00000   0.00803   0.00761   3.06124
   D13       -2.69974  -0.01390   0.00000  -0.05292  -0.05325  -2.75299
   D14       -0.05179  -0.00269   0.00000   0.00063   0.00021  -0.05158
   D15       -1.98640  -0.01302   0.00000  -0.05582  -0.05454  -2.04094
   D16        0.89019   0.00605   0.00000   0.05453   0.05377   0.94397
   D17        1.61950  -0.02000   0.00000  -0.09831  -0.09776   1.52174
   D18       -1.78709  -0.00093   0.00000   0.01204   0.01056  -1.77654
   D19       -2.90535  -0.01164   0.00000  -0.04029  -0.03877  -2.94412
   D20        0.13514  -0.00637   0.00000  -0.00043   0.00346   0.13860
   D21        0.43548  -0.02172   0.00000  -0.11155  -0.11348   0.32200
   D22       -2.80722  -0.01646   0.00000  -0.07169  -0.07126  -2.87848
   D23        2.86652   0.00754   0.00000   0.04410   0.04620   2.91273
   D24       -1.15911  -0.00095   0.00000  -0.01721  -0.01488  -1.17399
   D25       -0.46275   0.02430   0.00000   0.12396   0.12409  -0.33866
   D26        1.79480   0.01581   0.00000   0.06266   0.06301   1.85781
   D27       -0.39953   0.01018   0.00000   0.09480   0.09855  -0.30098
   D28       -2.39226   0.00078   0.00000   0.03544   0.03651  -2.35575
   D29        1.42503   0.01565   0.00000   0.10473   0.10439   1.52942
   D30        2.86234   0.00202   0.00000   0.04143   0.04498   2.90732
   D31        0.86961  -0.00738   0.00000  -0.01793  -0.01706   0.85255
   D32       -1.59629   0.00748   0.00000   0.05136   0.05082  -1.54547
   D33        0.41056  -0.02507   0.00000  -0.11636  -0.11456   0.29600
   D34       -1.96118  -0.01203   0.00000  -0.06705  -0.06644  -2.02762
   D35        2.57376  -0.01107   0.00000  -0.06587  -0.06448   2.50928
   D36        0.20202   0.00196   0.00000  -0.01656  -0.01635   0.18566
   D37       -1.60764  -0.01217   0.00000  -0.06594  -0.06447  -1.67211
   D38        2.30380   0.00087   0.00000  -0.01664  -0.01635   2.28746
   D39        1.74566   0.00943   0.00000   0.02461   0.02406   1.76972
   D40       -0.00392  -0.00835   0.00000  -0.07941  -0.07751  -0.08143
   D41       -0.61647   0.01969   0.00000   0.06870   0.06852  -0.54795
   D42       -2.49609  -0.01623   0.00000  -0.05883  -0.06035  -2.55644
   D43        2.03752  -0.03401   0.00000  -0.16284  -0.16192   1.87560
   D44        1.42497  -0.00597   0.00000  -0.01474  -0.01590   1.40907
   D45       -1.73137   0.00860   0.00000   0.01676   0.01598  -1.71538
   D46        2.40417   0.00879   0.00000   0.02295   0.02231   2.42648
   D47        0.40040   0.00845   0.00000   0.01868   0.01793   0.41833
   D48        0.78701  -0.00626   0.00000  -0.01575  -0.01487   0.77214
   D49       -1.36064  -0.00607   0.00000  -0.00955  -0.00854  -1.36918
   D50        2.91877  -0.00641   0.00000  -0.01383  -0.01292   2.90585
   D51       -0.21568   0.00765   0.00000   0.03620   0.03580  -0.17988
   D52       -2.36333   0.00784   0.00000   0.04240   0.04213  -2.32120
   D53        1.91608   0.00749   0.00000   0.03812   0.03775   1.95383
   D54        0.87223   0.02303   0.00000   0.13200   0.13053   1.00276
   D55       -0.91321   0.00044   0.00000   0.01170   0.01158  -0.90163
   D56        1.53760  -0.00466   0.00000  -0.01562  -0.01666   1.52094
   D57       -0.26095   0.00142   0.00000   0.00158   0.00146  -0.25950
   D58       -2.38343   0.00136   0.00000   0.00611   0.00599  -2.37744
   D59        1.90162  -0.00131   0.00000  -0.00607  -0.00619   1.89543
   D60        1.88429  -0.00052   0.00000  -0.00773  -0.00792   1.87636
   D61       -0.23819  -0.00058   0.00000  -0.00321  -0.00339  -0.24158
   D62       -2.23632  -0.00325   0.00000  -0.01539  -0.01557  -2.25190
   D63       -2.43417   0.00542   0.00000   0.01825   0.01839  -2.41578
   D64        1.72654   0.00536   0.00000   0.02278   0.02293   1.74946
   D65       -0.27160   0.00269   0.00000   0.01060   0.01074  -0.26085
   D66        1.59988  -0.00105   0.00000  -0.00938  -0.00975   1.59014
   D67       -0.42441  -0.00106   0.00000   0.00375   0.00391  -0.42050
   D68       -2.49191  -0.00115   0.00000  -0.00197  -0.00214  -2.49405
   D69       -2.58365   0.00171   0.00000  -0.00098  -0.00134  -2.58499
   D70        1.67525   0.00170   0.00000   0.01215   0.01232   1.68756
   D71       -0.39226   0.00161   0.00000   0.00643   0.00627  -0.38599
   D72       -0.53052  -0.00067   0.00000  -0.00956  -0.00979  -0.54031
   D73       -2.55481  -0.00068   0.00000   0.00357   0.00386  -2.55095
   D74        1.66087  -0.00077   0.00000  -0.00215  -0.00218   1.65869
   D75       -1.22846  -0.01712   0.00000  -0.05858  -0.05883  -1.28729
   D76        0.84822  -0.00442   0.00000  -0.02262  -0.02285   0.82537
   D77        2.92817  -0.00459   0.00000  -0.01448  -0.01467   2.91350
         Item               Value     Threshold  Converged?
 Maximum Force            0.104673     0.000450     NO 
 RMS     Force            0.015502     0.000300     NO 
 Maximum Displacement     0.356738     0.001800     NO 
 RMS     Displacement     0.067654     0.001200     NO 
 Predicted change in Energy=-6.540167D-02
 GradGradGradGradGradGradGradGradGradGradGradGradGradGradGradGradGradGrad

                          Input orientation:                          
 ---------------------------------------------------------------------
 Center     Atomic      Atomic             Coordinates (Angstroms)
 Number     Number       Type             X           Y           Z
 ---------------------------------------------------------------------
      1          8           0        1.034372   -0.073744    0.169671
      2          6           0        2.241796    0.115421    0.115674
      3          6           0        2.964813   -0.218503   -1.141731
      4          6           0        2.856278    0.591639   -2.204628
      5          6           0        2.440426    2.005438   -2.150087
      6          6           0        1.395609    2.737315   -2.639111
      7          6           0        2.227815    3.975723   -2.209380
      8          7           0        2.985486    3.019364   -1.380073
      9          6           0        2.954193    3.168336    0.134906
     10          6           0        4.400755    2.682490    0.503601
     11          6           0        4.444597    1.196740    0.967487
     12          6           0        3.009384    0.747150    1.284215
     13         16           0        2.239738    2.359970    1.641735
     14          1           0        3.589492   -1.102541   -1.163610
     15          1           0        3.457748    0.361186   -3.084398
     16          1           0        0.470543    2.484663   -3.142918
     17          1           0        1.834002    4.845534   -1.679092
     18          1           0        2.929525    4.316366   -2.983552
     19          1           0        1.969831    2.637070   -0.005493
     20          1           0        4.812162    3.330478    1.288253
     21          1           0        5.083224    2.803914   -0.346130
     22          1           0        5.088150    1.098391    1.848109
     23          1           0        4.918771    0.575563    0.201519
     24          1           0        2.956042    0.074047    2.146033
 ---------------------------------------------------------------------
                    Distance matrix (angstroms):
                    1          2          3          4          5
     1  O    0.000000
     2  C    1.223344   0.000000
     3  C    2.338232   1.488397   0.000000
     4  C    3.065839   2.447074   1.340842   0.000000
     5  C    3.417786   2.957244   2.497534   1.474698   0.000000
     6  C    3.990213   3.896050   3.666252   2.631778   1.366174
     7  C    4.845861   4.506440   4.390281   3.441949   1.982610
     8  N    3.971884   3.350107   3.246693   2.567184   1.384939
     9  C    3.768023   3.134991   3.619474   3.481720   2.614858
    10  C    4.363584   3.376600   3.631089   3.753874   3.367989
    11  C    3.725624   2.597531   2.939638   3.598780   3.793411
    12  C    2.411792   1.534196   2.611453   3.495661   3.701544
    13  S    3.089149   2.714197   3.862893   4.278040   3.813645
    14  H    3.060179   2.221775   1.082694   2.119331   3.457314
    15  H    4.080548   3.432113   2.086379   1.090353   2.147427
    16  H    4.223339   4.401030   4.187271   3.186794   2.257390
    17  H    5.315696   5.075574   5.216508   4.406456   2.942062
    18  H    5.727782   5.265559   4.894751   3.806006   2.504849
    19  H    2.873025   2.539165   3.230375   3.131416   2.284667
    20  H    5.206884   4.279990   4.681109   4.850457   4.382128
    21  H    4.994013   3.938905   3.775666   3.647940   3.297909
    22  H    4.541384   3.474089   3.896398   4.654324   4.880446
    23  H    3.938421   2.717589   2.500562   3.169176   3.703618
    24  H    2.760554   2.152722   3.300765   4.382476   4.738436
                    6          7          8          9         10
     6  C    0.000000
     7  C    1.552704   0.000000
     8  N    2.047544   1.475276   0.000000
     9  C    3.210940   2.583636   1.522607   0.000000
    10  C    4.348626   3.708690   2.380063   1.569880   0.000000
    11  C    4.967620   4.767531   3.310892   2.608005   1.557102
    12  C    4.685884   4.820761   3.501708   2.680690   2.508149
    13  S    4.379565   4.176349   3.181551   1.853224   2.463608
    14  H    4.662051   5.360649   4.171544   4.508895   4.214760
    15  H    3.177528   3.917048   3.192751   4.300880   4.376237
    16  H    1.083237   2.486516   3.117445   4.168940   5.364961
    17  H    2.357628   1.092184   2.179501   2.712639   4.003889
    18  H    2.228214   1.098989   2.063127   3.323156   4.122416
    19  H    2.697355   2.591460   1.751335   1.127353   2.484075
    20  H    5.239167   4.396433   3.248615   2.192840   1.097644
    21  H    4.342891   3.605301   2.348608   2.212910   1.096609
    22  H    6.037887   5.737924   4.304938   3.431255   2.188512
    23  H    5.015478   4.961327   3.494451   3.253686   2.190602
    24  H    5.694344   5.892624   4.594473   3.690428   3.404226
                   11         12         13         14         15
    11  C    0.000000
    12  C    1.536973   0.000000
    13  S    2.582464   1.822461   0.000000
    14  H    3.249534   3.122456   4.656262   0.000000
    15  H    4.253209   4.408489   5.273994   2.418528   0.000000
    16  H    5.860656   5.391119   5.102794   5.149129   3.665511
    17  H    5.208963   5.192250   4.167799   6.223107   4.972002
    18  H    5.257207   5.564128   5.069179   5.754329   3.991571
    19  H    3.024188   2.513128   1.692039   4.236653   4.107700
    20  H    2.188797   3.150176   2.772040   5.211354   5.456299
    21  H    2.171738   3.345014   3.497729   4.261444   4.013378
    22  H    1.095139   2.182342   3.122118   4.020017   5.247029
    23  H    1.094261   2.201688   3.526407   2.539014   3.602470
    24  H    2.205722   1.094826   2.448030   3.569223   5.262277
                   16         17         18         19         20
    16  H    0.000000
    17  H    3.094434   0.000000
    18  H    3.070363   1.783761   0.000000
    19  H    3.480593   2.774292   3.551040   0.000000
    20  H    6.261017   4.468777   4.771228   3.198975   0.000000
    21  H    5.403774   4.062320   3.725846   3.136413   1.738376
    22  H    6.939337   6.088654   6.193544   3.940468   2.317718
    23  H    5.883592   5.593313   5.300508   3.604013   2.963429
    24  H    6.321533   6.217527   6.656622   3.488662   3.845168
                   21         22         23         24
    21  H    0.000000
    22  H    2.779122   0.000000
    23  H    2.300547   1.735886   0.000000
    24  H    4.264735   2.384099   2.808017   0.000000
 Stoichiometry    C10H11NOS
 Framework group  C1[X(C10H11NOS)]
 Deg. of freedom    66
 Full point group                 C1      NOp   1
 Largest Abelian subgroup         C1      NOp   1
 Largest concise Abelian subgroup C1      NOp   1
                         Standard orientation:                         
 ---------------------------------------------------------------------
 Center     Atomic      Atomic             Coordinates (Angstroms)
 Number     Number       Type             X           Y           Z
 ---------------------------------------------------------------------
      1          8           0        0.849711    1.935621   -1.415145
      2          6           0        0.967712    1.470366   -0.289896
      3          6           0        0.122311    2.018732    0.805511
      4          6           0       -1.174297    1.684073    0.873847
      5          6           0       -1.775370    0.498363    0.235461
      6          6           0       -2.715275    0.278772   -0.731384
      7          6           0       -2.660433   -1.202485   -0.269041
      8          7           0       -1.383934   -0.823663    0.366161
      9          6           0       -0.095473   -1.473885   -0.119036
     10          6           0        0.718821   -1.538777    1.221575
     11          6           0        1.737626   -0.370961    1.372606
     12          6           0        1.913186    0.297352   -0.000281
     13         16           0        1.432312   -1.080784   -1.091548
     14          1           0        0.582193    2.661280    1.545691
     15          1           0       -1.747910    2.040067    1.730063
     16          1           0       -3.249919    0.920930   -1.420725
     17          1           0       -2.613802   -2.067978   -0.933581
     18          1           0       -3.348362   -1.423969    0.558893
     19          1           0       -0.205480   -0.690821   -0.922550
     20          1           0        1.243168   -2.501225    1.281378
     21          1           0        0.047317   -1.531470    2.088512
     22          1           0        2.693346   -0.753910    1.745805
     23          1           0        1.396783    0.331010    2.139725
     24          1           0        2.942666    0.620014   -0.186578
 ---------------------------------------------------------------------
 Rotational constants (GHZ):           1.0442596           0.7858881           0.6280022
 Standard basis: 6-31G(2df,p) (6D, 7F)
 There are   462 symmetry adapted cartesian basis functions of A   symmetry.
 There are   423 symmetry adapted basis functions of A   symmetry.
   423 basis functions,   673 primitive gaussians,   462 cartesian basis functions
    51 alpha electrons       51 beta electrons
       nuclear repulsion energy       927.8420461542 Hartrees.
 NAtoms=   24 NActive=   24 NUniq=   24 SFac= 1.00D+00 NAtFMM=   60 NAOKFM=F Big=F
 Integral buffers will be    131072 words long.
 Raffenetti 2 integral format.
 Two-electron integral symmetry is turned on.
 One-electron integrals computed using PRISM.
 PrsmSu:  requested number of processors reduced to:  13 ShMem   1 Linda.
 NBasis=   423 RedAO= T EigKep=  2.36D-04  NBF=   423
 NBsUse=   423 1.00D-06 EigRej= -1.00D+00 NBFU=   423
 Initial guess from the checkpoint file:  "OdC1CdCC2dCCN2C2CCC1S2.chk"
 B after Tr=     0.000000    0.000000   -0.000000
         Rot=    0.999785   -0.010047   -0.010152   -0.015023 Ang=  -2.38 deg.
 ExpMin= 1.17D-01 ExpMax= 2.19D+04 ExpMxC= 3.30D+03 IAcc=2 IRadAn=         4 AccDes= 0.00D+00
 Harris functional with IExCor=  402 and IRadAn=       4 diagonalized for initial guess.
 HarFok:  IExCor=  402 AccDes= 0.00D+00 IRadAn=         4 IDoV= 1 UseB2=F ITyADJ=14
 ICtDFT=  3500011 ScaDFX=  1.000000  1.000000  1.000000  1.000000
 FoFCou: FMM=F IPFlag=           0 FMFlag=      100000 FMFlg1=           0
         NFxFlg=           0 DoJE=T BraDBF=F KetDBF=T FulRan=T
         wScrn=  0.000000 ICntrl=       500 IOpCl=  0 I1Cent=   200000004 NGrid=           0
         NMat0=    1 NMatS0=      1 NMatT0=    0 NMatD0=    1 NMtDS0=    0 NMtDT0=    0
 Petite list used in FoFCou.
 Requested convergence on RMS density matrix=1.00D-08 within 128 cycles.
 Requested convergence on MAX density matrix=1.00D-06.
 Requested convergence on             energy=1.00D-06.
 No special actions if energy rises.
 Integral accuracy reduced to 1.0D-05 until final iterations.
 Initial convergence to 1.0D-05 achieved.  Increase integral accuracy.
 SCF Done:  E(RB3LYP) =  -915.517554561     A.U. after   15 cycles
            NFock= 15  Conv=0.74D-08     -V/T= 2.0053
 PrsmSu:  requested number of processors reduced to:  13 ShMem   1 Linda.
 Calling FoFJK, ICntrl=      2127 FMM=F ISym2X=0 I1Cent= 0 IOpClX= 0 NMat=1 NMatS=1 NMatT=0.
 ***** Axes restored to original set *****
 -------------------------------------------------------------------
 Center     Atomic                   Forces (Hartrees/Bohr)
 Number     Number              X              Y              Z
 -------------------------------------------------------------------
      1        8           0.021228844    0.002580627    0.003670171
      2        6          -0.027264492   -0.010609431    0.002688915
      3        6          -0.002236254    0.008732561   -0.004151352
      4        6           0.027150016    0.009369189    0.004979141
      5        6          -0.076057190   -0.048468597   -0.004062635
      6        6           0.021228888   -0.004051684   -0.009943561
      7        6          -0.021846076    0.011196474    0.006067841
      8        7           0.035046029    0.037249441    0.007951479
      9        6           0.094652198    0.035617598   -0.008380247
     10        6           0.007208889    0.003903397   -0.001178562
     11        6           0.011734448   -0.004598219    0.001126665
     12        6           0.013259473   -0.006538760   -0.000553906
     13       16          -0.050804768    0.002223969    0.003042657
     14        1          -0.002498169   -0.004762796   -0.001802359
     15        1          -0.005231386   -0.005079952   -0.002731872
     16        1           0.007036973    0.005204533   -0.012515422
     17        1          -0.004512908   -0.003963212    0.002245950
     18        1          -0.007239519    0.002604039   -0.002452018
     19        1          -0.018518719   -0.029462941    0.012780900
     20        1          -0.005747267   -0.002492201    0.003355788
     21        1          -0.006499694    0.002305257   -0.002162744
     22        1          -0.003402852   -0.001163175    0.002239983
     23        1          -0.003126609   -0.001333254   -0.001683894
     24        1          -0.003559856    0.001537136    0.001469083
 -------------------------------------------------------------------
 Cartesian Forces:  Max     0.094652198 RMS     0.020281589

 GradGradGradGradGradGradGradGradGradGradGradGradGradGradGradGradGradGrad
 Berny optimization.
 Using GEDIIS/GDIIS optimizer.
 FormGI is forming the generalized inverse of G from B-inverse, IUseBI=4.
 Internal  Forces:  Max     0.046940395 RMS     0.008119354
 Search for a local minimum.
 Step number   2 out of a maximum of  144
 All quantities printed in internal units (Hartrees-Bohrs-Radians)
 Mixed Optimization -- RFO/linear search
 Update second derivatives using D2CorX and points    1    2
 DE= -6.28D-02 DEPred=-6.54D-02 R= 9.61D-01
 TightC=F SS=  1.41D+00  RLast= 5.26D-01 DXNew= 5.0454D-01 1.5781D+00
 Trust test= 9.61D-01 RLast= 5.26D-01 DXMaxT set to 5.05D-01
 ITU=  1  0
 Use linear search instead of GDIIS.
     Eigenvalues ---    0.00462   0.00650   0.01064   0.01322   0.01469
     Eigenvalues ---    0.01827   0.01889   0.02018   0.02329   0.02462
     Eigenvalues ---    0.02921   0.03268   0.03922   0.04190   0.04260
     Eigenvalues ---    0.04800   0.05027   0.05300   0.05424   0.05796
     Eigenvalues ---    0.06407   0.06464   0.07064   0.07755   0.08147
     Eigenvalues ---    0.08416   0.08861   0.09126   0.09982   0.11164
     Eigenvalues ---    0.13049   0.14603   0.15814   0.15990   0.16324
     Eigenvalues ---    0.17792   0.18662   0.21560   0.22827   0.23399
[...]
 ,-0.00549771,-0.21503080,0.01399778,-0.16545248,0.00008117,0.00475492,
 0.00305643,0.00558143,0.00616495,-0.00652792,-0.00151133,-0.00060890,-
 0.00297814,0.00032942,0.00032658,-0.00014680,-0.00010943,-0.00000212,-
 0.00015963,-0.00002596,0.00003544,-0.00002550,-0.00081850,-0.00015221,
 0.00047034,0.00008750,0.00003595,-0.00003774,0.00030827,0.00048409,0.0
 0001635,0.22046356,0.00001532,0.00000675,0.00005622,-0.00007040,-0.000
 06267,-0.00015387,-0.00009821,-0.00033818,0.00001637,0.00030318,0.0016
 6178,0.00045356,0.01101441,0.00719017,0.00936483,0.01368694,-0.0614346
 9,0.00900054,-0.00770178,0.00733364,-0.00542104,0.00105447,0.00052754,
 -0.00039409,-0.00011838,0.00127940,0.00066857,-0.00003447,0.00001751,0
 .00021984,0.00004899,0.00002012,-0.00001482,0.00003675,-0.00002496,-0.
 00000312,-0.00008716,-0.00003810,-0.00002770,-0.00001124,-0.00003725,0
 .00004611,-0.00009174,-0.00020107,-0.00021729,-0.01747511,0.04409029,0
 .00001866,-0.00001570,0.00018693,0.00002203,-0.00008196,-0.00041903,0.
 00002302,0.00019071,0.00020257,0.00139526,0.00003831,-0.00146330,0.000
 59530,-0.00685446,-0.00097094,-0.16809258,0.01479839,-0.16724912,-0.00
 142114,0.00622485,-0.00387120,-0.00855057,-0.00118394,0.00042583,-0.00
 119730,-0.00051215,0.00569173,-0.00004528,0.00019147,-0.00025469,-0.00
 006636,-0.00020635,0.00006630,0.00018978,-0.00002691,0.00010679,0.0010
 3849,0.00017646,-0.00073741,-0.00003399,0.00002470,0.00001422,-0.00044
 365,0.00008094,-0.00004713,0.17622802,-0.01282057,0.16888336,0.0000468
 5,-0.00005412,0.00021293,-0.00002819,-0.00026143,-0.00033399,0.0001567
 6,-0.00052906,0.00023910,-0.00040701,0.00048524,0.00105888,-0.00673038
 ,-0.00244880,-0.00501162,0.01179413,-0.01183243,-0.01391299,-0.1039817
 6,0.04867374,0.10151337,-0.01104977,0.01837367,0.01277662,0.00096842,-
 0.00137317,0.00208941,-0.00009947,0.00018988,0.00001286,0.00000716,0.0
 0007714,-0.00011428,-0.00000679,-0.00038619,-0.00021923,0.00095977,0.0
 0047781,-0.00110125,0.00006506,-0.00002907,0.00004237,-0.00000825,0.00
 010895,0.00008229,-0.00050476,0.00005635,0.00032737,0.11501059,0.00009
 712,0.00015682,0.00042614,-0.00040275,-0.00007573,-0.00084081,-0.00018
 923,-0.00014548,-0.00027765,-0.00185850,-0.00069329,0.00296778,0.00345
 742,0.00007654,0.00021003,0.00657383,-0.00754988,-0.01159504,0.0503944
 3,-0.08290615,-0.07719959,0.01098344,-0.01729755,-0.01657293,0.0008248
 5,0.00168145,-0.00181336,-0.00001435,-0.00014463,0.00028835,-0.0000143
 6,0.00017976,0.00011880,0.00040334,-0.00034992,0.00003480,-0.00098344,
 -0.00001019,0.00107049,0.00046690,-0.00015681,-0.00002485,0.00015729,0
 .00002773,-0.00009666,-0.00011412,0.00009876,-0.00004261,-0.05788953,0
 .09739904,0.00014853,-0.00004259,0.00024662,-0.00015615,-0.00023356,-0
 .00043099,-0.00005462,-0.00007624,-0.00012674,0.00018610,-0.00030144,0
 .00067882,-0.00484483,0.00069105,-0.00283354,0.00740832,-0.01007292,-0
 .01072438,0.10748584,-0.07875320,-0.20315989,-0.00736107,0.01049436,0.
 01038388,-0.00032414,-0.00076698,0.00168149,-0.00000153,0.00007722,-0.
 00009532,-0.00004143,-0.00003576,-0.00001284,-0.00033365,0.00010447,0.
 00044476,0.00102907,-0.00040360,-0.00027901,0.00000202,-0.00000305,0.0
 0004257,-0.00000216,0.00002749,0.00004960,-0.00031689,-0.00051802,-0.0
 0002797,-0.11106240,0.08674803,0.21489175,0.00013995,-0.00023490,0.000
 49963,-0.00030394,-0.00001241,-0.00116728,0.00020619,-0.00047130,0.000
 66133,0.00102151,0.00138742,0.00072264,-0.00127630,-0.00190982,-0.0031
 5976,-0.00469524,-0.00821725,0.00954224,-0.12323527,-0.09716796,0.0705
 3379,0.01142402,0.01368386,-0.01086974,0.00026529,0.00260837,0.0012640
 7,0.00004890,-0.00023119,-0.00009265,-0.00007246,-0.00008835,0.0000506
 2,0.00010263,0.00003811,-0.00000327,0.00001529,0.00023174,-0.00019142,
 0.00009673,0.00001764,0.00002730,-0.00013045,0.00034567,-0.00004543,-0
 .00026508,-0.00051131,-0.00021284,-0.00628299,-0.01128774,0.00804950,0
 .12345483,0.00010777,-0.00006470,0.00018340,-0.00003095,-0.00005646,-0
 .00034561,-0.00022989,0.00008780,-0.00024729,0.00122588,-0.00166720,-0
 .00148685,-0.00021180,-0.00227639,0.00061707,-0.00717137,-0.01109227,0
 .00591318,-0.09190219,-0.16711712,0.09218069,-0.00836889,-0.01375487,0
 .00977527,-0.00036547,-0.00169533,-0.00181182,-0.00022795,0.00020409,0
 .00014432,0.00000033,0.00007904,0.00000905,-0.00000694,-0.00007933,0.0
 0015016,0.00002697,-0.00020016,0.00021066,-0.00029768,-0.00001665,0.00
 017887,-0.00008073,-0.00037938,-0.00001003,-0.00024007,-0.00037514,-0.
 00013862,0.00612861,0.00981063,-0.00688817,0.10136932,0.18864036,0.000
 08125,-0.00000408,0.00035677,-0.00027193,-0.00011949,-0.00088623,0.000
 12489,-0.00028908,0.00051068,0.00142288,0.00025521,-0.00038719,-0.0009
 7368,-0.00212964,-0.00127206,-0.00748442,-0.01070485,0.01245475,0.0649
 0852,0.08807853,-0.11441740,0.00346847,0.00510540,-0.00399696,0.000626
 17,0.00199570,0.00095382,0.00012059,-0.00006416,0.00006768,-0.00005068
 ,0.00001310,0.00002370,0.00014618,-0.00011633,0.00025014,-0.00007074,-
 0.00012272,0.00008301,-0.00006231,0.00003224,0.00007743,-0.00021011,0.
 00017826,-0.00003960,-0.00001733,0.00015756,-0.00029738,0.01333157,0.0
 1683796,-0.01107223,-0.07458618,-0.09934158,0.11829782,-0.00078939,0.0
 0006345,-0.00095106,0.00157545,-0.00339057,0.00341278,-0.00165418,-0.0
 0265709,-0.00106616,-0.00141531,-0.00002586,-0.00159522,-0.00068928,0.
 00306801,-0.00108944,0.00008790,-0.00002902,-0.00009943,0.00203117,0.0
 0107202,-0.00174853,-0.00020439,0.00531578,-0.00305828,-0.04948631,0.0
 5918453,0.01335135,0.00014086,-0.02359107,-0.01548465,0.00060290,-0.00
 150354,-0.00099425,-0.00101573,0.00200551,0.00052718,-0.01540101,0.011
 52553,0.01540166,0.00042109,0.00006472,0.00004136,0.00014102,0.0001135
 1,0.00010513,-0.00008032,-0.00001147,0.00005717,0.00020546,-0.00040653
 ,0.00006729,-0.00045082,0.00011738,-0.00038743,0.06824216,0.00034691,-
 0.00078274,-0.00009195,-0.00181014,-0.00131984,0.00334619,-0.00597156,
 -0.00488005,-0.00369154,-0.00059450,-0.00008076,-0.00213387,-0.0017632
 7,0.00017548,-0.00096339,-0.00045206,-0.00030203,0.00004919,-0.0019706
 3,0.00232611,0.00038940,0.01027939,-0.02808446,0.01287454,0.05748205,-
 0.27633370,-0.06642386,-0.00115483,-0.01406199,-0.00909452,-0.00113647
 ,0.00112743,0.00288903,-0.00173845,0.00053977,0.00666593,0.00064952,-0
 .00051495,0.00006086,-0.00053092,-0.00060406,-0.00007438,-0.00024933,0
 .00009850,0.00013415,0.00012037,0.00028849,0.00010885,0.00025769,-0.00
 017173,-0.00002177,0.00036356,-0.00004721,0.00020753,-0.04991035,0.320
 90603,-0.00014410,0.00025197,-0.00105609,0.00168031,0.00324072,0.00251
 369,-0.00062414,-0.00254911,-0.00004330,-0.00187079,-0.00057301,-0.001
 17016,-0.00160190,0.00277384,-0.00200281,-0.00009050,0.00131005,0.0003
 8346,-0.00111572,0.00172776,-0.00395445,-0.01262014,0.03929550,-0.0110
 9541,0.01696923,-0.07433694,-0.05193825,-0.00303786,-0.01990171,-0.011
 79581,-0.00091334,-0.00221959,-0.00353860,0.00405479,0.00005653,-0.006
 46757,0.00692755,-0.00449198,-0.00694912,-0.00017772,-0.00027627,-0.00
 016103,-0.00007794,0.00027826,-0.00003285,0.00017628,-0.00042165,-0.00
 034412,0.00020099,-0.00021359,0.00024925,-0.00088583,0.00070223,-0.000
 55882,-0.00298722,0.05514294,0.09934168,0.00033472,-0.00003283,0.00011
 250,-0.00048928,0.00005484,-0.00019148,0.00001185,-0.00001951,0.000059
 34,0.00001703,0.00003311,0.00009538,0.00002076,0.00021134,-0.00010282,
 -0.00007706,0.00007393,-0.00003562,0.00015421,0.00022625,-0.00033113,0
 .00011939,-0.00013873,0.00033894,0.00182051,-0.02226372,-0.01099718,-0
 .05425640,0.03325392,0.02049508,-0.00073431,-0.00178774,-0.00137611,-0
 .00022770,-0.00105000,0.00035049,0.00166244,0.00005096,-0.00138760,-0.
 00005479,-0.00005271,0.00000930,-0.00005852,0.00000758,-0.00000881,-0.
 00004081,0.00002672,0.00002868,-0.00005187,0.00004826,0.00001820,-0.00
 008909,0.00011065,-0.00001691,-0.00277657,-0.00178893,-0.00319703,0.05
 602662,-0.00018384,0.00000038,-0.00024900,0.00002266,0.00011022,0.0004
 8049,-0.00007299,0.00001117,-0.00013968,0.00009431,-0.00007547,0.00005
 846,0.00001510,0.00013307,-0.00009073,-0.00004256,-0.00001067,-0.00001
 546,0.00004682,-0.00002285,-0.00018779,-0.00053278,0.00002676,-0.00034
 852,-0.00055373,-0.00170965,-0.00166162,0.03023925,-0.24439953,-0.1139
 8437,0.00383088,-0.01839583,-0.00991743,0.00123359,-0.00150747,0.00082
 614,-0.00002368,0.00107281,0.00033616,-0.00004108,0.00000096,0.0000112
 7,-0.00000660,0.00001008,0.00000054,-0.00000857,-0.00000097,0.00000123
 ,-0.00000246,-0.00002013,0.00001108,0.00000368,0.00005394,-0.00004376,
 -0.00071290,0.00101521,-0.00058592,-0.03167333,0.26397269,0.00013865,0
 .00001119,0.00034233,0.00010873,0.00040772,-0.00092423,-0.00008127,-0.
 00006531,0.00015121,0.00008314,0.00010904,0.00004783,0.00001785,0.0003
 4142,0.00000793,-0.00020574,0.00008701,-0.00012866,0.00018266,0.000037
 44,-0.00032006,-0.00038678,-0.00064271,0.00023365,0.00487767,-0.021370
 73,-0.01167350,0.01780254,-0.11540830,-0.11164583,-0.00216710,0.019419
 75,0.00832061,-0.00144426,0.00157724,-0.00100913,0.00131894,0.00069515
 ,0.00104834,-0.00007055,-0.00004562,-0.00000240,-0.00001359,-0.0000052
 1,0.00001497,-0.00004574,0.00004637,0.00001922,-0.00014912,0.00004999,
 0.00003674,-0.00008232,0.00015218,-0.00009896,-0.00395354,-0.00067726,
 -0.00206622,-0.01781864,0.12349769,0.12353631,0.00009677,-0.00042272,-
 0.00018069,0.00002227,0.00054524,0.00048650,-0.00004842,0.00008738,-0.
 00012245,0.00009714,-0.00013997,-0.00000507,-0.00016371,-0.00038606,-0
 .00039669,0.00032826,-0.00007797,0.00013141,-0.00016514,0.00010453,0.0
 0002113,0.00179945,0.00093270,0.00002956,-0.02129881,-0.00001517,0.010
 25369,-0.25692122,0.00259574,0.10273502,0.00046954,0.00156111,-0.00092
 006,-0.00065234,0.00152082,-0.00069278,-0.00450894,-0.00271078,-0.0010
 9273,-0.00003723,-0.00000993,-0.00002584,0.00001019,0.00002554,-0.0000
 2169,-0.00005673,-0.00001928,0.00010812,0.00002013,-0.00007297,0.00002
 157,0.00001535,0.00002830,-0.00004400,0.00101850,-0.00026504,0.0001029
 9,-0.00255225,0.00006066,0.00120281,0.28125116,0.00028591,-0.00025503,
 -0.00012983,-0.00046964,0.00052505,0.00063968,0.00003462,-0.00005604,-
 0.00011090,-0.00002522,-0.00002813,-0.00003571,-0.00000855,-0.00000685
 ,0.00002525,-0.00001094,-0.00001677,0.00004650,0.00010134,-0.00000902,
 -0.00005454,-0.00004630,0.00002582,-0.00024364,-0.00202977,-0.00099060
 ,0.00144837,0.00457194,-0.04768362,-0.00645878,-0.02074171,-0.00113768
 ,0.00894255,-0.00215830,-0.00254582,0.00225098,0.00050889,0.00008865,0
 .00103543,-0.00002186,-0.00000035,-0.00001690,-0.00001070,0.00000965,-
 0.00000528,0.00000871,-0.00000227,-0.00000841,-0.00002442,0.00000209,0
 .00000289,0.00000728,-0.00001684,0.00003154,-0.00023214,0.00031102,0.0
 0041128,0.02470565,0.00056205,-0.01093311,-0.00292901,0.05147783,-0.00
 006611,0.00002258,0.00000293,0.00016957,-0.00021588,-0.00010403,-0.000
 06492,0.00009197,0.00000180,0.00003936,-0.00002217,-0.00000230,-0.0001
 2506,-0.00040369,-0.00013812,0.00027296,-0.00008901,0.00016536,-0.0000
 9598,0.00011674,-0.00005977,0.00159590,0.00087777,0.00124511,-0.020650
 40,0.00045338,0.00918576,0.10352369,-0.00570131,-0.09683222,0.01516229
 ,-0.00068908,-0.00747145,0.00020878,0.00173882,-0.00184463,-0.00482598
 ,-0.00101577,0.00027140,-0.00000360,0.00001418,0.00001793,0.00000495,0
 .00001687,0.00000478,-0.00000049,-0.00002533,0.00005960,0.00001420,-0.
 00005658,0.00001660,0.00000071,-0.00002601,-0.00000275,0.00080529,0.00
 032654,0.00074683,0.01447572,0.00038771,-0.00626046,-0.11113286,0.0027
 3595,0.10033332,0.00126148,-0.00118510,0.00020896,-0.00530578,0.001786
 73,0.00018360,0.00067073,-0.00061315,-0.00096177,0.00001365,-0.0003434
 4,0.00008885,-0.00016681,-0.00011354,-0.00018259,0.00016118,-0.0000461
 4,0.00007650,0.00005840,0.00009660,-0.00008824,0.00026338,0.00033120,0
 .00034748,-0.00108404,-0.00034861,-0.00103576,0.00056009,0.00122353,0.
 00384516,-0.04562775,0.00366208,0.00264729,-0.00424857,-0.01338610,-0.
 02796530,0.00080702,0.00011537,0.00077018,-0.00009820,-0.00008278,-0.0
 0027660,-0.00010757,0.00010043,-0.00000936,-0.00002065,-0.00000554,0.0
 0006419,0.00000298,0.00001784,0.00000923,0.00002665,0.00000278,0.00001
 561,-0.00035654,0.00008378,-0.00003152,0.00089570,-0.00002104,-0.00032
 098,-0.00001452,-0.00040055,0.00026309,0.04982864,0.00010538,-0.000156
 54,-0.00023848,-0.00265474,0.00022773,0.00067757,0.00025700,-0.0002077
 8,-0.00059675,0.00006491,-0.00036045,0.00009053,-0.00011910,-0.0001559
 3,0.00000234,0.00028333,-0.00008167,0.00017530,-0.00003227,0.00022275,
 0.00012201,0.00147571,0.00053226,0.00074657,-0.00281606,-0.00378260,0.
 00246401,0.00126471,0.00481864,0.02582627,0.00205835,-0.06564893,-0.07
 480696,-0.00195853,-0.00697417,-0.01264317,0.00037699,0.00050988,0.000
 17081,-0.00005227,-0.00000162,-0.00018214,-0.00005865,0.00009455,-0.00
 002697,0.00005161,-0.00000512,0.00003902,0.00001266,0.00000132,0.00000
 251,0.00003404,-0.00001405,0.00001351,-0.00028215,-0.00003842,0.000046
 08,-0.00004001,0.00162040,-0.00025323,-0.00020181,-0.00100364,0.001427
 20,0.00239892,0.07567003,0.00011723,-0.00010135,-0.00009363,-0.0004209
 7,0.00046779,0.00093216,-0.00012185,-0.00018524,0.00013981,-0.00000037
 ,0.00006179,0.00007684,0.00016469,0.00018433,-0.00001412,-0.00016126,0
 .00006121,-0.00013194,0.00004798,-0.00022214,-0.00010688,-0.00101381,0
 .00013526,-0.00012402,0.00147970,0.00155841,-0.00213026,0.00056698,-0.
 00479572,-0.01433728,0.00054480,-0.07402555,-0.29657390,0.00080737,-0.
 00177575,-0.00459651,-0.00022157,0.00042102,0.00036517,-0.00000681,-0.
 00001354,-0.00003754,-0.00000075,-0.00002408,-0.00000624,-0.00004156,-
 0.00001280,-0.00001239,-0.00001191,0.00001039,0.00000362,-0.00001049,0
 .00003125,-0.00001600,0.00009453,0.00064722,0.00018977,-0.00014921,-0.
 00017982,0.00152925,-0.00028221,0.00112891,-0.00106279,-0.00138043,0.0
 7767230,0.31788702,0.00213851,-0.00154610,0.00122527,-0.00084517,0.004
 07794,-0.00084204,-0.00005350,-0.00038085,0.00037316,-0.00004629,0.000
 25307,0.00002369,0.00003898,0.00005282,0.00016206,0.00002800,0.0000172
 2,-0.00017166,-0.00013569,-0.00014580,0.00007302,0.00038211,0.00030424
 ,-0.00043339,-0.00181369,-0.00081713,0.00165691,0.00451579,-0.00634118
 ,0.00071306,-0.18314459,0.13019631,0.02661010,-0.02016453,0.01565005,0
 .00262267,-0.00429215,0.00000707,-0.00286187,-0.00001176,-0.00006347,-
 0.00002842,0.00001699,-0.00003602,0.00001345,0.00000532,-0.00000736,-0
 .00000274,-0.00003667,-0.00008493,-0.00000130,-0.00000153,-0.00000535,
 -0.00004409,-0.00003373,0.00004240,-0.00032625,0.00039046,-0.00137899,
 0.00077492,0.00114091,-0.00020883,-0.00029912,0.00081905,-0.00035503,-
 0.00009904,0.20158082,0.00018292,0.00041767,0.00015992,-0.00057241,0.0
 0073915,-0.00100281,-0.00023958,-0.00031127,0.00037774,0.00002147,0.00
 013571,0.00009850,-0.00012584,-0.00005662,0.00013690,0.00005619,0.0000
 1840,-0.00000209,-0.00011548,-0.00000742,-0.00000494,0.00044187,0.0005
 1030,0.00009140,-0.00106570,-0.00158778,0.00040338,0.01471271,-0.01652
 274,-0.00387730,0.12987446,-0.16544165,-0.02527214,-0.00914592,0.00889
 186,0.00179311,-0.00226450,0.00071438,-0.00110644,-0.00000678,0.000018
 90,-0.00005364,0.00005901,-0.00002088,-0.00000156,0.00003910,-0.000002
 80,-0.00001516,-0.00004217,-0.00003651,0.00000342,0.00000299,-0.000015
 24,-0.00001603,0.00031783,0.00025325,0.00024036,0.00006804,-0.00236792
 ,0.00291144,-0.00024830,0.00118683,-0.00027777,0.00649138,-0.00554632,
 -0.00102129,-0.13877435,0.17926891,0.00025288,-0.00020074,-0.00031053,
 -0.00081666,0.00030877,0.00036551,-0.00011146,0.00001322,0.00016388,-0
 .00006650,0.00014704,-0.00001825,0.00016887,0.00010905,-0.00012059,-0.
 00005544,0.00001316,-0.00012097,0.00003944,-0.00004405,0.00006115,-0.0
 0023060,-0.00070908,-0.00047407,0.00018598,0.00189025,0.00058624,-0.01
 349554,0.01358949,0.00209535,0.02803740,-0.02592435,-0.05461447,-0.006
 62034,0.00365810,0.00004414,-0.00132072,0.00055679,-0.00006927,0.00003
 625,0.00000985,0.00004349,-0.00000233,-0.00002672,0.00001122,-0.000035
 72,0.00000573,0.00002130,0.00001079,-0.00001829,-0.00000087,-0.0000121
 9,-0.00000149,-0.00000573,0.00006506,-0.00053028,-0.00022130,-0.000387
 77,0.00191597,-0.00128506,-0.00014256,-0.00041843,0.00146460,0.0237631
 5,-0.02051147,-0.00331951,-0.02921691,0.02617121,0.05575089,0.00013544
 ,0.00112373,-0.00045611,0.00064588,-0.00254823,-0.00019827,-0.00032079
 ,-0.00006314,-0.00004208,-0.00010993,0.00029246,-0.00005749,0.00030988
 ,0.00015308,0.00039654,-0.00014231,-0.00000602,0.00007065,0.00029869,-
 0.00030030,0.00015764,0.00149147,0.00043764,-0.00167485,-0.00305934,0.
 00216735,-0.00114366,-0.00373844,-0.00048195,-0.00103348,-0.00990923,-
 0.01424118,0.01993767,-0.07746925,-0.04238832,0.08434015,0.00469226,0.
 00776446,-0.01298388,0.00006442,-0.00005036,0.00001217,0.00001162,-0.0
 0005185,-0.00000718,0.00000976,0.00000033,-0.00002963,-0.00004940,-0.0
 0010625,0.00007448,-0.00001418,0.00002127,-0.00002633,-0.00011295,-0.0
 0028921,-0.00041015,-0.00004503,-0.00029242,0.00023171,0.00014964,-0.0
 0090639,0.00072802,0.00166146,0.00018702,0.00009897,-0.00047762,0.0003
 3307,-0.00004506,0.08597795,-0.00152331,0.00052433,0.00012118,0.008046
 56,0.00633353,-0.02005544,0.00000108,-0.00238694,-0.00039142,0.0000244
 9,-0.00019025,-0.00007328,-0.00069432,-0.00039278,-0.00052938,0.000336
 29,-0.00001448,0.00002276,-0.00040082,0.00038035,-0.00013851,-0.000934
 26,-0.00005339,0.00146113,0.00232008,-0.00243368,0.00158377,-0.0021788
 6,0.00022275,-0.00016811,-0.00500164,-0.00523258,0.00819054,-0.0435091
 1,-0.09460076,0.10066435,-0.00493094,-0.00803944,0.01212583,-0.0005736
 3,0.00004030,-0.00054236,-0.00000154,0.00014638,-0.00008366,0.00000773
 ,0.00000875,0.00003193,0.00003114,0.00012385,-0.00004523,0.00003857,-0
 .00000753,0.00004518,-0.00009561,0.00018063,0.00009226,-0.00002375,-0.
 00007923,0.00005787,0.00003699,-0.00043631,0.00031288,0.00023535,0.000
 27967,-0.00002261,-0.00045572,-0.00023824,-0.00000371,0.04924520,0.105
 86509,-0.00190447,0.00064886,0.00423500,0.00769865,0.00818465,-0.02335
 914,0.00031243,-0.00227633,-0.00014805,-0.00031524,0.00004897,-0.00022
 508,-0.00000623,-0.00013080,0.00002284,0.00005879,0.00002330,-0.000009
 98,0.00019802,-0.00003605,-0.00012967,0.00016282,0.00056359,0.00067342
 ,0.00005705,-0.00005579,-0.00214296,-0.00188580,-0.00067144,0.00042538
 ,-0.00417619,-0.00532401,0.00549535,0.08847567,0.09957060,-0.23231641,
 0.00025205,0.00161207,-0.00272573,-0.00039526,-0.00013935,-0.00060321,
 -0.00006048,0.00010382,-0.00008993,-0.00002126,-0.00000540,0.00001682,
 0.00000403,-0.00001079,0.00003807,-0.00003243,0.00004915,-0.00002448,-
 0.00051358,0.00086047,-0.00002875,0.00001666,-0.00012263,0.00012613,-0
 .00003315,-0.00028383,0.00026248,-0.00003075,-0.00021687,0.00143938,0.
 00007851,0.00026380,-0.00004715,-0.08793985,-0.10265598,0.24911570\\0.
 00002073,-0.00002377,0.00000894,-0.00002133,0.00005754,0.00001115,-0.0
 0001868,-0.00004594,-0.00002925,-0.00001353,0.00005120,0.00002008,-0.0
 0000861,-0.00006248,-0.00000879,0.00002492,0.00004740,0.00002306,-0.00
 001737,-0.00003363,-0.00005399,0.00005843,0.00000981,0.00003899,-0.000
 03280,-0.00006641,-0.00001990,-0.00000513,-0.00007990,0.00002246,0.000
 00774,0.00003553,-0.00004377,0.00002951,0.00000771,0.00000338,0.000012
 53,0.00001951,-0.00001430,0.00000736,0.00000732,0.00000591,0.00000403,
 -0.00000412,-0.00000702,-0.00000626,-0.00000182,-0.00000058,-0.0000068
 5,-0.00001163,0.00000784,0.00000007,0.00000425,0.00001411,-0.00004578,
 0.00005573,0.00002235,0.00000762,0.00001322,0.00000882,0.00000553,0.00
 002070,0.00001016,-0.00000730,0.00000036,-0.00000512,0.00000654,0.0000
 0249,-0.00000621,-0.00000139,-0.00000307,-0.00000832\\\@


 Statistics are no substitute for judgment.
                            -- Henry Clay
 Job cpu time:       0 days  5 hours 36 minutes  0.4 seconds.
 Elapsed time:       0 days  1 hours 24 minutes  1.3 seconds.
 File lengths (MBytes):  RWF=    336 Int=      0 D2E=      0 Chk=     16 Scr=      1
 Normal termination of Gaussian 16 at Sun May 28 07:44:39 2023.
### All Done ###
