### Starting Gaussian ###
 Entering Gaussian System, Link 0=g16
 Initial command:
 /cluster/software/gaussian/gaussian-16-A.03/avx2/g16/l1.exe "/local/scratch/cz9n3/Gau-12199.inp" -scrdir="/local/scratch/cz9n3/"
 Entering Link 1 = /cluster/software/gaussian/gaussian-16-A.03/avx2/g16/l1.exe PID=     12200.
  
 Copyright (c) 1988,1990,1992,1993,1995,1998,2003,2009,2016,
            Gaussian, Inc.  All Rights Reserved.
  
 This is part of the Gaussian(R) 16 program.  It is based on
 the Gaussian(R) 09 system (copyright 2009, Gaussian, Inc.),
 the Gaussian(R) 03 system (copyright 2003, Gaussian, Inc.),
 the Gaussian(R) 98 system (copyright 1998, Gaussian, Inc.),
 the Gaussian(R) 94 system (copyright 1995, Gaussian, Inc.),
 the Gaussian 92(TM) system (copyright 1992, Gaussian, Inc.),
 the Gaussian 90(TM) system (copyright 1990, Gaussian, Inc.),
 the Gaussian 88(TM) system (copyright 1988, Gaussian, Inc.),
 the Gaussian 86(TM) system (copyright 1986, Carnegie Mellon
 University), and the Gaussian 82(TM) system (copyright 1983,
 Carnegie Mellon University). Gaussian is a federally registered
 trademark of Gaussian, Inc.
  
 This software contains proprietary and confidential information,
 including trade secrets, belonging to Gaussian, Inc.
  
 This software is provided under written license and may be
 used, copied, transmitted, or stored only in accord with that
 written license.
  
 The following legend is applicable only to US Government
 contracts under FAR:
  
                    RESTRICTED RIGHTS LEGEND
  
 Use, reproduction and disclosure by the US Government is
 subject to restrictions as set forth in subparagraphs (a)
 and (c) of the Commercial Computer Software - Restricted
 Rights clause in FAR 52.227-19.
  
 Gaussian, Inc.
 340 Quinnipiac St., Bldg. 40, Wallingford CT 06492
  
  
 ---------------------------------------------------------------
 Warning -- This program may not be used in any manner that
 competes with the business of Gaussian, Inc. or will provide
 assistance to any competitor of Gaussian, Inc.  The licensee
 of this program is prohibited from giving any competitor of
 Gaussian, Inc. access to this program.  By using this program,
 the user acknowledges that Gaussian, Inc. is engaged in the
 business of creating and licensing software in the field of
 computational chemistry and represents and warrants to the
 licensee that it is not a competitor of Gaussian, Inc. and that
 it will not use this program in any manner prohibited above.
 ---------------------------------------------------------------
  

 Cite this work as:
 Gaussian 16, Revision A.03,
 M. J. Frisch, G. W. Trucks, H. B. Schlegel, G. E. Scuseria, 
 M. A. Robb, J. R. Cheeseman, G. Scalmani, V. Barone, 
 G. A. Petersson, H. Nakatsuji, X. Li, M. Caricato, A. V. Marenich, 
 J. Bloino, B. G. Janesko, R. Gomperts, B. Mennucci, H. P. Hratchian, 
 J. V. Ortiz, A. F. Izmaylov, J. L. Sonnenberg, D. Williams-Young, 
 F. Ding, F. Lipparini, F. Egidi, J. Goings, B. Peng, A. Petrone, 
 T. Henderson, D. Ranasinghe, V. G. Zakrzewski, J. Gao, N. Rega, 
 G. Zheng, W. Liang, M. Hada, M. Ehara, K. Toyota, R. Fukuda, 
 J. Hasegawa, M. Ishida, T. Nakajima, Y. Honda, O. Kitao, H. Nakai, 
 T. Vreven, K. Throssell, J. A. Montgomery, Jr., J. E. Peralta, 
 F. Ogliaro, M. J. Bearpark, J. J. Heyd, E. N. Brothers, K. N. Kudin, 
 V. N. Staroverov, T. A. Keith, R. Kobayashi, J. Normand, 
 K. Raghavachari, A. P. Rendell, J. C. Burant, S. S. Iyengar, 
 J. Tomasi, M. Cossi, J. M. Millam, M. Klene, C. Adamo, R. Cammi, 
 J. W. Ochterski, R. L. Martin, K. Morokuma, O. Farkas, 
 J. B. Foresman, and D. J. Fox, Gaussian, Inc., Wallingford CT, 2016.
 
 ******************************************
 Gaussian 16:  ES64L-G16RevA.03 25-Dec-2016
                28-May-2023 
 ******************************************
 %chk=OdCqOrC1CqdOrCCCdC1CO.chk
 %NProcShared=20
 Will use up to   20 processors via shared memory.
 -----------------------------
 # opt freq b3lyp/6-31g(2df,p)
 -----------------------------
 1/18=20,19=15,26=3,38=1/1,3;
 2/9=110,12=2,17=6,18=5,40=1/2;
 3/5=1,6=6,7=104,11=2,25=1,30=1,71=1,74=-5/1,2,3;
 4//1;
 5/5=2,38=5/2;
 6/7=2,8=2,9=2,10=2,28=1/1;
 7//1,2,3,16;
 1/18=20,19=15,26=3/3(2);
 2/9=110/2;
 99//99;
 2/9=110/2;
 3/5=1,6=6,7=104,11=2,25=1,30=1,71=1,74=-5/1,2,3;
 4/5=5,16=3,69=1/1;
 5/5=2,38=5/2;
 7//1,2,3,16;
 1/18=20,19=15,26=3/3(-5);
 2/9=110/2;
 6/7=2,8=2,9=2,10=2,19=2,28=1/1;
 99/9=1/99;
 -------------------
 Title Card Required
 -------------------
 Symbolic Z-matrix:
 Charge =  0 Multiplicity = 1
 O                     1.01735  -0.00122  -0.00341 
 C                     2.24261  -0.03452   0.02716 
 O                     2.91713  -1.13575   0.43639 
 C                     3.14523   1.12469  -0.3777 
 C                     3.23214   2.07008   0.79736 
 O                     3.5209    1.62366   1.91511 
 C                     3.02146   3.54827   0.63118 
 C                     2.72607   4.07301  -0.76003 
 C                     2.59701   3.07026  -1.8488 
 C                     2.74149   1.74276  -1.69962 
 C                     2.61651   0.76032  -2.84359 
 O                     2.35536   1.41697  -4.0732 
 H                     3.88085  -1.01021   0.54608 
 H                     4.16601   0.75142  -0.53438 
 H                     3.93129   4.03302   1.00382 
 H                     2.1959    3.82756   1.29539 
 H                     3.50648   4.79033  -1.04278 
 H                     1.79174   4.64644  -0.72358 
 H                     2.39093   3.4988   -2.82944 
 H                     1.80762   0.04545  -2.66517 
 H                     3.55298   0.20505  -2.95557 
 H                     1.5072    1.88082  -3.96387 
 

 GradGradGradGradGradGradGradGradGradGradGradGradGradGradGradGradGradGrad
 Berny optimization.
 Initialization pass.
                           ----------------------------
                           !    Initial Parameters    !
                           ! (Angstroms and Degrees)  !
 --------------------------                            --------------------------
 ! Name  Definition              Value          Derivative Info.                !
 --------------------------------------------------------------------------------
 ! R1    R(1,2)                  1.2261         estimate D2E/DX2                !
 ! R2    R(2,3)                  1.3547         estimate D2E/DX2                !
 ! R3    R(2,4)                  1.5239         estimate D2E/DX2                !
 ! R4    R(3,13)                 0.978          estimate D2E/DX2                !
 ! R5    R(4,5)                  1.5107         estimate D2E/DX2                !
 ! R6    R(4,10)                 1.5141         estimate D2E/DX2                !
 ! R7    R(4,14)                 1.0981         estimate D2E/DX2                !
 ! R8    R(5,6)                  1.2378         estimate D2E/DX2                !
 ! R9    R(5,7)                  1.5023         estimate D2E/DX2                !
 ! R10   R(7,8)                  1.5159         estimate D2E/DX2                !
 ! R11   R(7,15)                 1.0962         estimate D2E/DX2                !
 ! R12   R(7,16)                 1.0958         estimate D2E/DX2                !
 ! R13   R(8,9)                  1.4858         estimate D2E/DX2                !
 ! R14   R(8,17)                 1.0971         estimate D2E/DX2                !
 ! R15   R(8,18)                 1.0969         estimate D2E/DX2                !
 ! R16   R(9,10)                 1.3436         estimate D2E/DX2                !
 ! R17   R(9,19)                 1.0898         estimate D2E/DX2                !
 ! R18   R(10,11)                1.5131         estimate D2E/DX2                !
 ! R19   R(11,12)                1.4182         estimate D2E/DX2                !
 ! R20   R(11,20)                1.0942         estimate D2E/DX2                !
 ! R21   R(11,21)                1.0945         estimate D2E/DX2                !
 ! R22   R(12,22)                0.9729         estimate D2E/DX2                !
 ! A1    A(1,2,3)              121.8158         estimate D2E/DX2                !
 ! A2    A(1,2,4)              124.375          estimate D2E/DX2                !
 ! A3    A(3,2,4)              113.8092         estimate D2E/DX2                !
 ! A4    A(2,3,13)             114.8452         estimate D2E/DX2                !
 ! A5    A(2,4,5)              107.6657         estimate D2E/DX2                !
 ! A6    A(2,4,10)             112.614          estimate D2E/DX2                !
 ! A7    A(2,4,14)             109.2639         estimate D2E/DX2                !
 ! A8    A(5,4,10)             116.0399         estimate D2E/DX2                !
 ! A9    A(5,4,14)             105.6779         estimate D2E/DX2                !
 ! A10   A(10,4,14)            105.1924         estimate D2E/DX2                !
 ! A11   A(4,5,6)              119.3499         estimate D2E/DX2                !
 ! A12   A(4,5,7)              121.4425         estimate D2E/DX2                !
 ! A13   A(6,5,7)              119.1747         estimate D2E/DX2                !
 ! A14   A(5,7,8)              117.9967         estimate D2E/DX2                !
 ! A15   A(5,7,15)             106.3263         estimate D2E/DX2                !
 ! A16   A(5,7,16)             106.8211         estimate D2E/DX2                !
 ! A17   A(8,7,15)             108.7009         estimate D2E/DX2                !
 ! A18   A(8,7,16)             108.7385         estimate D2E/DX2                !
 ! A19   A(15,7,16)            107.8515         estimate D2E/DX2                !
 ! A20   A(7,8,9)              117.1169         estimate D2E/DX2                !
 ! A21   A(7,8,17)             108.9199         estimate D2E/DX2                !
 ! A22   A(7,8,18)             108.4482         estimate D2E/DX2                !
 ! A23   A(9,8,17)             108.3131         estimate D2E/DX2                !
 ! A24   A(9,8,18)             107.649          estimate D2E/DX2                !
 ! A25   A(17,8,18)            105.8243         estimate D2E/DX2                !
 ! A26   A(8,9,10)             125.1755         estimate D2E/DX2                !
 ! A27   A(8,9,19)             114.2305         estimate D2E/DX2                !
 ! A28   A(10,9,19)            120.5785         estimate D2E/DX2                !
 ! A29   A(4,10,9)             121.932          estimate D2E/DX2                !
 ! A30   A(4,10,11)            114.6492         estimate D2E/DX2                !
 ! A31   A(9,10,11)            123.2754         estimate D2E/DX2                !
 ! A32   A(10,11,12)           111.7206         estimate D2E/DX2                !
 ! A33   A(10,11,20)           111.2227         estimate D2E/DX2                !
 ! A34   A(10,11,21)           109.6391         estimate D2E/DX2                !
 ! A35   A(12,11,20)           107.9243         estimate D2E/DX2                !
 ! A36   A(12,11,21)           107.6834         estimate D2E/DX2                !
 ! A37   A(20,11,21)           108.5283         estimate D2E/DX2                !
 ! A38   A(11,12,22)           106.4906         estimate D2E/DX2                !
 ! D1    D(1,2,3,13)          -171.4335         estimate D2E/DX2                !
 ! D2    D(4,2,3,13)             8.5061         estimate D2E/DX2                !
 ! D3    D(1,2,4,5)             81.8531         estimate D2E/DX2                !
 ! D4    D(1,2,4,10)           -47.3268         estimate D2E/DX2                !
 ! D5    D(1,2,4,14)          -163.8334         estimate D2E/DX2                !
 ! D6    D(3,2,4,5)            -98.0848         estimate D2E/DX2                !
 ! D7    D(3,2,4,10)           132.7354         estimate D2E/DX2                !
 ! D8    D(3,2,4,14)            16.2287         estimate D2E/DX2                !
 ! D9    D(2,4,5,6)             50.8094         estimate D2E/DX2                !
 ! D10   D(2,4,5,7)           -131.293          estimate D2E/DX2                !
 ! D11   D(10,4,5,6)           178.0204         estimate D2E/DX2                !
 ! D12   D(10,4,5,7)            -4.082          estimate D2E/DX2                !
 ! D13   D(14,4,5,6)           -65.8711         estimate D2E/DX2                !
 ! D14   D(14,4,5,7)           112.0265         estimate D2E/DX2                !
 ! D15   D(2,4,10,9)           130.998          estimate D2E/DX2                !
 ! D16   D(2,4,10,11)          -53.2216         estimate D2E/DX2                !
 ! D17   D(5,4,10,9)             6.2897         estimate D2E/DX2                !
 ! D18   D(5,4,10,11)         -177.93           estimate D2E/DX2                !
 ! D19   D(14,4,10,9)         -110.0908         estimate D2E/DX2                !
 ! D20   D(14,4,10,11)          65.6896         estimate D2E/DX2                !
 ! D21   D(4,5,7,8)             -0.4125         estimate D2E/DX2                !
 ! D22   D(4,5,7,15)          -122.6959         estimate D2E/DX2                !
 ! D23   D(4,5,7,16)           122.3265         estimate D2E/DX2                !
 ! D24   D(6,5,7,8)            177.4887         estimate D2E/DX2                !
 ! D25   D(6,5,7,15)            55.2053         estimate D2E/DX2                !
 ! D26   D(6,5,7,16)           -59.7723         estimate D2E/DX2                !
 ! D27   D(5,7,8,9)              3.0996         estimate D2E/DX2                !
 ! D28   D(5,7,8,17)          -120.1786         estimate D2E/DX2                !
 ! D29   D(5,7,8,18)           125.099          estimate D2E/DX2                !
 ! D30   D(15,7,8,9)           124.1684         estimate D2E/DX2                !
 ! D31   D(15,7,8,17)            0.8902         estimate D2E/DX2                !
 ! D32   D(15,7,8,18)         -113.8321         estimate D2E/DX2                !
 ! D33   D(16,7,8,9)          -118.6649         estimate D2E/DX2                !
 ! D34   D(16,7,8,17)          118.057          estimate D2E/DX2                !
 ! D35   D(16,7,8,18)            3.3346         estimate D2E/DX2                !
 ! D36   D(7,8,9,10)            -1.0727         estimate D2E/DX2                !
 ! D37   D(7,8,9,19)          -179.6396         estimate D2E/DX2                !
 ! D38   D(17,8,9,10)          122.5151         estimate D2E/DX2                !
 ! D39   D(17,8,9,19)          -56.0518         estimate D2E/DX2                !
 ! D40   D(18,8,9,10)         -123.4856         estimate D2E/DX2                !
 ! D41   D(18,8,9,19)           57.9475         estimate D2E/DX2                !
 ! D42   D(8,9,10,4)            -3.8451         estimate D2E/DX2                !
 ! D43   D(8,9,10,11)         -179.2571         estimate D2E/DX2                !
 ! D44   D(19,9,10,4)          174.6369         estimate D2E/DX2                !
 ! D45   D(19,9,10,11)          -0.775          estimate D2E/DX2                !
 ! D46   D(4,10,11,12)        -174.6938         estimate D2E/DX2                !
 ! D47   D(4,10,11,20)          64.637          estimate D2E/DX2                !
 ! D48   D(4,10,11,21)         -55.3976         estimate D2E/DX2                !
 ! D49   D(9,10,11,12)           1.0226         estimate D2E/DX2                !
 ! D50   D(9,10,11,20)        -119.6465         estimate D2E/DX2                !
 ! D51   D(9,10,11,21)         120.3189         estimate D2E/DX2                !
 ! D52   D(10,11,12,22)        -61.3149         estimate D2E/DX2                !
 ! D53   D(20,11,12,22)         61.2593         estimate D2E/DX2                !
 ! D54   D(21,11,12,22)        178.2388         estimate D2E/DX2                !
 --------------------------------------------------------------------------------
 Trust Radius=3.00D-01 FncErr=1.00D-07 GrdErr=1.00D-06 EigMax=2.50D+02 EigMin=1.00D-04
 Number of steps in this run=    124 maximum allowed number of steps=    132.
 GradGradGradGradGradGradGradGradGradGradGradGradGradGradGradGradGradGrad

                          Input orientation:                          
 ---------------------------------------------------------------------
 Center     Atomic      Atomic             Coordinates (Angstroms)
 Number     Number       Type             X           Y           Z
 ---------------------------------------------------------------------
      1          8           0        1.017350   -0.001220   -0.003410
      2          6           0        2.242610   -0.034520    0.027160
      3          8           0        2.917130   -1.135750    0.436390
      4          6           0        3.145230    1.124690   -0.377700
      5          6           0        3.232140    2.070080    0.797360
      6          8           0        3.520900    1.623660    1.915110
      7          6           0        3.021460    3.548270    0.631180
      8          6           0        2.726070    4.073010   -0.760030
      9          6           0        2.597010    3.070260   -1.848800
     10          6           0        2.741490    1.742760   -1.699620
     11          6           0        2.616510    0.760320   -2.843590
     12          8           0        2.355360    1.416970   -4.073200
     13          1           0        3.880850   -1.010210    0.546080
     14          1           0        4.166010    0.751420   -0.534380
     15          1           0        3.931290    4.033020    1.003820
     16          1           0        2.195900    3.827560    1.295390
     17          1           0        3.506480    4.790330   -1.042780
     18          1           0        1.791740    4.646440   -0.723580
     19          1           0        2.390930    3.498800   -2.829440
     20          1           0        1.807620    0.045450   -2.665170
     21          1           0        3.552980    0.205050   -2.955570
     22          1           0        1.507200    1.880820   -3.963870
 ---------------------------------------------------------------------
                    Distance matrix (angstroms):
                    1          2          3          4          5
     1  O    0.000000
     2  C    1.226094   0.000000
     3  O    2.256047   1.354679   0.000000
     4  C    2.436317   1.523943   2.413371   0.000000
     5  C    3.136369   2.449841   3.241431   1.510656   0.000000
     6  O    3.548058   2.819209   3.188337   2.376358   1.237755
     7  C    4.125293   3.715889   4.689229   2.628098   1.502347
     8  C    4.482360   4.210131   5.347813   3.002409   2.587141
     9  C    3.915965   3.644789   4.797405   2.499985   2.899295
    10  C    2.981820   2.527721   3.588761   1.514097   2.565694
    11  C    3.347219   3.002129   3.800490   2.548122   3.918034
    12  O    4.512729   4.351148   5.212328   3.790256   4.991758
    13  H    3.085390   1.976127   0.978033   2.439734   3.157872
    14  H    3.280618   2.152323   2.462419   1.098122   2.093922
    15  H    5.077465   4.511140   5.297800   3.314343   2.093936
    16  H    4.211344   4.065249   5.088467   3.317524   2.100134
    17  H    5.498637   5.101109   6.136261   3.742960   3.295624
    18  H    4.766452   4.762172   6.003812   3.788706   3.320488
    19  H    4.703542   4.546044   5.693996   3.495196   3.987801
    20  H    2.776990   2.728416   3.499417   2.861202   4.256465
    21  H    3.897078   3.266671   3.702356   2.767203   4.203065
    22  H    4.412173   4.487502   5.518141   4.014410   5.067598
                    6          7          8          9         10
     6  O    0.000000
     7  C    2.366863   0.000000
     8  C    3.713145   1.515940   0.000000
     9  C    4.136816   2.561045   1.485794   0.000000
    10  C    3.699721   2.961567   2.512595   1.343646   0.000000
    11  C    4.920214   4.473329   3.914989   2.515116   1.513101
    12  O    6.104184   5.207429   4.262519   2.782035   2.426750
    13  H    2.990164   4.639562   5.373878   4.902441   3.730972
    14  H    2.678987   3.238965   3.627300   3.092973   2.090406
    15  H    2.608426   1.096191   2.136661   3.293122   3.737580
    16  H    2.645157   1.095777   2.136838   3.258884   3.689735
    17  H    4.333257   2.140117   1.097058   2.106050   3.210036
    18  H    4.369197   2.133908   1.096870   2.097361   3.207185
    19  H    5.225298   3.517941   2.173590   1.089849   2.117324
    20  H    5.138583   4.960754   4.549104   3.230955   2.164546
    21  H    5.073165   4.931978   4.523858   3.216869   2.144873
    22  H    6.219608   5.117407   4.068898   2.660070   2.582510
                   11         12         13         14         15
    11  C    0.000000
    12  O    1.418213   0.000000
    13  H    4.027803   5.436549   0.000000
    14  H    2.780914   4.030466   2.086157   0.000000
    15  H    5.219365   5.924813   5.064212   3.631811   0.000000
    16  H    5.168755   5.887116   5.177310   4.085588   1.771667
    17  H    4.502882   4.678470   6.025852   4.123863   2.223185
    18  H    4.502956   4.686907   6.162313   4.565538   2.817422
    19  H    2.747792   2.425329   5.826248   3.995786   4.165571
    20  H    1.094155   2.040499   3.965454   3.255866   5.819981
    21  H    1.094459   2.037680   3.721009   2.556655   5.520257
    22  H    1.934197   0.972875   5.859344   4.483996   5.931789
                   16         17         18         19         20
    16  H    0.000000
    17  H    2.848084   0.000000
    18  H    2.215886   1.750122   0.000000
    19  H    4.142504   2.470760   2.471994   0.000000
    20  H    5.490096   5.294541   4.993910   3.506118   0.000000
    21  H    5.747600   4.968473   5.273489   3.495005   1.776538
    22  H    5.650126   4.582045   4.269555   2.164664   2.268360
                   21         22
    21  H    0.000000
    22  H    2.830210   0.000000
 Stoichiometry    C8H10O4
 Framework group  C1[X(C8H10O4)]
 Deg. of freedom    60
 Full point group                 C1      NOp   1
 Largest Abelian subgroup         C1      NOp   1
 Largest concise Abelian subgroup C1      NOp   1
                         Standard orientation:                         
 ---------------------------------------------------------------------
 Center     Atomic      Atomic             Coordinates (Angstroms)
 Number     Number       Type             X           Y           Z
 ---------------------------------------------------------------------
      1          8           0        0.749660   -1.608970    1.539983
      2          6           0        0.941290   -1.446992    0.339839
      3          8           0        1.637879   -2.343250   -0.399514
      4          6           0        0.437842   -0.250203   -0.458056
      5          6           0        1.409341    0.886275   -0.241978
      6          8           0        2.619731    0.690120   -0.410847
      7          6           0        0.935198    2.262874    0.128443
      8          6           0       -0.557223    2.486842    0.271940
      9          6           0       -1.439030    1.303005    0.103034
     10          6           0       -1.018954    0.059828   -0.185813
     11          6           0       -1.957873   -1.113181   -0.364573
     12          8           0       -3.314227   -0.727636   -0.212956
     13          1           0        1.842599   -2.053424   -1.310908
     14          1           0        0.487070   -0.482901   -1.530110
     15          1           0        1.319470    2.939327   -0.643813
     16          1           0        1.422681    2.522156    1.074942
     17          1           0       -0.871957    3.256075   -0.444131
     18          1           0       -0.751146    2.906766    1.266516
     19          1           0       -2.502079    1.518266    0.209609
     20          1           0       -1.748729   -1.902490    0.363730
     21          1           0       -1.840672   -1.528187   -1.370493
     22          1           0       -3.405131   -0.388388    0.694311
 ---------------------------------------------------------------------
 Rotational constants (GHZ):           1.0979773           0.8923427           0.5593409
 Standard basis: 6-31G(2df,p) (6D, 7F)
 There are   422 symmetry adapted cartesian basis functions of A   symmetry.
 There are   386 symmetry adapted basis functions of A   symmetry.
   386 basis functions,   598 primitive gaussians,   422 cartesian basis functions
    45 alpha electrons       45 beta electrons
       nuclear repulsion energy       722.0824930773 Hartrees.
 NAtoms=   22 NActive=   22 NUniq=   22 SFac= 1.00D+00 NAtFMM=   60 NAOKFM=F Big=F
 Integral buffers will be    131072 words long.
 Raffenetti 2 integral format.
 Two-electron integral symmetry is turned on.
 One-electron integrals computed using PRISM.
 PrsmSu:  requested number of processors reduced to:  13 ShMem   1 Linda.
 NBasis=   386 RedAO= T EigKep=  2.81D-04  NBF=   386
 NBsUse=   386 1.00D-06 EigRej= -1.00D+00 NBFU=   386
 ExpMin= 1.61D-01 ExpMax= 5.48D+03 ExpMxC= 8.25D+02 IAcc=3 IRadAn=         5 AccDes= 0.00D+00
 Harris functional with IExCor=  402 and IRadAn=       5 diagonalized for initial guess.
 HarFok:  IExCor=  402 AccDes= 0.00D+00 IRadAn=         5 IDoV= 1 UseB2=F ITyADJ=14
 ICtDFT=  3500011 ScaDFX=  1.000000  1.000000  1.000000  1.000000
 FoFCou: FMM=F IPFlag=           0 FMFlag=      100000 FMFlg1=           0
         NFxFlg=           0 DoJE=T BraDBF=F KetDBF=T FulRan=T
         wScrn=  0.000000 ICntrl=       500 IOpCl=  0 I1Cent=   200000004 NGrid=           0
         NMat0=    1 NMatS0=      1 NMatT0=    0 NMatD0=    1 NMtDS0=    0 NMtDT0=    0
 Petite list used in FoFCou.
 Requested convergence on RMS density matrix=1.00D-08 within 128 cycles.
 Requested convergence on MAX density matrix=1.00D-06.
 Requested convergence on             energy=1.00D-06.
 No special actions if energy rises.
 Integral accuracy reduced to 1.0D-05 until final iterations.
 Initial convergence to 1.0D-05 achieved.  Increase integral accuracy.
 SCF Done:  E(RB3LYP) =  -611.776271072     A.U. after   14 cycles
            NFock= 14  Conv=0.45D-08     -V/T= 2.0071

 **********************************************************************

            Population analysis using the SCF density.

 **********************************************************************

 Orbital symmetries:
       Occupied  (A) (A) (A) (A) (A) (A) (A) (A) (A) (A) (A) (A)
                 (A) (A) (A) (A) (A) (A) (A) (A) (A) (A) (A) (A)
                 (A) (A) (A) (A) (A) (A) (A) (A) (A) (A) (A) (A)
                 (A) (A) (A) (A) (A) (A) (A) (A) (A)
       Virtual   (A) (A) (A) (A) (A) (A) (A) (A) (A) (A) (A) (A)
                 (A) (A) (A) (A) (A) (A) (A) (A) (A) (A) (A) (A)
                 (A) (A) (A) (A) (A) (A) (A) (A) (A) (A) (A) (A)
                 (A) (A) (A) (A) (A) (A) (A) (A) (A) (A) (A) (A)
                 (A) (A) (A) (A) (A) (A) (A) (A) (A) (A) (A) (A)
                 (A) (A) (A) (A) (A) (A) (A) (A) (A) (A) (A) (A)
                 (A) (A) (A) (A) (A) (A) (A) (A) (A) (A) (A) (A)
                 (A) (A) (A) (A) (A) (A) (A) (A) (A) (A) (A) (A)
                 (A) (A) (A) (A) (A) (A) (A) (A) (A) (A) (A) (A)
                 (A) (A) (A) (A) (A) (A) (A) (A) (A) (A) (A) (A)
                 (A) (A) (A) (A) (A) (A) (A) (A) (A) (A) (A) (A)
                 (A) (A) (A) (A) (A) (A) (A) (A) (A) (A) (A) (A)
                 (A) (A) (A) (A) (A) (A) (A) (A) (A) (A) (A) (A)
                 (A) (A) (A) (A) (A) (A) (A) (A) (A) (A) (A) (A)
                 (A) (A) (A) (A) (A) (A) (A) (A) (A) (A) (A) (A)
                 (A) (A) (A) (A) (A) (A) (A) (A) (A) (A) (A) (A)
                 (A) (A) (A) (A) (A) (A) (A) (A) (A) (A) (A) (A)
                 (A) (A) (A) (A) (A) (A) (A) (A) (A) (A) (A) (A)
                 (A) (A) (A) (A) (A) (A) (A) (A) (A) (A) (A) (A)
                 (A) (A) (A) (A) (A) (A) (A) (A) (A) (A) (A) (A)
                 (A) (A) (A) (A) (A) (A) (A) (A) (A) (A) (A) (A)
                 (A) (A) (A) (A) (A) (A) (A) (A) (A) (A) (A) (A)
                 (A) (A) (A) (A) (A) (A) (A) (A) (A) (A) (A) (A)
                 (A) (A) (A) (A) (A) (A) (A) (A) (A) (A) (A) (A)
                 (A) (A) (A) (A) (A) (A) (A) (A) (A) (A) (A) (A)
                 (A) (A) (A) (A) (A) (A) (A) (A) (A) (A) (A) (A)
                 (A) (A) (A) (A) (A) (A) (A) (A) (A) (A) (A) (A)
                 (A) (A) (A) (A) (A) (A) (A) (A) (A) (A) (A) (A)
                 (A) (A) (A) (A) (A)
 The electronic state is 1-A.
 Alpha  occ. eigenvalues --  -19.19438 -19.14489 -19.14357 -19.13438 -10.32609
 Alpha  occ. eigenvalues --  -10.29283 -10.24157 -10.22832 -10.20800 -10.20688
 Alpha  occ. eigenvalues --  -10.20430 -10.19922  -1.09925  -1.04332  -1.02626
 Alpha  occ. eigenvalues --   -1.01564  -0.85657  -0.79706  -0.75409  -0.70197
 Alpha  occ. eigenvalues --   -0.65812  -0.62615  -0.58414  -0.54803  -0.51819
 Alpha  occ. eigenvalues --   -0.51160  -0.49338  -0.48297  -0.47226  -0.45026
 Alpha  occ. eigenvalues --   -0.44402  -0.43263  -0.42785  -0.42243  -0.40149
 Alpha  occ. eigenvalues --   -0.38952  -0.36487  -0.35949  -0.34759  -0.33978
 Alpha  occ. eigenvalues --   -0.31928  -0.28508  -0.28172  -0.25903  -0.25547
 Alpha virt. eigenvalues --   -0.04735  -0.00538   0.00532   0.05400   0.06833
 Alpha virt. eigenvalues --    0.07719   0.10519   0.11461   0.14091   0.15081
 Alpha virt. eigenvalues --    0.15617   0.17035   0.17671   0.19553   0.20909
 Alpha virt. eigenvalues --    0.21144   0.21880   0.23995   0.24669   0.29840
 Alpha virt. eigenvalues --    0.31205   0.34096   0.35202   0.37382   0.39309
 Alpha virt. eigenvalues --    0.41470   0.43411   0.44846   0.46500   0.47060
 Alpha virt. eigenvalues --    0.49054   0.49454   0.51613   0.53553   0.54423
 Alpha virt. eigenvalues --    0.55051   0.55867   0.56915   0.58345   0.59144
 Alpha virt. eigenvalues --    0.59737   0.61731   0.62100   0.62918   0.63839
 Alpha virt. eigenvalues --    0.64331   0.64869   0.67663   0.69582   0.70384
 Alpha virt. eigenvalues --    0.71152   0.73043   0.74330   0.74863   0.76008
 Alpha virt. eigenvalues --    0.77166   0.77299   0.78929   0.79688   0.81203
 Alpha virt. eigenvalues --    0.81509   0.83318   0.83913   0.85160   0.86064
 Alpha virt. eigenvalues --    0.87120   0.88361   0.90043   0.91594   0.93498
 Alpha virt. eigenvalues --    0.93736   0.94773   0.94911   0.96229   0.97672
 Alpha virt. eigenvalues --    0.98273   0.99260   1.00216   1.02607   1.05111
 Alpha virt. eigenvalues --    1.05683   1.07071   1.07738   1.09340   1.12008
 Alpha virt. eigenvalues --    1.14347   1.15845   1.18297   1.19312   1.20897
 Alpha virt. eigenvalues --    1.23256   1.25662   1.28038   1.28236   1.30591
 Alpha virt. eigenvalues --    1.31900   1.33456   1.34902   1.35395   1.37203
 Alpha virt. eigenvalues --    1.40103   1.40974   1.41364   1.41921   1.43198
 Alpha virt. eigenvalues --    1.45586   1.46376   1.48777   1.51668   1.52072
 Alpha virt. eigenvalues --    1.52895   1.55907   1.57868   1.58660   1.60211
 Alpha virt. eigenvalues --    1.61035   1.65235   1.68124   1.68338   1.69829
 Alpha virt. eigenvalues --    1.71106   1.72124   1.74270   1.76396   1.79891
 Alpha virt. eigenvalues --    1.81410   1.84707   1.89109   1.90022   1.92263
 Alpha virt. eigenvalues --    1.94306   1.96263   1.98750   2.02576   2.05263
 Alpha virt. eigenvalues --    2.06318   2.07785   2.10535   2.11551   2.12325
 Alpha virt. eigenvalues --    2.13336   2.16971   2.20509   2.24644   2.26923
 Alpha virt. eigenvalues --    2.28210   2.30087   2.37484   2.39301   2.42649
 Alpha virt. eigenvalues --    2.44643   2.47590   2.48073   2.51393   2.52037
 Alpha virt. eigenvalues --    2.55310   2.56220   2.60233   2.63202   2.64286
 Alpha virt. eigenvalues --    2.67387   2.69326   2.73550   2.75053   2.76491
 Alpha virt. eigenvalues --    2.78995   2.82565   2.84718   2.85324   2.88108
 Alpha virt. eigenvalues --    2.89890   2.92790   2.93242   2.94229   2.95876
 Alpha virt. eigenvalues --    2.97133   2.99185   2.99776   3.03918   3.05378
 Alpha virt. eigenvalues --    3.09823   3.12161   3.13736   3.15574   3.16684
 Alpha virt. eigenvalues --    3.17698   3.19261   3.21858   3.22984   3.25076
 Alpha virt. eigenvalues --    3.27562   3.29228   3.30173   3.31607   3.33741
 Alpha virt. eigenvalues --    3.36988   3.40331   3.41020   3.41912   3.43555
 Alpha virt. eigenvalues --    3.45353   3.46178   3.51325   3.52623   3.53710
 Alpha virt. eigenvalues --    3.56577   3.59027   3.61010   3.63673   3.69414
 Alpha virt. eigenvalues --    3.70876   3.72997   3.75692   3.78236   3.79094
 Alpha virt. eigenvalues --    3.80939   3.86634   3.91120   3.92616   3.94176
 Alpha virt. eigenvalues --    4.00631   4.01802   4.01991   4.06326   4.07286
 Alpha virt. eigenvalues --    4.08640   4.10244   4.12067   4.14252   4.16372
 Alpha virt. eigenvalues --    4.18390   4.20762   4.21498   4.24877   4.28070
 Alpha virt. eigenvalues --    4.29160   4.30836   4.33344   4.33667   4.35415
 Alpha virt. eigenvalues --    4.37718   4.38578   4.41821   4.42307   4.42958
 Alpha virt. eigenvalues --    4.44995   4.45993   4.47734   4.51608   4.51713
 Alpha virt. eigenvalues --    4.53189   4.55323   4.56300   4.58840   4.59176
 Alpha virt. eigenvalues --    4.59919   4.60625   4.62204   4.64404   4.66660
 Alpha virt. eigenvalues --    4.68967   4.70720   4.73264   4.74173   4.76033
 Alpha virt. eigenvalues --    4.77094   4.77684   4.79801   4.82209   4.83790
 Alpha virt. eigenvalues --    4.84720   4.86694   4.88367   4.90894   4.91579
 Alpha virt. eigenvalues --    4.97114   4.97756   4.99882   5.01456   5.02856
 Alpha virt. eigenvalues --    5.05177   5.06025   5.07848   5.09783   5.11027
 Alpha virt. eigenvalues --    5.12431   5.12803   5.19964   5.21641   5.23441
 Alpha virt. eigenvalues --    5.27423   5.29185   5.33307   5.36463   5.38301
 Alpha virt. eigenvalues --    5.40015   5.42340   5.46763   5.47298   5.48369
 Alpha virt. eigenvalues --    5.52238   5.54669   5.57688   5.60381   5.62902
 Alpha virt. eigenvalues --    5.66325   5.69565   5.71735   5.78516   5.80275
 Alpha virt. eigenvalues --    5.84559   5.89105   5.90157   6.01287   6.02179
 Alpha virt. eigenvalues --    6.05406   6.08960   6.11437   6.17187   6.30913
 Alpha virt. eigenvalues --    6.36135   6.41777   6.54036   6.66335   6.81481
 Alpha virt. eigenvalues --    6.87215   7.02637   7.20758   8.00995  10.14042
 Alpha virt. eigenvalues --   10.89317  11.29830  11.73491  11.92051  12.12671
 Alpha virt. eigenvalues --   12.57686  12.78944  13.07644  13.16499  13.32727
 Alpha virt. eigenvalues --   13.46165
          Condensed to atoms (all electrons):
               1          2          3          4          5          6
     1  O    7.723692   0.730561  -0.041651  -0.077869   0.002219  -0.000751
     2  C    0.730561   4.269518   0.351060   0.249729   0.002892   0.004932
     3  O   -0.041651   0.351060   7.839525  -0.061184  -0.004354  -0.000973
     4  C   -0.077869   0.249729  -0.061184   5.615001   0.288144  -0.063314
     5  C    0.002219   0.002892  -0.004354   0.288144   4.234085   0.730440
     6  O   -0.000751   0.004932  -0.000973  -0.063314   0.730440   7.739688
     7  C    0.000138  -0.000757  -0.000099  -0.081293   0.377141  -0.063634
     8  C   -0.000020   0.000509   0.000003  -0.028145  -0.005225   0.003627
     9  C   -0.000032  -0.001303  -0.000171   0.020668  -0.022478   0.000272
    10  C    0.008993  -0.023955   0.000874   0.227114   0.017379   0.002486
    11  C   -0.002857  -0.002361   0.001338  -0.075643   0.001776  -0.000048
    12  O    0.000011  -0.000081   0.000000   0.001789  -0.000046   0.000000
    13  H    0.004200  -0.050337   0.299512   0.007902   0.000163   0.003621
    14  H    0.002816  -0.031723  -0.001139   0.328298  -0.018449  -0.002640
    15  H   -0.000003   0.000087   0.000000   0.002891  -0.010373  -0.001848
    16  H    0.000031  -0.000028   0.000003   0.002018  -0.011200  -0.001958
    17  H    0.000001  -0.000047   0.000000   0.000449  -0.000633  -0.000038
    18  H   -0.000000   0.000030  -0.000000   0.001735  -0.000495  -0.000040
    19  H   -0.000016   0.000011   0.000000   0.007458   0.000110   0.000000
    20  H    0.004000   0.012625  -0.000840  -0.007357  -0.000434   0.000003
    21  H    0.000239  -0.003320   0.000127   0.002839   0.000048   0.000001
    22  H    0.000018  -0.000143   0.000000   0.000289   0.000008   0.000000
               7          8          9         10         11         12
     1  O    0.000138  -0.000020  -0.000032   0.008993  -0.002857   0.000011
     2  C   -0.000757   0.000509  -0.001303  -0.023955  -0.002361  -0.000081
     3  O   -0.000099   0.000003  -0.000171   0.000874   0.001338   0.000000
     4  C   -0.081293  -0.028145   0.020668   0.227114  -0.075643   0.001789
     5  C    0.377141  -0.005225  -0.022478   0.017379   0.001776  -0.000046
     6  O   -0.063634   0.003627   0.000272   0.002486  -0.000048   0.000000
     7  C    5.184320   0.279734  -0.006417  -0.032065  -0.000529  -0.000004
     8  C    0.279734   5.037901   0.338976   0.025353   0.008250   0.000975
     9  C   -0.006417   0.338976   5.003551   0.576769  -0.060425   0.009892
    10  C   -0.032065   0.025353   0.576769   4.793464   0.365654  -0.074703
    11  C   -0.000529   0.008250  -0.060425   0.365654   4.925909   0.376956
    12  O   -0.000004   0.000975   0.009892  -0.074703   0.376956   7.814528
    13  H    0.000128  -0.000008   0.000030   0.000129   0.000066   0.000000
    14  H    0.004176   0.000393  -0.000803  -0.040790  -0.002701   0.000055
    15  H    0.348196  -0.023890  -0.000156   0.001571   0.000016   0.000000
    16  H    0.353409  -0.023494  -0.000731   0.002033   0.000017  -0.000000
    17  H   -0.022121   0.356378  -0.024295  -0.002768  -0.000166   0.000005
    18  H   -0.018765   0.353184  -0.020787  -0.005967  -0.000181   0.000008
    19  H    0.004569  -0.052463   0.354384  -0.039570  -0.017503   0.018146
    20  H   -0.000016   0.000016   0.006150  -0.038373   0.359790  -0.027837
    21  H    0.000002  -0.000133  -0.001282  -0.028885   0.340023  -0.010306
    22  H    0.000001  -0.000286   0.002782   0.002853  -0.069355   0.308192
              13         14         15         16         17         18
     1  O    0.004200   0.002816  -0.000003   0.000031   0.000001  -0.000000
     2  C   -0.050337  -0.031723   0.000087  -0.000028  -0.000047   0.000030
     3  O    0.299512  -0.001139   0.000000   0.000003   0.000000  -0.000000
     4  C    0.007902   0.328298   0.002891   0.002018   0.000449   0.001735
     5  C    0.000163  -0.018449  -0.010373  -0.011200  -0.000633  -0.000495
     6  O    0.003621  -0.002640  -0.001848  -0.001958  -0.000038  -0.000040
     7  C    0.000128   0.004176   0.348196   0.353409  -0.022121  -0.018765
     8  C   -0.000008   0.000393  -0.023890  -0.023494   0.356378   0.353184
     9  C    0.000030  -0.000803  -0.000156  -0.000731  -0.024295  -0.020787
    10  C    0.000129  -0.040790   0.001571   0.002033  -0.002768  -0.005967
    11  C    0.000066  -0.002701   0.000016   0.000017  -0.000166  -0.000181
    12  O    0.000000   0.000055   0.000000  -0.000000   0.000005   0.000008
    13  H    0.412266   0.005145  -0.000003  -0.000001   0.000000  -0.000000
    14  H    0.005145   0.637521  -0.000470  -0.000016   0.000236  -0.000038
    15  H   -0.000003  -0.000470   0.570688  -0.023735  -0.012632   0.004103
    16  H   -0.000001  -0.000016  -0.023735   0.557761   0.004377  -0.012985
    17  H    0.000000   0.000236  -0.012632   0.004377   0.623406  -0.041169
    18  H   -0.000000  -0.000038   0.004103  -0.012985  -0.041169   0.618700
    19  H    0.000000  -0.000207  -0.000162  -0.000165  -0.000817   0.000119
    20  H   -0.000057  -0.000580  -0.000000   0.000000  -0.000004   0.000022
    21  H    0.000067   0.005457   0.000000  -0.000000   0.000024  -0.000005
    22  H    0.000000   0.000035  -0.000000  -0.000000   0.000022  -0.000033
              19         20         21         22
     1  O   -0.000016   0.004000   0.000239   0.000018
     2  C    0.000011   0.012625  -0.003320  -0.000143
     3  O    0.000000  -0.000840   0.000127   0.000000
     4  C    0.007458  -0.007357   0.002839   0.000289
     5  C    0.000110  -0.000434   0.000048   0.000008
     6  O    0.000000   0.000003   0.000001   0.000000
     7  C    0.004569  -0.000016   0.000002   0.000001
     8  C   -0.052463   0.000016  -0.000133  -0.000286
     9  C    0.354384   0.006150  -0.001282   0.002782
    10  C   -0.039570  -0.038373  -0.028885   0.002853
    11  C   -0.017503   0.359790   0.340023  -0.069355
    12  O    0.018146  -0.027837  -0.010306   0.308192
    13  H    0.000000  -0.000057   0.000067   0.000000
    14  H   -0.000207  -0.000580   0.005457   0.000035
    15  H   -0.000162  -0.000000   0.000000  -0.000000
    16  H   -0.000165   0.000000  -0.000000  -0.000000
    17  H   -0.000817  -0.000004   0.000024   0.000022
    18  H    0.000119   0.000022  -0.000005  -0.000033
    19  H    0.627319   0.000857   0.000077   0.000563
    20  H    0.000857   0.612492  -0.044016  -0.007725
    21  H    0.000077  -0.044016   0.613094   0.007606
    22  H    0.000563  -0.007725   0.007606   0.466169
 Mulliken charges:
               1
     1  O   -0.353721
     2  C    0.492102
     3  O   -0.382032
     4  C   -0.361518
     5  C    0.419278
     6  O   -0.349827
     7  C   -0.326111
     8  C   -0.271635
     9  C   -0.174596
    10  C    0.262403
    11  C   -0.148024
    12  O   -0.417581
    13  H    0.317175
    14  H    0.115424
    15  H    0.145720
    16  H    0.154664
    17  H    0.119793
    18  H    0.122565
    19  H    0.097290
    20  H    0.131287
    21  H    0.118341
    22  H    0.289003
 Sum of Mulliken charges =  -0.00000
 Mulliken charges with hydrogens summed into heavy atoms:
               1
     1  O   -0.353721
     2  C    0.492102
     3  O   -0.064857
     4  C   -0.246094
     5  C    0.419278
     6  O   -0.349827
     7  C   -0.025728
     8  C   -0.029277
     9  C   -0.077306
    10  C    0.262403
    11  C    0.101604
    12  O   -0.128578
 Electronic spatial extent (au):  <R**2>=           2043.1548
 Charge=             -0.0000 electrons
 Dipole moment (field-independent basis, Debye):
    X=             -1.5268    Y=              2.7030    Z=             -2.0954  Tot=              3.7454
 Quadrupole moment (field-independent basis, Debye-Ang):
   XX=            -80.6180   YY=            -66.7629   ZZ=            -67.1868
   XY=             -1.2747   XZ=             -7.4343   YZ=              7.2401
 Traceless Quadrupole moment (field-independent basis, Debye-Ang):
   XX=             -9.0955   YY=              4.7597   ZZ=              4.3358
   XY=             -1.2747   XZ=             -7.4343   YZ=              7.2401
 Octapole moment (field-independent basis, Debye-Ang**2):
  XXX=             -2.3914  YYY=             11.1042  ZZZ=            -11.0938  XYY=             -1.6684
  XXY=             -0.8109  XXZ=             17.7317  XZZ=              2.6535  YZZ=             -3.4243
  YYZ=            -10.1990  XYZ=             10.2287
 Hexadecapole moment (field-independent basis, Debye-Ang**3):
 XXXX=          -1360.6724 YYYY=          -1070.3407 ZZZZ=           -207.5615 XXXY=            -67.4937
 XXXZ=            -66.2576 YYYX=             19.5242 YYYZ=             12.7901 ZZZX=            -17.8804
 ZZZY=             22.5670 XXYY=           -388.0656 XXZZ=           -215.1590 YYZZ=           -201.8495
 XXYZ=             11.2647 YYXZ=            -16.6900 ZZXY=             -1.2152
 N-N= 7.220824930773D+02 E-N=-2.874797621865D+03  KE= 6.074774526747D+02
 PrsmSu:  requested number of processors reduced to:  13 ShMem   1 Linda.
 Calling FoFJK, ICntrl=      2127 FMM=F ISym2X=0 I1Cent= 0 IOpClX= 0 NMat=1 NMatS=1 NMatT=0.
 ***** Axes restored to original set *****
 -------------------------------------------------------------------
 Center     Atomic                   Forces (Hartrees/Bohr)
 Number     Number              X              Y              Z
 -------------------------------------------------------------------
      1        8           0.046102287   -0.003086240   -0.000418551
      2        6          -0.027117899   -0.008517989    0.004631712
      3        8          -0.003130617   -0.004377927    0.003580052
      4        6          -0.001450239    0.004594540   -0.015282212
      5        6           0.014005420   -0.008734658    0.047799838
      6        8          -0.008710840    0.009064473   -0.035080306
      7        6           0.000030152    0.002100339    0.002206664
      8        6          -0.003634619    0.009420945   -0.007618628
      9        6           0.001647025   -0.017388647   -0.001715353
     10        6          -0.003125508    0.011661707    0.001493545
     11        6          -0.008411844    0.015122854   -0.006627619
     12        8          -0.003727044    0.002492216   -0.003005756
     13        1          -0.015506129    0.005944684   -0.003105307
     14        1           0.001558512   -0.002838474    0.003493433
     15        1          -0.002890624   -0.001808023    0.005769656
     16        1           0.004241009   -0.001638286    0.004431258
     17        1          -0.001629993    0.002107637   -0.001879407
     18        1           0.000870821    0.003310098   -0.002114535
     19        1           0.000885036   -0.004950359    0.001044963
     20        1           0.001291976   -0.004994542    0.007352001
     21        1           0.001003680   -0.001341086   -0.002660246
     22        1           0.007699436   -0.006143262   -0.002295202
 -------------------------------------------------------------------
 Cartesian Forces:  Max     0.047799838 RMS     0.011577270

 GradGradGradGradGradGradGradGradGradGradGradGradGradGradGradGradGradGrad
 Berny optimization.
 FormGI is forming the generalized inverse of G from B-inverse, IUseBI=4.
 Internal  Forces:  Max     0.046144539 RMS     0.007362606
 Search for a local minimum.
 Step number   1 out of a maximum of  124
 All quantities printed in internal units (Hartrees-Bohrs-Radians)
 Mixed Optimization -- RFO/linear search
 Second derivative matrix not updated -- first step.
 ITU=  0
     Eigenvalues ---    0.00449   0.00593   0.00634   0.00658   0.00689
     Eigenvalues ---    0.00890   0.01171   0.01440   0.01451   0.01800
     Eigenvalues ---    0.02291   0.03254   0.03475   0.04443   0.05519
     Eigenvalues ---    0.05787   0.06099   0.06231   0.06766   0.07215
     Eigenvalues ---    0.10190   0.10240   0.10267   0.11795   0.12643
     Eigenvalues ---    0.14088   0.15995   0.16000   0.16000   0.17110
     Eigenvalues ---    0.20932   0.22103   0.22371   0.23464   0.24920
     Eigenvalues ---    0.24979   0.25000   0.25000   0.29642   0.29990
     Eigenvalues ---    0.30702   0.30848   0.31041   0.31780   0.33451
     Eigenvalues ---    0.33891   0.34010   0.34031   0.34107   0.34153
     Eigenvalues ---    0.34302   0.34337   0.34830   0.42731   0.51769
     Eigenvalues ---    0.52794   0.54038   0.54719   0.87930   0.92734
 RFO step:  Lambda=-1.58302308D-02 EMin= 4.49227360D-03
 Linear search not attempted -- first point.
 Iteration  1 RMS(Cart)=  0.06410122 RMS(Int)=  0.00218887
 Iteration  2 RMS(Cart)=  0.00317779 RMS(Int)=  0.00034534
 Iteration  3 RMS(Cart)=  0.00000552 RMS(Int)=  0.00034531
 Iteration  4 RMS(Cart)=  0.00000000 RMS(Int)=  0.00034531
 Variable       Old X    -DE/DX   Delta X   Delta X   Delta X     New X
                                 (Linear)    (Quad)   (Total)
    R1        2.31698  -0.04614   0.00000  -0.04893  -0.04893   2.26806
    R2        2.55997  -0.01041   0.00000  -0.01872  -0.01872   2.54126
    R3        2.87983   0.00867   0.00000   0.02747   0.02747   2.90731
    R4        1.84821  -0.01486   0.00000  -0.02786  -0.02786   1.82035
    R5        2.85473   0.01005   0.00000   0.03142   0.03143   2.88616
    R6        2.86123   0.00308   0.00000   0.00882   0.00881   2.87004
    R7        2.07515   0.00192   0.00000   0.00540   0.00540   2.08055
    R8        2.33902  -0.03698   0.00000  -0.04131  -0.04131   2.29771
    R9        2.83903   0.00585   0.00000   0.01880   0.01882   2.85784
   R10        2.86471   0.01838   0.00000   0.05749   0.05749   2.92220
   R11        2.07150  -0.00124   0.00000  -0.00347  -0.00347   2.06803
   R12        2.07072  -0.00093   0.00000  -0.00259  -0.00259   2.06813
   R13        2.80774   0.00944   0.00000   0.02568   0.02567   2.83341
   R14        2.07314   0.00070   0.00000   0.00197   0.00197   2.07511
   R15        2.07278   0.00092   0.00000   0.00258   0.00258   2.07536
   R16        2.53912  -0.01447   0.00000  -0.02583  -0.02584   2.51328
   R17        2.05952  -0.00305   0.00000  -0.00839  -0.00839   2.05113
   R18        2.85935   0.00231   0.00000   0.00709   0.00709   2.86644
   R19        2.68003   0.00217   0.00000   0.00491   0.00491   2.68494
   R20        2.06765   0.00351   0.00000   0.00976   0.00976   2.07742
   R21        2.06823   0.00181   0.00000   0.00505   0.00505   2.07328
   R22        1.83847  -0.00990   0.00000  -0.01820  -0.01820   1.82026
    A1        2.12609  -0.00931   0.00000  -0.03502  -0.03503   2.09106
    A2        2.17075  -0.00655   0.00000  -0.02463  -0.02463   2.14612
    A3        1.98634   0.01585   0.00000   0.05964   0.05963   2.04598
    A4        2.00443  -0.01476   0.00000  -0.08393  -0.08393   1.92050
    A5        1.87912  -0.00029   0.00000  -0.00931  -0.00942   1.86970
    A6        1.96548  -0.00140   0.00000  -0.00955  -0.00949   1.95600
    A7        1.90701  -0.00062   0.00000  -0.00822  -0.00835   1.89867
    A8        2.02528   0.00089   0.00000   0.00215   0.00204   2.02732
    A9        1.84443  -0.00176   0.00000  -0.01598  -0.01622   1.82820
   A10        1.83595   0.00314   0.00000   0.04087   0.04086   1.87681
   A11        2.08305  -0.00448   0.00000  -0.01749  -0.01764   2.06541
   A12        2.11957  -0.00180   0.00000  -0.00456  -0.00464   2.11493
   A13        2.07999   0.00631   0.00000   0.02296   0.02283   2.10282
   A14        2.05943  -0.00201   0.00000  -0.00143  -0.00133   2.05810
   A15        1.85574  -0.00192   0.00000  -0.01646  -0.01675   1.83899
   A16        1.86438  -0.00222   0.00000  -0.02211  -0.02216   1.84222
   A17        1.89719   0.00492   0.00000   0.03722   0.03720   1.93439
   A18        1.89785   0.00432   0.00000   0.03403   0.03383   1.93168
   A19        1.88236  -0.00364   0.00000  -0.03754  -0.03846   1.84391
   A20        2.04407  -0.00471   0.00000  -0.01851  -0.01844   2.02563
   A21        1.90101   0.00297   0.00000   0.01712   0.01706   1.91807
   A22        1.89278   0.00294   0.00000   0.02113   0.02113   1.91391
   A23        1.89042   0.00061   0.00000  -0.00187  -0.00171   1.88871
   A24        1.87883   0.00093   0.00000   0.00450   0.00452   1.88335
   A25        1.84698  -0.00270   0.00000  -0.02386  -0.02399   1.82299
   A26        2.18472   0.00540   0.00000   0.01820   0.01818   2.20291
   A27        1.99370   0.00155   0.00000   0.01506   0.01507   2.00877
   A28        2.10449  -0.00694   0.00000  -0.03322  -0.03321   2.07128
   A29        2.12811   0.00222   0.00000   0.00509   0.00503   2.13315
   A30        2.00101   0.00041   0.00000   0.00362   0.00358   2.00459
   A31        2.15156  -0.00261   0.00000  -0.00757  -0.00761   2.14396
   A32        1.94989   0.01359   0.00000   0.06485   0.06435   2.01424
   A33        1.94120  -0.00730   0.00000  -0.03244  -0.03437   1.90683
   A34        1.91356  -0.00162   0.00000  -0.01465  -0.01466   1.89890
   A35        1.88363   0.00263   0.00000   0.04654   0.04612   1.92976
   A36        1.87943  -0.00700   0.00000  -0.03894  -0.03837   1.84106
   A37        1.89418  -0.00059   0.00000  -0.02732  -0.02785   1.86633
   A38        1.85861   0.00103   0.00000   0.00587   0.00587   1.86448
    D1       -2.99208   0.00079   0.00000   0.02179   0.02178  -2.97030
    D2        0.14846   0.00062   0.00000   0.01476   0.01477   0.16323
    D3        1.42861   0.00241   0.00000   0.08478   0.08481   1.51342
    D4       -0.82601   0.00252   0.00000   0.09653   0.09645  -0.72955
    D5       -2.85943  -0.00013   0.00000   0.05693   0.05696  -2.80247
    D6       -1.71190   0.00258   0.00000   0.09202   0.09207  -1.61984
    D7        2.31667   0.00270   0.00000   0.10377   0.10370   2.42037
    D8        0.28324   0.00005   0.00000   0.06417   0.06421   0.34746
    D9        0.88679   0.00034   0.00000   0.00565   0.00595   0.89274
   D10       -2.29149   0.00122   0.00000   0.03523   0.03515  -2.25635
   D11        3.10704  -0.00112   0.00000  -0.01358  -0.01322   3.09382
   D12       -0.07124  -0.00024   0.00000   0.01600   0.01597  -0.05527
   D13       -1.14967   0.00207   0.00000   0.02748   0.02760  -1.12207
   D14        1.95523   0.00295   0.00000   0.05706   0.05679   2.01203
   D15        2.28635  -0.00054   0.00000  -0.03041  -0.03043   2.25592
   D16       -0.92889  -0.00035   0.00000  -0.01403  -0.01399  -0.94288
   D17        0.10978   0.00036   0.00000  -0.01079  -0.01079   0.09899
   D18       -3.10546   0.00055   0.00000   0.00559   0.00566  -3.09981
   D19       -1.92145  -0.00008   0.00000  -0.01994  -0.02004  -1.94149
   D20        1.14650   0.00012   0.00000  -0.00357  -0.00360   1.14290
   D21       -0.00720   0.00033   0.00000  -0.01073  -0.01072  -0.01792
   D22       -2.14145  -0.00325   0.00000  -0.04557  -0.04532  -2.18677
   D23        2.13500   0.00284   0.00000   0.01533   0.01501   2.15001
   D24        3.09776   0.00098   0.00000   0.01797   0.01825   3.11602
   D25        0.96351  -0.00259   0.00000  -0.01687  -0.01635   0.94716
   D26       -1.04322   0.00350   0.00000   0.04403   0.04398  -0.99924
   D27        0.05410  -0.00026   0.00000  -0.00005   0.00006   0.05416
   D28       -2.09751  -0.00006   0.00000   0.00194   0.00202  -2.09549
   D29        2.18339   0.00000   0.00000   0.00989   0.00985   2.19324
   D30        2.16715  -0.00021   0.00000   0.00757   0.00761   2.17476
   D31        0.01554  -0.00001   0.00000   0.00956   0.00957   0.02511
   D32       -1.98675   0.00005   0.00000   0.01751   0.01740  -1.96935
   D33       -2.07109   0.00058   0.00000   0.00233   0.00255  -2.06854
   D34        2.06048   0.00078   0.00000   0.00431   0.00451   2.06499
   D35        0.05820   0.00084   0.00000   0.01227   0.01234   0.07054
   D36       -0.01872  -0.00001   0.00000   0.00468   0.00468  -0.01404
   D37       -3.13530   0.00010   0.00000   0.00329   0.00322  -3.13208
   D38        2.13829   0.00102   0.00000   0.01248   0.01258   2.15087
   D39       -0.97829   0.00113   0.00000   0.01110   0.01112  -0.96717
   D40       -2.15523  -0.00135   0.00000  -0.01395  -0.01389  -2.16912
   D41        1.01137  -0.00124   0.00000  -0.01534  -0.01535   0.99603
   D42       -0.06711  -0.00008   0.00000   0.00096   0.00089  -0.06622
   D43       -3.12863  -0.00044   0.00000  -0.01738  -0.01740   3.13716
   D44        3.04799  -0.00007   0.00000   0.00313   0.00308   3.05106
   D45       -0.01353  -0.00043   0.00000  -0.01522  -0.01522  -0.02875
   D46       -3.04898   0.00178   0.00000  -0.01968  -0.01977  -3.06875
   D47        1.12813  -0.00587   0.00000  -0.10123  -0.10061   1.02752
   D48       -0.96687   0.00058   0.00000  -0.03691  -0.03734  -1.00421
   D49        0.01785   0.00221   0.00000  -0.00245  -0.00260   0.01524
   D50       -2.08823  -0.00544   0.00000  -0.08400  -0.08344  -2.17167
   D51        2.09996   0.00101   0.00000  -0.01967  -0.02018   2.07978
   D52       -1.07015  -0.00106   0.00000  -0.05083  -0.05243  -1.12258
   D53        1.06918   0.00027   0.00000  -0.01841  -0.01672   1.05246
   D54        3.11085  -0.00273   0.00000  -0.04661  -0.04671   3.06415
         Item               Value     Threshold  Converged?
 Maximum Force            0.046145     0.000450     NO 
 RMS     Force            0.007363     0.000300     NO 
 Maximum Displacement     0.259596     0.001800     NO 
 RMS     Displacement     0.063830     0.001200     NO 
 Predicted change in Energy=-8.928101D-03
 GradGradGradGradGradGradGradGradGradGradGradGradGradGradGradGradGradGrad

                          Input orientation:                          
 ---------------------------------------------------------------------
 Center     Atomic      Atomic             Coordinates (Angstroms)
 Number     Number       Type             X           Y           Z
 ---------------------------------------------------------------------
      1          8           0        1.062113    0.012713   -0.109069
      2          6           0        2.256030   -0.034960    0.003970
      3          8           0        2.835844   -1.136198    0.513391
      4          6           0        3.182182    1.124878   -0.400932
      5          6           0        3.281210    2.061978    0.801002
      6          8           0        3.567428    1.585430    1.882381
      7          6           0        3.040591    3.548056    0.656996
      8          6           0        2.714135    4.095526   -0.751879
      9          6           0        2.595693    3.075017   -1.843973
     10          6           0        2.759035    1.761605   -1.713241
     11          6           0        2.615141    0.795271   -2.873558
     12          8           0        2.310209    1.389536   -4.127579
     13          1           0        3.769171   -0.969147    0.683452
     14          1           0        4.202328    0.733434   -0.535941
     15          1           0        3.936655    4.027584    1.062873
     16          1           0        2.235403    3.784353    1.359533
     17          1           0        3.471341    4.832315   -1.051226
     18          1           0        1.775697    4.665043   -0.718647
     19          1           0        2.375444    3.477099   -2.827810
     20          1           0        1.868958    0.029718   -2.617341
     21          1           0        3.569615    0.274618   -3.020505
     22          1           0        1.440037    1.793343   -4.040549
 ---------------------------------------------------------------------
                    Distance matrix (angstroms):
                    1          2          3          4          5
     1  O    0.000000
     2  C    1.200204   0.000000
     3  O    2.203083   1.344775   0.000000
     4  C    2.411801   1.538482   2.463412   0.000000
     5  C    3.154696   2.466456   3.241820   1.527288   0.000000
     6  O    3.565938   2.806039   3.133146   2.360940   1.215893
     7  C    4.123091   3.725585   4.690925   2.647839   1.512304
     8  C    4.451038   4.223989   5.383926   3.027703   2.620751
     9  C    3.839201   3.633486   4.832098   2.495872   2.914117
    10  C    2.917454   2.535640   3.655277   1.518759   2.585403
    11  C    3.265991   3.016357   3.905216   2.558136   3.943424
    12  O    4.427393   4.370563   5.309824   3.836441   5.068130
    13  H    2.986688   1.903680   0.963290   2.430100   3.072400
    14  H    3.250017   2.161020   2.542420   1.100979   2.097833
    15  H    5.075001   4.522172   5.308330   3.337313   2.088491
    16  H    4.214104   4.052793   5.028748   3.326926   2.090992
    17  H    5.469973   5.126479   6.202825   3.775128   3.337914
    18  H    4.746047   4.779427   6.024635   3.822553   3.369251
    19  H    4.595472   4.513069   5.714727   3.474695   3.998907
    20  H    2.634904   2.650524   3.477890   2.799358   4.220143
    21  H    3.851314   3.311916   3.875209   2.781224   4.228681
    22  H    4.332436   4.512944   5.591856   4.090076   5.186781
                    6          7          8          9         10
     6  O    0.000000
     7  C    2.372978   0.000000
     8  C    3.737381   1.546360   0.000000
     9  C    4.129025   2.583901   1.499378   0.000000
    10  C    3.689584   2.981393   2.524563   1.329971   0.000000
    11  C    4.914281   4.497071   3.924666   2.501533   1.516853
    12  O    6.143174   5.299512   4.345214   2.852578   2.483729
    13  H    2.829133   4.575658   5.368817   4.911231   3.771143
    14  H    2.641453   3.270294   3.683071   3.126537   2.127502
    15  H    2.602314   1.094356   2.189178   3.339958   3.772037
    16  H    2.623532   1.094405   2.187253   3.300821   3.715864
    17  H    4.376933   2.180113   1.098102   2.117381   3.221010
    18  H    4.411310   2.177157   1.098235   2.113513   3.222751
    19  H    5.213936   3.548426   2.192407   1.085410   2.081424
    20  H    5.054952   4.946990   4.552479   3.224916   2.146873
    21  H    5.075088   4.951694   4.525245   3.189825   2.139417
    22  H    6.296833   5.263812   4.211736   2.793416   2.675280
                   11         12         13         14         15
    11  C    0.000000
    12  O    1.420810   0.000000
    13  H    4.134886   5.553195   0.000000
    14  H    2.826206   4.112232   2.138534   0.000000
    15  H    5.262105   6.045281   5.013914   3.671269   0.000000
    16  H    5.195948   5.987416   5.040366   4.095085   1.743969
    17  H    4.511286   4.760767   6.062572   4.195317   2.309443
    18  H    4.508153   4.757674   6.138723   4.623794   2.872266
    19  H    2.692907   2.459995   5.834427   4.014706   4.228218
    20  H    1.099321   2.079573   3.937484   3.205006   5.813973
    21  H    1.097130   2.013644   3.912297   2.604591   5.558187
    22  H    1.933619   0.963241   5.947470   4.586495   6.104904
                   16         17         18         19         20
    16  H    0.000000
    17  H    2.904743   0.000000
    18  H    2.303427   1.736030   0.000000
    19  H    4.200935   2.488744   2.493887   0.000000
    20  H    5.481523   5.299555   5.009987   3.490739   0.000000
    21  H    5.769150   4.965915   5.271861   3.423311   1.764866
    22  H    5.810130   4.722033   4.403903   2.276128   2.306483
                   21         22
    21  H    0.000000
    22  H    2.807511   0.000000
 Stoichiometry    C8H10O4
 Framework group  C1[X(C8H10O4)]
 Deg. of freedom    60
 Full point group                 C1      NOp   1
 Largest Abelian subgroup         C1      NOp   1
 Largest concise Abelian subgroup C1      NOp   1
                         Standard orientation:                         
 ---------------------------------------------------------------------
 Center     Atomic      Atomic             Coordinates (Angstroms)
 Number     Number       Type             X           Y           Z
 ---------------------------------------------------------------------
      1          8           0        0.593037   -1.636373    1.482155
      2          6           0        0.882477   -1.478369    0.328142
      3          8           0        1.644415   -2.390598   -0.300910
      4          6           0        0.428899   -0.256217   -0.488889
      5          6           0        1.461380    0.845799   -0.260519
      6          8           0        2.636273    0.578854   -0.424116
      7          6           0        1.041192    2.239538    0.149356
      8          6           0       -0.470749    2.522935    0.307310
      9          6           0       -1.385071    1.351942    0.105011
     10          6           0       -1.017406    0.112842   -0.208482
     11          6           0       -2.010891   -1.018917   -0.390010
     12          8           0       -3.376353   -0.664407   -0.221086
     13          1           0        1.916695   -2.055823   -1.162140
     14          1           0        0.508072   -0.496802   -1.560338
     15          1           0        1.486691    2.907260   -0.594481
     16          1           0        1.572249    2.443038    1.084390
     17          1           0       -0.775774    3.319994   -0.383693
     18          1           0       -0.666891    2.935984    1.305828
     19          1           0       -2.443035    1.570387    0.210415
     20          1           0       -1.741626   -1.848466    0.279207
     21          1           0       -1.931472   -1.397829   -1.416564
     22          1           0       -3.482870   -0.394869    0.697521
 ---------------------------------------------------------------------
 Rotational constants (GHZ):           1.1014276           0.8825577           0.5529267
 Standard basis: 6-31G(2df,p) (6D, 7F)
 There are   422 symmetry adapted cartesian basis functions of A   symmetry.
 There are   386 symmetry adapted basis functions of A   symmetry.
   386 basis functions,   598 primitive gaussians,   422 cartesian basis functions
    45 alpha electrons       45 beta electrons
       nuclear repulsion energy       721.2732030493 Hartrees.
 NAtoms=   22 NActive=   22 NUniq=   22 SFac= 1.00D+00 NAtFMM=   60 NAOKFM=F Big=F
 Integral buffers will be    131072 words long.
 Raffenetti 2 integral format.
 Two-electron integral symmetry is turned on.
 One-electron integrals computed using PRISM.
 PrsmSu:  requested number of processors reduced to:  13 ShMem   1 Linda.
 NBasis=   386 RedAO= T EigKep=  3.00D-04  NBF=   386
 NBsUse=   386 1.00D-06 EigRej= -1.00D+00 NBFU=   386
 Initial guess from the checkpoint file:  "OdCqOrC1CqdOrCCCdC1CO.chk"
 B after Tr=     0.000000    0.000000   -0.000000
         Rot=    0.999851   -0.001212    0.005058    0.016470 Ang=  -1.98 deg.
 ExpMin= 1.61D-01 ExpMax= 5.48D+03 ExpMxC= 8.25D+02 IAcc=2 IRadAn=         4 AccDes= 0.00D+00
 Harris functional with IExCor=  402 and IRadAn=       4 diagonalized for initial guess.
 HarFok:  IExCor=  402 AccDes= 0.00D+00 IRadAn=         4 IDoV= 1 UseB2=F ITyADJ=14
 ICtDFT=  3500011 ScaDFX=  1.000000  1.000000  1.000000  1.000000
 FoFCou: FMM=F IPFlag=           0 FMFlag=      100000 FMFlg1=           0
         NFxFlg=           0 DoJE=T BraDBF=F KetDBF=T FulRan=T
         wScrn=  0.000000 ICntrl=       500 IOpCl=  0 I1Cent=   200000004 NGrid=           0
         NMat0=    1 NMatS0=      1 NMatT0=    0 NMatD0=    1 NMtDS0=    0 NMtDT0=    0
 Petite list used in FoFCou.
 Requested convergence on RMS density matrix=1.00D-08 within 128 cycles.
 Requested convergence on MAX density matrix=1.00D-06.
 Requested convergence on             energy=1.00D-06.
 No special actions if energy rises.
 Integral accuracy reduced to 1.0D-05 until final iterations.
 Initial convergence to 1.0D-05 achieved.  Increase integral accuracy.
 SCF Done:  E(RB3LYP) =  -611.784828732     A.U. after   13 cycles
            NFock= 13  Conv=0.33D-08     -V/T= 2.0069
 PrsmSu:  requested number of processors reduced to:  13 ShMem   1 Linda.
 Calling FoFJK, ICntrl=      2127 FMM=F ISym2X=0 I1Cent= 0 IOpClX= 0 NMat=1 NMatS=1 NMatT=0.
 ***** Axes restored to original set *****
 -------------------------------------------------------------------
 Center     Atomic                   Forces (Hartrees/Bohr)
 Number     Number              X              Y              Z
 -------------------------------------------------------------------
      1        8           0.000795272    0.002428819   -0.003479171
      2        6          -0.008631236   -0.002449943    0.002553328
      3        8           0.003625045    0.000627017    0.001392194
      4        6           0.000389119   -0.000270284   -0.010487232
      5        6           0.002865932   -0.004012037    0.013220480
      6        8          -0.000547206    0.002603978   -0.006986423
      7        6          -0.001227537    0.001703089   -0.005699700
      8        6          -0.000254244    0.001033638   -0.000045384
      9        6           0.000916271   -0.000741090    0.002692127
     10        6          -0.000665540   -0.000628218    0.001340139
     11        6           0.000021713    0.002304356   -0.004120802
     12        8           0.000690746    0.000931601    0.006415528
     13        1           0.001672028    0.000004061    0.001311884
     14        1           0.000065511   -0.001134217    0.000590943
     15        1          -0.000408109    0.000736539    0.001095744
     16        1           0.000236954    0.000019849    0.000904370
     17        1           0.000169925   -0.000126013    0.000631986
     18        1           0.000515617    0.000121850    0.000751076
     19        1          -0.000577592   -0.000880655   -0.001173448
     20        1           0.000451198   -0.000322859    0.000886274
     21        1           0.000617777   -0.001119684   -0.000579209
     22        1          -0.000721641   -0.000829796   -0.001214704
 -------------------------------------------------------------------
 Cartesian Forces:  Max     0.013220480 RMS     0.003062173

 GradGradGradGradGradGradGradGradGradGradGradGradGradGradGradGradGradGrad
 Berny optimization.
 Using GEDIIS/GDIIS optimizer.
 FormGI is forming the generalized inverse of G from B-inverse, IUseBI=4.
 Internal  Forces:  Max     0.007362941 RMS     0.001566671
 Search for a local minimum.
 Step number   2 out of a maximum of  124
 All quantities printed in internal units (Hartrees-Bohrs-Radians)
 Mixed Optimization -- RFO/linear search
 Update second derivatives using D2CorX and points    1    2
 DE= -8.56D-03 DEPred=-8.93D-03 R= 9.59D-01
 TightC=F SS=  1.41D+00  RLast= 3.59D-01 DXNew= 5.0454D-01 1.0772D+00
 Trust test= 9.59D-01 RLast= 3.59D-01 DXMaxT set to 5.05D-01
 ITU=  1  0
 Use linear search instead of GDIIS.
     Eigenvalues ---    0.00434   0.00594   0.00635   0.00654   0.00692
     Eigenvalues ---    0.00887   0.01168   0.01442   0.01451   0.01779
     Eigenvalues ---    0.02286   0.03223   0.03449   0.04501   0.05365
     Eigenvalues ---    0.05664   0.05734   0.06069   0.06854   0.07350
     Eigenvalues ---    0.10163   0.10251   0.10418   0.12119   0.12615
     Eigenvalues ---    0.14270   0.15804   0.15999   0.16271   0.17076
     Eigenvalues ---    0.20752   0.22069   0.22604   0.23440   0.24566
     Eigenvalues ---    0.24963   0.24999   0.27057   0.29442   0.29805
     Eigenvalues ---    0.30250   0.31020   0.31769   0.32442   0.33450
     Eigenvalues ---    0.33885   0.34012   0.34041   0.34121   0.34174
     Eigenvalues ---    0.34286   0.34372   0.34939   0.43027   0.52146
     Eigenvalues ---    0.52850   0.54369   0.55136   0.83859   0.93230
 RFO step:  Lambda=-3.93381621D-03 EMin= 4.34167263D-03
 Quartic linear search produced a step of  0.08267.
 Iteration  1 RMS(Cart)=  0.09706553 RMS(Int)=  0.00805757
 Iteration  2 RMS(Cart)=  0.01425034 RMS(Int)=  0.00015370
 Iteration  3 RMS(Cart)=  0.00023737 RMS(Int)=  0.00005298
 Iteration  4 RMS(Cart)=  0.00000007 RMS(Int)=  0.00005298
 Variable       Old X    -DE/DX   Delta X   Delta X   Delta X     New X
                                 (Linear)    (Quad)   (Total)
    R1        2.26806  -0.00037  -0.00404  -0.00215  -0.00619   2.26186
    R2        2.54126   0.00279  -0.00155   0.00470   0.00316   2.54441
    R3        2.90731   0.00154   0.00227   0.00620   0.00847   2.91578
    R4        1.82035   0.00185  -0.00230   0.00274   0.00044   1.82079
    R5        2.88616   0.00418   0.00260   0.01547   0.01804   2.90419
    R6        2.87004  -0.00336   0.00073  -0.01033  -0.00964   2.86040
    R7        2.08055   0.00039   0.00045   0.00137   0.00182   2.08237
    R8        2.29771  -0.00736  -0.00342  -0.01017  -0.01359   2.28412
    R9        2.85784   0.00258   0.00156   0.00897   0.01053   2.86837
   R10        2.92220  -0.00194   0.00475  -0.00519  -0.00041   2.92179
   R11        2.06803   0.00039  -0.00029   0.00108   0.00079   2.06882
   R12        2.06813   0.00041  -0.00021   0.00115   0.00094   2.06906
   R13        2.83341   0.00034   0.00212   0.00135   0.00350   2.83692
   R14        2.07511  -0.00014   0.00016  -0.00036  -0.00019   2.07492
   R15        2.07536  -0.00035   0.00021  -0.00099  -0.00078   2.07459
   R16        2.51328  -0.00056  -0.00214  -0.00196  -0.00411   2.50917
   R17        2.05113   0.00085  -0.00069   0.00225   0.00156   2.05268
   R18        2.86644  -0.00178   0.00059  -0.00566  -0.00507   2.86136
   R19        2.68494  -0.00454   0.00041  -0.01083  -0.01042   2.67452
   R20        2.07742   0.00013   0.00081   0.00071   0.00151   2.07893
   R21        2.07328   0.00115   0.00042   0.00362   0.00404   2.07731
   R22        1.82026   0.00019  -0.00150  -0.00025  -0.00176   1.81851
    A1        2.09106   0.00635  -0.00290   0.02496   0.02205   2.11311
    A2        2.14612  -0.00182  -0.00204  -0.00830  -0.01035   2.13577
    A3        2.04598  -0.00454   0.00493  -0.01672  -0.01181   2.03417
    A4        1.92050   0.00112  -0.00694   0.00459  -0.00235   1.91815
    A5        1.86970  -0.00119  -0.00078  -0.01526  -0.01605   1.85365
    A6        1.95600   0.00054  -0.00078   0.00003  -0.00084   1.95515
    A7        1.89867   0.00011  -0.00069   0.00274   0.00183   1.90050
    A8        2.02732   0.00005   0.00017  -0.00085  -0.00087   2.02645
    A9        1.82820  -0.00067  -0.00134  -0.00922  -0.01061   1.81760
   A10        1.87681   0.00111   0.00338   0.02252   0.02593   1.90273
   A11        2.06541   0.00021  -0.00146  -0.00047  -0.00189   2.06352
   A12        2.11493  -0.00156  -0.00038  -0.00515  -0.00565   2.10928
   A13        2.10282   0.00135   0.00189   0.00555   0.00747   2.11029
   A14        2.05810   0.00079  -0.00011   0.00538   0.00521   2.06331
   A15        1.83899  -0.00006  -0.00139   0.00254   0.00107   1.84006
   A16        1.84222  -0.00064  -0.00183  -0.00518  -0.00700   1.83522
   A17        1.93439  -0.00004   0.00308   0.00179   0.00484   1.93923
   A18        1.93168   0.00032   0.00280   0.00472   0.00753   1.93921
   A19        1.84391  -0.00055  -0.00318  -0.01154  -0.01481   1.82910
   A20        2.02563  -0.00103  -0.00152  -0.00696  -0.00848   2.01715
   A21        1.91807  -0.00014   0.00141  -0.00411  -0.00275   1.91533
   A22        1.91391  -0.00032   0.00175  -0.00190  -0.00009   1.91382
   A23        1.88871   0.00075  -0.00014   0.00421   0.00407   1.89279
   A24        1.88335   0.00088   0.00037   0.00910   0.00945   1.89280
   A25        1.82299  -0.00002  -0.00198   0.00069  -0.00133   1.82166
   A26        2.20291   0.00169   0.00150   0.00823   0.00968   2.21258
   A27        2.00877   0.00044   0.00125   0.00477   0.00604   2.01480
   A28        2.07128  -0.00213  -0.00275  -0.01300  -0.01572   2.05556
   A29        2.13315   0.00007   0.00042   0.00180   0.00208   2.13523
   A30        2.00459   0.00163   0.00030   0.00640   0.00674   2.01133
   A31        2.14396  -0.00170  -0.00063  -0.00777  -0.00836   2.13560
   A32        2.01424  -0.00334   0.00532  -0.01355  -0.00826   2.00598
   A33        1.90683   0.00042  -0.00284  -0.00258  -0.00557   1.90126
   A34        1.89890   0.00126  -0.00121   0.00804   0.00685   1.90575
   A35        1.92976   0.00140   0.00381   0.00639   0.01015   1.93991
   A36        1.84106   0.00107  -0.00317   0.00613   0.00302   1.84408
   A37        1.86633  -0.00063  -0.00230  -0.00346  -0.00581   1.86052
   A38        1.86448   0.00157   0.00048   0.01016   0.01064   1.87512
    D1       -2.97030   0.00078   0.00180   0.03206   0.03392  -2.93638
    D2        0.16323   0.00065   0.00122   0.02380   0.02495   0.18818
    D3        1.51342   0.00201   0.00701   0.21042   0.21744   1.73086
    D4       -0.72955   0.00247   0.00797   0.22316   0.23117  -0.49838
    D5       -2.80247   0.00069   0.00471   0.19345   0.19818  -2.60429
    D6       -1.61984   0.00211   0.00761   0.21880   0.22637  -1.39346
    D7        2.42037   0.00257   0.00857   0.23154   0.24011   2.66048
    D8        0.34746   0.00079   0.00531   0.20183   0.20711   0.55457
    D9        0.89274   0.00047   0.00049   0.05551   0.05603   0.94878
   D10       -2.25635   0.00027   0.00291   0.04564   0.04855  -2.20780
   D11        3.09382   0.00023  -0.00109   0.04221   0.04114   3.13496
   D12       -0.05527   0.00003   0.00132   0.03234   0.03365  -0.02162
   D13       -1.12207   0.00117   0.00228   0.06339   0.06559  -1.05648
   D14        2.01203   0.00097   0.00470   0.05352   0.05810   2.07013
   D15        2.25592  -0.00131  -0.00252  -0.05580  -0.05842   2.19750
   D16       -0.94288  -0.00127  -0.00116  -0.04779  -0.04897  -0.99185
   D17        0.09899  -0.00017  -0.00089  -0.03407  -0.03500   0.06399
   D18       -3.09981  -0.00012   0.00047  -0.02607  -0.02555  -3.12536
   D19       -1.94149  -0.00013  -0.00166  -0.03789  -0.03958  -1.98107
   D20        1.14290  -0.00009  -0.00030  -0.02989  -0.03013   1.11277
   D21       -0.01792   0.00003  -0.00089  -0.01523  -0.01612  -0.03404
   D22       -2.18677  -0.00042  -0.00375  -0.02344  -0.02713  -2.21391
   D23        2.15001   0.00048   0.00124  -0.00951  -0.00830   2.14171
   D24        3.11602  -0.00018   0.00151  -0.02534  -0.02385   3.09217
   D25        0.94716  -0.00063  -0.00135  -0.03354  -0.03486   0.91230
   D26       -0.99924   0.00027   0.00364  -0.01962  -0.01603  -1.01527
   D27        0.05416  -0.00008   0.00001  -0.00273  -0.00267   0.05149
   D28       -2.09549  -0.00020   0.00017   0.00022   0.00044  -2.09505
   D29        2.19324   0.00008   0.00081   0.00274   0.00360   2.19684
   D30        2.17476   0.00042   0.00063   0.00641   0.00706   2.18182
   D31        0.02511   0.00030   0.00079   0.00937   0.01017   0.03528
   D32       -1.96935   0.00058   0.00144   0.01189   0.01334  -1.95601
   D33       -2.06854  -0.00008   0.00021  -0.00382  -0.00359  -2.07213
   D34        2.06499  -0.00021   0.00037  -0.00086  -0.00048   2.06451
   D35        0.07054   0.00007   0.00102   0.00166   0.00268   0.07322
   D36       -0.01404  -0.00007   0.00039   0.00155   0.00201  -0.01203
   D37       -3.13208  -0.00018   0.00027   0.00209   0.00240  -3.12968
   D38        2.15087  -0.00040   0.00104  -0.00557  -0.00449   2.14638
   D39       -0.96717  -0.00051   0.00092  -0.00502  -0.00410  -0.97127
   D40       -2.16912   0.00038  -0.00115   0.00173   0.00066  -2.16846
   D41        0.99603   0.00027  -0.00127   0.00228   0.00105   0.99708
   D42       -0.06622   0.00013   0.00007   0.01761   0.01770  -0.04852
   D43        3.13716  -0.00003  -0.00144   0.00847   0.00706  -3.13897
   D44        3.05106   0.00028   0.00025   0.01728   0.01757   3.06864
   D45       -0.02875   0.00012  -0.00126   0.00813   0.00693  -0.02182
   D46       -3.06875  -0.00083  -0.00163  -0.07029  -0.07192  -3.14067
   D47        1.02752  -0.00051  -0.00832  -0.06639  -0.07467   0.95285
   D48       -1.00421  -0.00069  -0.00309  -0.06533  -0.06845  -1.07267
   D49        0.01524  -0.00072  -0.00022  -0.06187  -0.06208  -0.04684
   D50       -2.17167  -0.00040  -0.00690  -0.05798  -0.06484  -2.23651
   D51        2.07978  -0.00058  -0.00167  -0.05691  -0.05862   2.02116
   D52       -1.12258  -0.00039  -0.00433  -0.03972  -0.04417  -1.16675
   D53        1.05246  -0.00127  -0.00138  -0.04849  -0.04976   1.00270
   D54        3.06415  -0.00075  -0.00386  -0.04611  -0.04997   3.01418
         Item               Value     Threshold  Converged?
 Maximum Force            0.007363     0.000450     NO 
 RMS     Force            0.001567     0.000300     NO 
 Maximum Displacement     0.618514     0.001800     NO 
 RMS     Displacement     0.106586     0.001200     NO 
 Predicted change in Energy=-2.701548D-03
 GradGradGradGradGradGradGradGradGradGradGradGradGradGradGradGradGradGrad

                          Input orientation:                          
 ---------------------------------------------------------------------
 Center     Atomic      Atomic             Coordinates (Angstroms)
 Number     Number       Type             X           Y           Z
 ---------------------------------------------------------------------
      1          8           0        1.083995   -0.037526   -0.332034
      2          6           0        2.242595   -0.037053   -0.031571
      3          8           0        2.768397   -1.029697    0.710795
      4          6           0        3.203095    1.097058   -0.446258
      5          6           0        3.328398    2.021157    0.775296
      6          8           0        3.659678    1.532731    1.830123
      7          6           0        3.062326    3.510689    0.655087
      8          6           0        2.706981    4.079790   -0.737903
[...]
 00086666,0.00068916,-0.00164454,-0.00016341,-0.00201726,0.00206859,-0.
 00018650,0.00116533,-0.00116374,-0.00019317,-0.00742729,-0.00382224,0.
 00003538,0.00373318,0.00122168,-0.00125060,-0.00081464,-0.00265438,-0.
 00011119,-0.00040849,-0.00005543,0.00002539,0.00050353,0.00015353,0.00
 036057,0.00244048,-0.00024160,-0.01666816,0.01854351,-0.03876876,-0.00
 715784,0.06688989,-0.17116833,-0.00969339,-0.10778021,0.28002986,0.006
 56228,-0.00138953,-0.00064492,-0.02168199,0.00234729,-0.01647037,-0.27
 533832,-0.16446733,-0.12287383,0.00008065,-0.00363864,0.00066268,0.006
 01500,0.00086900,0.00933767,-0.00575410,0.00631196,-0.00479887,-0.0012
 6151,0.00068559,-0.00160368,-0.00044705,0.00031197,0.00042211,0.000274
 58,0.00004400,0.00053112,-0.00126665,-0.00089490,-0.00040893,0.0002075
 6,0.00012540,-0.00020540,-0.00005368,-0.00013974,0.00008515,0.29255376
 ,0.00484191,-0.00161385,0.01206922,0.01775388,0.01950537,-0.00667929,-
 0.18709890,-0.15195656,-0.06878075,-0.00105927,-0.00501445,0.00068014,
 0.01037901,-0.00856629,0.01820308,-0.00140023,0.00923419,-0.01019838,-
 0.00324784,0.00022682,-0.00092641,-0.00030047,0.00004636,0.00084024,0.
 00024069,0.00022568,0.00032777,-0.00024791,-0.00149333,-0.00058027,0.0
 0013484,0.00072639,0.00013722,-0.00021582,-0.00040993,-0.00036756,0.15
 979915,0.13809666,-0.00231168,0.00564659,-0.00091961,-0.03394740,-0.01
 818694,-0.02301738,-0.10072469,-0.04689366,-0.08159990,-0.00053178,-0.
 00014151,-0.00080200,0.00213568,0.00481346,0.00574127,-0.00024445,-0.0
 0072713,-0.00870774,-0.00144912,-0.00051848,-0.00032538,-0.00007513,0.
 00008811,0.00023366,0.00045818,0.00013390,0.00092194,-0.00048868,-0.00
 120782,-0.00087585,-0.00011647,-0.00018480,-0.00032221,0.00014770,-0.0
 0006563,0.00037567,0.13591787,0.05678663,0.11108398,0.00078071,-0.0043
 0782,-0.00000396,-0.02567573,0.00815368,0.00609492,0.00348445,-0.00091
 974,-0.00221051,-0.23097114,0.10103078,0.04573108,0.00331966,-0.002120
 27,-0.00364418,0.00119195,-0.00168664,0.00013625,-0.00058600,-0.000642
 37,-0.00047510,0.00026890,0.00013093,0.00030828,-0.00053958,-0.0016833
 9,-0.00140035,-0.00744514,0.00753814,-0.00130349,-0.00005177,0.0006577
 2,0.00047147,0.00039833,-0.00041516,-0.00013371,0.00006015,0.00045548,
 0.00128649,0.25515953,-0.00020983,-0.00498203,-0.00161000,-0.02409359,
 0.01000934,0.00832071,0.00137365,-0.00089374,-0.00151192,0.09912164,-0
 .08143169,-0.02105808,0.02052273,-0.01540075,-0.01101448,-0.00111281,0
 .00196311,0.00483371,-0.00301549,-0.00221130,-0.00188871,0.00041685,0.
 00023628,-0.00017831,0.00071164,0.00136896,0.00196901,0.01389052,-0.01
 025688,0.00114969,-0.00041356,0.00017579,-0.00063144,-0.00015998,0.000
 11669,0.00013026,-0.00001181,0.00038944,0.00061985,-0.10592776,0.10120
 203,0.00015407,0.00109691,0.00045810,0.00899432,-0.00465396,-0.0019820
 2,-0.00049967,0.00140625,-0.00009469,0.04054236,-0.01946807,-0.0543571
 8,0.02241490,-0.01191984,-0.00809472,-0.00197466,0.00036264,0.00195628
 ,-0.00233705,-0.00170747,-0.00193575,-0.00046912,-0.00018577,-0.000004
 33,-0.00162441,-0.00046890,-0.00338693,-0.02411968,0.01460909,0.004589
 30,-0.00059904,0.00085996,0.00110100,0.00050248,-0.00044959,-0.0000839
 2,0.00093316,-0.00000582,-0.00122692,-0.04467164,0.02033785,0.06288213
 ,0.00041899,0.00001823,-0.00007114,-0.00064423,0.00007884,0.00058600,-
 0.00007024,-0.00002264,-0.00016899,-0.00051682,0.00298971,-0.00080623,
 0.00527241,0.01265442,0.01252185,0.00013715,-0.00287746,0.00128492,-0.
 08927006,-0.06259985,-0.08010815,0.00019739,0.00193950,0.00347822,0.00
 098037,-0.00036451,0.00069703,-0.00000269,-0.00001303,-0.00028401,-0.0
 0003938,-0.00005611,0.00005328,-0.00001254,0.00002768,0.00000792,0.000
 17687,0.00020538,0.00010601,0.00008086,0.00040153,0.00024015,0.0937553
 3,-0.00045176,-0.00022913,0.00011250,0.00083432,0.00085531,-0.00091897
 ,0.00020181,-0.00008309,0.00052184,0.00366293,-0.00342029,0.00110287,-
 0.01517032,-0.01987625,-0.02525506,0.00004226,0.00520248,0.00182393,-0
 .05935337,-0.13293276,-0.10632406,0.00666291,0.01102153,0.01164553,-0.
 00016533,-0.00214418,0.00283037,0.00034001,-0.00025354,0.00071885,0.00
 003692,0.00011697,0.00001986,-0.00007024,0.00019236,-0.00010159,-0.000
 33147,-0.00031896,-0.00024409,-0.00025583,-0.00094941,-0.00096712,0.06
 499541,0.14355995,-0.00009147,-0.00004548,0.00020921,0.00002859,-0.000
 02539,-0.00060865,0.00016661,-0.00001800,0.00034558,-0.00091810,0.0001
 2082,0.00089646,0.00075230,-0.00214167,-0.00199062,0.00059714,0.001876
 44,0.00074225,-0.07828545,-0.10925168,-0.18879288,-0.00975953,-0.01657
 562,-0.01802975,0.00003335,0.00471558,-0.00346999,-0.00018730,0.000517
 27,0.00013564,-0.00010139,-0.00003576,0.00009474,-0.00004719,-0.000285
 62,-0.00013962,-0.00009974,-0.00025628,-0.00008505,0.00006622,0.000107
 07,0.00037722,0.08451563,0.11796855,0.20452074,0.00029279,-0.00004294,
 -0.00007983,-0.00027300,0.00051291,0.00035365,0.00021371,0.00014233,0.
 00003895,0.00144427,0.00112379,-0.00037030,-0.02059155,-0.00052907,0.0
 0170874,0.00223303,0.00252616,0.00036424,-0.27682130,-0.04143177,0.053
 82349,-0.00091671,-0.00087199,0.00035058,0.00031747,-0.00011777,-0.000
 39402,0.00003599,0.00008458,0.00017496,-0.00006327,0.00004834,-0.00000
 596,-0.00001159,0.00002759,-0.00002687,-0.00020090,-0.00030736,-0.0000
 8692,-0.00002140,-0.00019889,-0.00030407,-0.01111795,-0.00130959,0.002
 91327,0.30277651,-0.00109951,-0.00012232,0.00009279,0.00140179,-0.0003
 3896,-0.00124412,-0.00050205,-0.00022465,-0.00012429,-0.00416033,-0.00
 225606,0.00083818,0.03223387,0.00665732,-0.00571778,-0.00218852,-0.004
 82941,0.00260096,-0.03205981,-0.04882576,0.00140617,-0.01678292,-0.004
 33146,0.00675876,0.00027516,-0.00012934,-0.00116072,0.00014411,0.00007
 570,0.00004775,-0.00014567,0.00000007,-0.00006258,0.00002617,0.0000229
 3,0.00001695,0.00044702,0.00090685,0.00039355,0.00003528,0.00096879,0.
 00059026,-0.01791838,-0.00253113,0.00462837,0.04033475,0.05517191,-0.0
 0035139,0.00008062,-0.00001584,0.00040465,-0.00014552,-0.00004486,0.00
 006917,0.00012151,-0.00013507,-0.00020390,-0.00074897,0.00035866,-0.00
 022066,0.00073607,-0.00141212,0.00061136,0.00144025,-0.00034128,0.0521
 0043,0.00411693,-0.05149733,0.02867617,0.00716086,-0.01145781,0.000338
 74,0.00117829,0.00140064,-0.00023045,-0.00044946,0.00013737,-0.0000540
 5,-0.00005559,-0.00006970,0.00001601,0.00001707,0.00006365,-0.00010075
 ,-0.00013427,0.00000362,0.00005991,0.00011131,0.00015421,-0.02189657,-
 0.00253701,0.00523894,-0.05868098,-0.01238729,0.06044890,-0.00014697,-
 0.00009870,0.00001680,0.00023217,0.00036889,-0.00015097,0.00001193,-0.
 00022771,0.00018229,-0.00027518,-0.00057094,0.00023643,0.00032151,0.00
 032231,-0.00002835,0.00015077,-0.00035286,0.00026557,0.00057244,0.0002
 9202,0.00029464,-0.25010405,-0.08898889,0.03145679,-0.00247016,-0.0047
 6346,-0.00217178,0.00003063,0.00195652,-0.00065751,0.00031220,-0.00028
 986,0.00002778,-0.00002131,0.00002067,-0.00015409,-0.00003872,0.000041
 20,-0.00005199,-0.00009064,0.00003354,0.00010523,0.00058627,0.00000747
 ,0.00054847,0.00138542,0.00019036,-0.00002192,0.27154111,0.00006749,0.
 00000045,0.00011563,0.00010625,0.00002258,-0.00010096,0.00004327,-0.00
 015185,0.00021845,-0.00107101,-0.00019138,0.00012776,-0.00172160,0.000
 34176,-0.00033290,0.00061057,0.00008271,0.00026492,-0.01252691,-0.0064
 4701,0.00297689,-0.09036883,-0.08429454,0.01653865,-0.01968844,-0.0144
 9293,-0.00090749,-0.00117475,0.00097648,-0.00215539,0.00227493,-0.0002
 5813,-0.00021323,-0.00005266,0.00003722,-0.00015276,-0.00007360,-0.000
 05336,-0.00006201,0.00013659,-0.00010596,0.00003099,0.00045871,0.00089
 849,-0.00043855,0.00003088,-0.00071978,0.00205360,0.10059384,0.0948303
 4,0.00017791,-0.00001297,0.00020482,-0.00018987,0.00011062,0.00006196,
 0.00011363,-0.00022674,0.00037110,-0.00060333,0.00094264,-0.00035343,0
 .00209505,-0.00317020,-0.00001564,-0.00073359,0.00078649,-0.00008773,0
 .02619964,0.01330955,-0.00696671,0.02588505,0.01255020,-0.04868338,-0.
 02198425,-0.01315720,0.00334887,-0.00142817,0.00032130,-0.00145023,0.0
 0251510,-0.00035833,0.00010468,-0.00009386,0.00015872,-0.00027514,-0.0
 0009139,-0.00020419,-0.00013388,0.00003006,-0.00011336,0.00020242,0.00
 006275,-0.00067783,0.00125378,0.00019663,0.00394606,-0.00485376,-0.032
 40717,-0.01436605,0.05787544,-0.00001354,0.00005464,-0.00002036,0.0000
 0153,-0.00004741,0.00002879,0.00000031,0.00003947,-0.00005057,0.000144
 22,-0.00008899,0.00006589,0.00044733,-0.00091292,0.00071471,0.00044879
 ,-0.00032140,0.00019123,0.00165703,-0.00362156,0.00045220,-0.15893699,
 0.12990336,-0.00315137,0.00629130,-0.00762173,-0.00017418,0.00003006,-
 0.00098369,-0.00071794,-0.00048435,-0.00029254,0.00006503,0.00000516,0
 .00004266,0.00008046,-0.00000034,-0.00002061,0.00001488,-0.00002217,-0
 .00001858,-0.00000031,-0.00018434,0.00026435,-0.00026133,0.00128412,-0
 .00039866,-0.00020776,-0.02187459,0.02234302,-0.00038956,0.17062076,-0
 .00024054,-0.00009402,0.00001412,0.00029040,0.00029938,-0.00006255,-0.
 00010441,-0.00014317,0.00000326,0.00062622,0.00069759,-0.00029411,-0.0
 0117392,0.00147069,0.00267867,0.00117691,-0.00138596,0.00047955,0.0080
 3748,-0.01209316,0.00158790,0.12797569,-0.18970886,0.00402311,0.012353
 62,-0.01967873,-0.00112690,0.00005934,0.00032667,-0.00409237,-0.001289
 72,-0.00103731,0.00113538,-0.00010272,0.00029720,-0.00031771,0.0001069
 4,0.00019668,-0.00001559,-0.00003790,-0.00004323,0.00005129,-0.0000281
 9,0.00014639,0.00028682,-0.00014291,0.00047101,-0.00066269,-0.00812653
 ,0.00959465,-0.00015275,-0.13877127,0.20984467,0.00027737,0.00005744,0
 .00022251,-0.00039557,-0.00000462,-0.00024639,0.00024612,-0.00010137,0
 .00043702,-0.00012998,0.00056235,-0.00017216,0.00215440,-0.00213376,-0
 .00644242,-0.00234974,0.00302541,-0.00029006,-0.01783994,0.02647120,-0
 .00248164,-0.00250485,0.00294209,-0.04673190,0.01743929,-0.02109071,0.
 00046997,-0.00103475,-0.00096808,-0.00341615,-0.00124275,-0.00118453,0
 .00136075,-0.00006836,0.00036022,-0.00022869,-0.00026571,-0.00039450,-
 0.00013774,0.00013011,-0.00008647,0.00022925,-0.00025964,-0.00057718,0
 .00034105,-0.00011147,-0.00068062,0.00186769,0.00301317,-0.00298583,0.
 00028663,0.00284700,-0.00340704,0.05466454,-0.00004543,-0.00009527,0.0
 0012167,-0.00117039,0.00037220,-0.00170185,0.00008702,0.00081262,-0.00
 050503,0.01107943,0.00094801,-0.00350801,0.00025072,-0.00012675,0.0001
 2151,-0.00025880,0.00017557,-0.00006518,0.00077416,-0.00095489,0.00054
 973,0.00100376,0.00370341,-0.00455852,-0.05707520,0.02721308,-0.063632
 02,0.00449527,0.00274237,-0.00288321,-0.00677302,-0.00130674,0.0012414
 2,-0.00132800,-0.00055944,-0.00004232,0.00019243,0.00002530,0.00002938
 ,0.00058573,-0.00116468,0.00211235,0.00028353,0.00009484,0.00002817,0.
 00004861,0.00018425,-0.00032400,-0.00004255,0.00009276,0.00079410,0.00
 059078,-0.00073777,0.00001474,0.04728879,-0.00046600,-0.00029145,-0.00
 029756,0.00168319,0.00055519,0.00054720,-0.00036814,-0.00053627,0.0006
 0325,0.00017719,-0.00434150,-0.00163964,-0.00004965,-0.00129750,-0.001
 10541,-0.00004426,0.00053656,0.00040257,-0.00155591,-0.00262247,-0.002
 55980,-0.00384673,0.00914374,-0.01850974,0.02643105,-0.09759114,0.0966
 1824,0.00896398,-0.01142694,0.02968760,0.00106377,-0.00112399,0.003227
 07,-0.00059437,0.00217929,-0.00040409,-0.00013014,-0.00007061,-0.00024
 680,0.00029120,-0.00054703,0.00088236,0.00012463,0.00068339,-0.0011222
 0,0.00010388,-0.00000378,0.00009594,-0.00041130,0.00008687,0.00060053,
 0.00049832,0.00107461,0.00057322,-0.03067354,0.10615426,0.00011745,0.0
 0002669,-0.00007166,0.00008516,-0.00009368,0.00045082,0.00005792,-0.00
 023550,0.00021748,-0.00229042,-0.00069185,0.00115483,0.00030932,-0.000
 73327,0.00012359,-0.00010100,0.00026132,-0.00001410,-0.00180929,-0.003
 31324,-0.00114659,-0.00393514,0.00859843,-0.01540635,-0.06494334,0.101
 30678,-0.27043105,-0.00170304,0.00384087,0.00130521,0.00170419,-0.0006
 5423,-0.00236663,0.00009750,-0.00343072,-0.00135766,-0.00008488,-0.000
 10863,-0.00003015,-0.00003439,0.00021261,-0.00038343,0.00010025,0.0007
 1928,-0.00094495,0.00008595,-0.00001855,0.00014320,-0.00045549,-0.0003
 5758,-0.00038092,0.00056244,0.00021591,0.00088769,0.07293547,-0.106075
 93,0.28837097,-0.00069492,-0.00050442,0.00299556,-0.00046186,0.0000082
 5,-0.00077928,0.00007882,-0.00004051,-0.00005898,0.00013163,-0.0003575
 2,-0.00013383,-0.00002382,-0.00010716,-0.00002991,0.00000849,0.0000835
 2,-0.00000686,-0.00000606,0.00001852,0.00007665,0.00011643,-0.00007601
 ,0.00012211,-0.00025187,0.00033879,-0.00044496,0.00063215,-0.00182300,
 0.00116147,-0.15705360,-0.12283683,0.03466056,0.01110273,0.01600593,-0
 .00922322,-0.00004672,-0.00005481,-0.00002955,-0.00018439,-0.00013406,
 -0.00002808,-0.00002019,0.00001949,-0.00000580,-0.00000397,0.00000419,
 0.00001528,-0.00002393,0.00000349,-0.00003814,-0.00001272,-0.00000091,
 -0.00006008,0.00007032,-0.00009496,-0.00023608,0.16150251,0.00052556,-
 0.00069218,0.00426767,-0.00278084,-0.00031147,-0.00089190,0.00076711,0
 .00001970,0.00042369,0.00071640,0.00014358,0.00005158,0.00026168,-0.00
 022418,-0.00026152,-0.00008122,0.00015127,-0.00000070,-0.00017949,-0.0
 0002098,0.00012072,0.00152078,-0.00065628,-0.00003326,-0.00129782,0.00
 122036,-0.00257187,-0.01426732,-0.01893761,-0.00124319,-0.11779913,-0.
 18879345,0.03966317,-0.00385018,-0.01454564,0.01387582,-0.00001987,-0.
 00014643,0.00003331,-0.00009146,0.00009144,-0.00005160,-0.00001366,0.0
 0004543,-0.00006391,0.00000831,0.00001731,-0.00000216,0.00002447,0.000
 18749,0.00012602,-0.00008650,-0.00027704,-0.00035311,-0.00057514,0.000
 25268,0.00066631,0.12999130,0.21122818,0.00302749,0.00217104,-0.001567
 89,-0.00434050,-0.00104073,-0.00356974,0.00151050,-0.00013821,0.001138
 23,0.00082514,0.00117843,0.00164000,0.00042248,-0.00068343,-0.00058659
 ,-0.00001113,0.00037485,0.00024804,-0.00024011,-0.00006656,0.00029658,
 0.00234968,-0.00093048,0.00017846,-0.00062118,-0.00106459,-0.00410251,
 -0.01627701,-0.02171718,0.00684715,0.02962566,0.03989659,-0.05838357,0
 .01129209,0.02946618,-0.01802500,-0.00019518,-0.00037736,-0.00006098,-
 0.00001336,0.00008546,-0.00012366,-0.00003892,0.00009193,-0.00009981,0
 .00002076,0.00004513,0.00001212,-0.00003833,0.00018286,0.00008118,-0.0
 0010452,-0.00048059,-0.00069124,-0.00097706,-0.00031904,0.00013889,-0.
 03421864,-0.05102545,0.07575375,0.00046307,-0.00014325,0.00102942,-0.0
 0118551,-0.00013740,-0.00029861,0.00040122,-0.00018188,0.00029294,0.00
 017962,0.00027846,0.00024805,0.00010669,-0.00018563,0.00024881,0.00013
 281,0.00005361,0.00008494,-0.00008031,-0.00002923,-0.00006495,-0.00055
 556,-0.00002895,0.00022430,0.00033060,-0.00116313,-0.00042528,0.005748
 63,-0.00084131,-0.00013307,-0.23789281,0.07989479,0.05968798,-0.013754
 50,0.00821959,-0.00593984,-0.00003197,-0.00000646,0.00003700,0.0002041
 2,0.00006041,0.00046977,-0.00000761,-0.00003540,0.00002272,-0.00001058
 ,-0.00000702,0.00000858,-0.00008398,-0.00012246,-0.00013682,0.00001015
 ,0.00005951,0.00009479,0.00024828,-0.00018891,-0.00013644,-0.01795045,
 0.00792021,0.00656594,0.26204468,0.00033591,-0.00025626,0.00076397,-0.
 00062491,-0.00003564,-0.00023907,0.00020059,-0.00000728,0.00016440,0.0
 0007402,-0.00008931,0.00097279,-0.00020853,-0.00035701,-0.00019224,-0.
 00005730,0.00014793,-0.00004197,0.00007905,0.00009210,0.00022486,-0.00
 184079,-0.00051080,0.00056148,-0.00047436,0.00120328,-0.00195416,0.018
 12992,-0.01264092,-0.01192761,0.07819799,-0.08008817,-0.02324153,0.020
 43967,-0.00777302,0.00237294,0.00000425,-0.00004212,-0.00000052,-0.000
 36869,0.00038917,-0.00038329,0.00000211,0.00005186,-0.00003015,0.00001
 933,0.00002936,0.00002978,-0.00004453,-0.00040065,-0.00045020,0.000057
 00,0.00012579,0.00007051,0.00110870,0.00003463,-0.00004798,-0.02074244
 ,0.01073727,0.00565226,-0.09541361,0.09197438,-0.00021549,0.00023799,-
 0.00027738,0.00043373,0.00006539,0.00009402,-0.00007198,0.00009627,-0.
 00009395,0.00038720,-0.00026622,0.00144879,-0.00016072,-0.00073046,-0.
 00010837,-0.00002280,0.00026644,0.00005181,0.00001563,0.00010008,0.000
 31151,-0.00236922,-0.00063682,0.00089478,-0.00009868,0.00045048,-0.002
 32163,0.02095914,-0.01308290,-0.00763079,0.07231849,-0.02997051,-0.067
 11809,-0.03392368,0.01611060,0.00045273,-0.00000476,-0.00007561,-0.000
 05765,-0.00061731,0.00038481,-0.00047447,-0.00004195,0.00007216,-0.000
 06479,0.00002688,0.00005134,0.00004759,-0.00008086,-0.00055339,-0.0007
 2196,0.00010736,0.00012910,0.00003020,0.00091170,-0.00017766,-0.000372
 73,0.00588877,-0.00303946,-0.00018418,-0.06039593,0.02568642,0.0796858
 1,-0.00036601,-0.00016154,0.00012277,0.00033716,0.00045379,-0.00019661
 ,-0.00007785,-0.00023564,0.00015896,0.00001813,0.00032536,0.00014098,-
 0.00007529,-0.00025644,-0.00022327,0.00017938,0.00001553,0.00034095,0.
 00007810,0.00013667,0.00006058,-0.00006999,-0.00033126,0.00009809,-0.0
 0002333,0.00025726,-0.00023865,0.00020470,-0.00088654,0.00089841,-0.01
 538016,0.00152134,0.00549446,-0.49038119,0.09227375,0.04948280,-0.0000
 0132,0.00008284,-0.00007535,0.00005358,-0.00007148,0.00015894,-0.00000
 315,-0.00001943,0.00008484,0.00000031,-0.00001407,-0.00000788,0.000027
 63,0.00003847,0.00002623,-0.00000250,0.00007067,0.00004585,-0.00030545
 ,-0.00091332,-0.00032614,0.00309143,-0.00069322,0.00143619,0.00168346,
 0.00112662,-0.00304552,0.50101236,-0.00066078,-0.00032000,-0.00077642,
 0.00126106,0.00054284,0.00048791,-0.00036760,-0.00013015,-0.00019181,-
 0.00008694,-0.00036348,-0.00033937,-0.00015366,0.00030987,-0.00002403,
 0.00003990,-0.00018686,0.00004508,0.00013050,0.00003098,0.00003906,0.0
 0029299,-0.00038739,0.00008607,0.00044198,0.00041744,-0.00067979,-0.00
 149524,0.00177357,0.00029181,0.02621281,-0.00877705,-0.00011443,0.0660
 2072,-0.02289918,0.00943055,0.00004446,0.00013146,-0.00002040,0.000027
 21,-0.00008902,0.00003385,-0.00000233,-0.00003541,0.00006939,-0.000010
 57,-0.00000861,-0.00001926,0.00002347,0.00005655,0.00003768,-0.0000169
 2,-0.00008385,-0.00009464,-0.00127889,-0.00084853,-0.00008703,0.000299
 13,0.00051054,-0.00130110,0.00199804,-0.00258458,0.00488195,-0.0927193
 6,0.03294086,0.00021922,-0.00024175,0.00026296,-0.00032365,0.00023746,
 -0.00042610,0.00014431,-0.00023798,0.00033833,0.00027476,0.00004794,-0
 .00062171,-0.00007701,0.00009615,-0.00030121,0.00012143,-0.00006674,0.
 00022498,0.00002000,0.00004573,0.00000436,0.00021775,-0.00025960,-0.00
 011928,0.00037937,-0.00055745,0.00003271,-0.00142515,0.00180512,-0.000
 08598,-0.04050133,0.01061003,-0.00286135,0.09696631,-0.00121685,-0.044
 73666,-0.00004135,0.00004502,-0.00005769,0.00019320,-0.00016956,0.0001
 9810,0.00002156,-0.00002478,0.00007050,0.00000234,-0.00002031,-0.00004
 885,0.00007129,0.00011638,0.00013192,-0.00005209,0.00000721,0.00004108
 ,-0.00066304,-0.00078011,0.00011355,0.00037300,0.00030984,0.00106075,-
 0.00148431,0.00200932,-0.00359125,-0.05443662,-0.01175506,0.05037084\\
 0.00000832,0.00000081,0.00000299,-0.00001710,0.00000277,-0.00001704,0.
 00000950,0.00000707,0.00001156,0.00001505,-0.00000547,0.00000195,-0.00
 000127,-0.00000533,0.00001529,-0.00000188,-0.00000091,-0.00000781,0.00
 000066,0.00000341,-0.00000754,-0.00000041,0.00000108,0.00000702,-0.000
 00071,-0.00000733,0.00000229,-0.00000199,0.00001036,-0.00001704,0.0000
 1253,0.00000087,0.00002167,-0.00000235,0.00000913,-0.00000345,0.000000
 57,-0.00000345,-0.00000882,-0.00000699,-0.00000130,0.00000178,0.000000
 39,-0.00000176,0.00000175,-0.00000167,-0.00000203,-0.00000169,-0.00000
 176,-0.00000018,-0.00000111,-0.00000241,-0.00000150,0.00000065,-0.0000
 0187,0.00000059,-0.00000238,-0.00000252,-0.00000265,0.00000119,-0.0000
 0175,-0.00000312,0.00000010,-0.00000236,-0.00000104,-0.00000135\\\@


 A MAN SHOULD NEVER BE ASHAMED TO OWN HE HAS BEEN IN THE WRONG
 WHICH IS BUT SAYING IN OTHER WORDS,
 THAT HE IS WISER TODAY THAN HE WAS YESTERDAY.

                          -- JONATHAN SWIFT
 Job cpu time:       0 days  3 hours 33 minutes 28.7 seconds.
 Elapsed time:       0 days  0 hours 53 minutes 22.5 seconds.
 File lengths (MBytes):  RWF=    256 Int=      0 D2E=      0 Chk=     13 Scr=      1
 Normal termination of Gaussian 16 at Sun May 28 06:49:33 2023.
### All Done ###
