 Entering Gaussian System, Link 0=g16
 Initial command:
 /opt/packages/gaussian/g16RevC.01/g16/l1.exe "/ocean/projects/che200052p/bkalita/tddft-missouri/kia_calc/Gau-21713.inp" -scrdir="/ocean/projects/che200052p/bkalita/tddft-missouri/kia_calc/"
 Entering Link 1 = /opt/packages/gaussian/g16RevC.01/g16/l1.exe PID=     21714.
  
 Copyright (c) 1988-2019, Gaussian, Inc.  All Rights Reserved.
  
 This is part of the Gaussian(R) 16 program.  It is based on
 the Gaussian(R) 09 system (copyright 2009, Gaussian, Inc.),
 the Gaussian(R) 03 system (copyright 2003, Gaussian, Inc.),
 the Gaussian(R) 98 system (copyright 1998, Gaussian, Inc.),
 the Gaussian(R) 94 system (copyright 1995, Gaussian, Inc.),
 the Gaussian 92(TM) system (copyright 1992, Gaussian, Inc.),
 the Gaussian 90(TM) system (copyright 1990, Gaussian, Inc.),
 the Gaussian 88(TM) system (copyright 1988, Gaussian, Inc.),
 the Gaussian 86(TM) system (copyright 1986, Carnegie Mellon
 University), and the Gaussian 82(TM) system (copyright 1983,
 Carnegie Mellon University). Gaussian is a federally registered
 trademark of Gaussian, Inc.
  
 This software contains proprietary and confidential information,
 including trade secrets, belonging to Gaussian, Inc.
  
 This software is provided under written license and may be
 used, copied, transmitted, or stored only in accord with that
 written license.
  
 The following legend is applicable only to US Government
 contracts under FAR:
  
                    RESTRICTED RIGHTS LEGEND
  
 Use, reproduction and disclosure by the US Government is
 subject to restrictions as set forth in subparagraphs (a)
 and (c) of the Commercial Computer Software - Restricted
 Rights clause in FAR 52.227-19.
  
 Gaussian, Inc.
 340 Quinnipiac St., Bldg. 40, Wallingford CT 06492
  
  
 ---------------------------------------------------------------
 Warning -- This program may not be used in any manner that
 competes with the business of Gaussian, Inc. or will provide
 assistance to any competitor of Gaussian, Inc.  The licensee
 of this program is prohibited from giving any competitor of
 Gaussian, Inc. access to this program.  By using this program,
 the user acknowledges that Gaussian, Inc. is engaged in the
 business of creating and licensing software in the field of
 computational chemistry and represents and warrants to the
 licensee that it is not a competitor of Gaussian, Inc. and that
 it will not use this program in any manner prohibited above.
 ---------------------------------------------------------------
  

 Cite this work as:
 Gaussian 16, Revision C.01,
 M. J. Frisch, G. W. Trucks, H. B. Schlegel, G. E. Scuseria, 
 M. A. Robb, J. R. Cheeseman, G. Scalmani, V. Barone, 
 G. A. Petersson, H. Nakatsuji, X. Li, M. Caricato, A. V. Marenich, 
 J. Bloino, B. G. Janesko, R. Gomperts, B. Mennucci, H. P. Hratchian, 
 J. V. Ortiz, A. F. Izmaylov, J. L. Sonnenberg, D. Williams-Young, 
 F. Ding, F. Lipparini, F. Egidi, J. Goings, B. Peng, A. Petrone, 
 T. Henderson, D. Ranasinghe, V. G. Zakrzewski, J. Gao, N. Rega, 
 G. Zheng, W. Liang, M. Hada, M. Ehara, K. Toyota, R. Fukuda, 
 J. Hasegawa, M. Ishida, T. Nakajima, Y. Honda, O. Kitao, H. Nakai, 
 T. Vreven, K. Throssell, J. A. Montgomery, Jr., J. E. Peralta, 
 F. Ogliaro, M. J. Bearpark, J. J. Heyd, E. N. Brothers, K. N. Kudin, 
 V. N. Staroverov, T. A. Keith, R. Kobayashi, J. Normand, 
 K. Raghavachari, A. P. Rendell, J. C. Burant, S. S. Iyengar, 
 J. Tomasi, M. Cossi, J. M. Millam, M. Klene, C. Adamo, R. Cammi, 
 J. W. Ochterski, R. L. Martin, K. Morokuma, O. Farkas, 
 J. B. Foresman, and D. J. Fox, Gaussian, Inc., Wallingford CT, 2019.
 
 ******************************************
 Gaussian 16:  ES64L-G16RevC.01  3-Jul-2019
                21-May-2023 
 ******************************************
 %chk=opt
 -----------------------------
 # b3lyp/6-31g(2df,p) opt freq
 -----------------------------
 1/18=20,19=15,26=3,38=1/1,3;
 2/9=110,12=2,17=6,18=5,40=1/2;
 3/5=1,6=6,7=104,11=2,25=1,30=1,71=1,74=-5/1,2,3;
 4//1;
 5/5=2,38=5/2;
 6/7=2,8=2,9=2,10=2,28=1/1;
 7//1,2,3,16;
 1/18=20,19=15,26=3/3(2);
 2/9=110/2;
 99//99;
 2/9=110/2;
 3/5=1,6=6,7=104,11=2,25=1,30=1,71=1,74=-5/1,2,3;
 4/5=5,16=3,69=1/1;
 5/5=2,38=5/2;
 7//1,2,3,16;
 1/18=20,19=15,26=3/3(-5);
 2/9=110/2;
 6/7=2,8=2,9=2,10=2,19=2,28=1/1;
 99/9=1/99;
 -----------------
 example 1 dft opt
 -----------------
 Symbolic Z-matrix:
 Charge =  0 Multiplicity = 1
 C                     0.82062  -0.08212  -0.04599 
 C                     2.30237  -0.08727  -0.20129 
 O                     2.74881   1.0489   -0.74275 
 N                     3.0483   -1.0753    0.11962 
 C                     4.52404  -1.04401  -0.02443 
 C                     5.12897  -0.36672   1.22323 
 C                     4.90249   1.12844   1.27947 
 O                     4.73347   1.86276   0.30871 
 O                     4.98244   1.6856    2.50123 
 C                     4.9992   -2.53343  -0.09514 
 O                     4.25875  -3.50882  -0.13896 
 O                     6.34369  -2.7257   -0.11904 
 H                     0.45153   0.94689   0.0225 
 H                     0.52466  -0.61819   0.85778 
 H                     0.38896  -0.55491  -0.93066 
 H                     2.64651   1.79928  -0.12298 
 H                     4.83771  -0.56781  -0.96254 
 H                     6.21414  -0.50261   1.25028 
 H                     4.70871  -0.84358   2.11811 
 H                     5.43794   1.15604   3.17947 
 H                     6.92021  -1.94471  -0.1619 
 

 GradGradGradGradGradGradGradGradGradGradGradGradGradGradGradGradGradGrad
 Berny optimization.
 Initialization pass.
                           ----------------------------
                           !    Initial Parameters    !
                           ! (Angstroms and Degrees)  !
 --------------------------                            --------------------------
 ! Name  Definition              Value          Derivative Info.                !
 --------------------------------------------------------------------------------
 ! R1    R(1,2)                  1.4899         estimate D2E/DX2                !
 ! R2    R(1,13)                 1.0953         estimate D2E/DX2                !
 ! R3    R(1,14)                 1.0917         estimate D2E/DX2                !
 ! R4    R(1,15)                 1.092          estimate D2E/DX2                !
 ! R5    R(2,3)                  1.3354         estimate D2E/DX2                !
 ! R6    R(2,4)                  1.2789         estimate D2E/DX2                !
 ! R7    R(3,16)                 0.9786         estimate D2E/DX2                !
 ! R8    R(4,5)                  1.4831         estimate D2E/DX2                !
 ! R9    R(5,6)                  1.5432         estimate D2E/DX2                !
 ! R10   R(5,10)                 1.565          estimate D2E/DX2                !
 ! R11   R(5,17)                 1.0978         estimate D2E/DX2                !
 ! R12   R(6,7)                  1.5133         estimate D2E/DX2                !
 ! R13   R(6,18)                 1.094          estimate D2E/DX2                !
 ! R14   R(6,19)                 1.0976         estimate D2E/DX2                !
 ! R15   R(7,8)                  1.2289         estimate D2E/DX2                !
 ! R16   R(7,9)                  1.3452         estimate D2E/DX2                !
 ! R17   R(9,20)                 0.9736         estimate D2E/DX2                !
 ! R18   R(10,11)                1.2254         estimate D2E/DX2                !
 ! R19   R(10,12)                1.3584         estimate D2E/DX2                !
 ! R20   R(12,21)                0.9717         estimate D2E/DX2                !
 ! A1    A(2,1,13)             110.1751         estimate D2E/DX2                !
 ! A2    A(2,1,14)             110.7459         estimate D2E/DX2                !
 ! A3    A(2,1,15)             107.8899         estimate D2E/DX2                !
 ! A4    A(13,1,14)            108.5538         estimate D2E/DX2                !
 ! A5    A(13,1,15)            108.9165         estimate D2E/DX2                !
 ! A6    A(14,1,15)            110.5432         estimate D2E/DX2                !
 ! A7    A(1,2,3)              111.8269         estimate D2E/DX2                !
 ! A8    A(1,2,4)              123.8204         estimate D2E/DX2                !
 ! A9    A(3,2,4)              124.3357         estimate D2E/DX2                !
 ! A10   A(2,3,16)             111.1398         estimate D2E/DX2                !
 ! A11   A(2,4,5)              122.663          estimate D2E/DX2                !
 ! A12   A(4,5,6)              108.7112         estimate D2E/DX2                !
 ! A13   A(4,5,10)             106.6442         estimate D2E/DX2                !
 ! A14   A(4,5,17)             112.1144         estimate D2E/DX2                !
 ! A15   A(6,5,10)             109.5859         estimate D2E/DX2                !
 ! A16   A(6,5,17)             112.8616         estimate D2E/DX2                !
 ! A17   A(10,5,17)            106.7063         estimate D2E/DX2                !
 ! A18   A(5,6,7)              113.893          estimate D2E/DX2                !
 ! A19   A(5,6,18)             110.7521         estimate D2E/DX2                !
 ! A20   A(5,6,19)             108.5658         estimate D2E/DX2                !
 ! A21   A(7,6,18)             105.6803         estimate D2E/DX2                !
 ! A22   A(7,6,19)             109.9769         estimate D2E/DX2                !
 ! A23   A(18,6,19)            107.7984         estimate D2E/DX2                !
 ! A24   A(6,7,8)              125.565          estimate D2E/DX2                !
 ! A25   A(6,7,9)              115.7277         estimate D2E/DX2                !
 ! A26   A(8,7,9)              118.5644         estimate D2E/DX2                !
 ! A27   A(7,9,20)             115.7999         estimate D2E/DX2                !
 ! A28   A(5,10,11)            125.1491         estimate D2E/DX2                !
 ! A29   A(5,10,12)            115.8504         estimate D2E/DX2                !
 ! A30   A(11,10,12)           118.9983         estimate D2E/DX2                !
 ! A31   A(10,12,21)           118.3117         estimate D2E/DX2                !
 ! D1    D(13,1,2,3)           -25.0337         estimate D2E/DX2                !
 ! D2    D(13,1,2,4)           156.4119         estimate D2E/DX2                !
 ! D3    D(14,1,2,3)          -145.1448         estimate D2E/DX2                !
 ! D4    D(14,1,2,4)            36.3009         estimate D2E/DX2                !
 ! D5    D(15,1,2,3)            93.7521         estimate D2E/DX2                !
 ! D6    D(15,1,2,4)           -84.8023         estimate D2E/DX2                !
 ! D7    D(1,2,3,16)            69.2525         estimate D2E/DX2                !
 ! D8    D(4,2,3,16)          -112.202          estimate D2E/DX2                !
 ! D9    D(1,2,4,5)           -178.9261         estimate D2E/DX2                !
 ! D10   D(3,2,4,5)              2.6992         estimate D2E/DX2                !
 ! D11   D(2,4,5,6)             84.1919         estimate D2E/DX2                !
 ! D12   D(2,4,5,10)          -157.7312         estimate D2E/DX2                !
 ! D13   D(2,4,5,17)           -41.2859         estimate D2E/DX2                !
 ! D14   D(4,5,6,7)            -72.4158         estimate D2E/DX2                !
 ! D15   D(4,5,6,18)           168.6396         estimate D2E/DX2                !
 ! D16   D(4,5,6,19)            50.4699         estimate D2E/DX2                !
 ! D17   D(10,5,6,7)           171.385          estimate D2E/DX2                !
 ! D18   D(10,5,6,18)           52.4404         estimate D2E/DX2                !
 ! D19   D(10,5,6,19)          -65.7293         estimate D2E/DX2                !
 ! D20   D(17,5,6,7)            52.6245         estimate D2E/DX2                !
 ! D21   D(17,5,6,18)          -66.3201         estimate D2E/DX2                !
 ! D22   D(17,5,6,19)          175.5102         estimate D2E/DX2                !
 ! D23   D(4,5,10,11)            5.73           estimate D2E/DX2                !
 ! D24   D(4,5,10,12)         -174.8196         estimate D2E/DX2                !
 ! D25   D(6,5,10,11)          123.2306         estimate D2E/DX2                !
 ! D26   D(6,5,10,12)          -57.3189         estimate D2E/DX2                !
 ! D27   D(17,5,10,11)        -114.2674         estimate D2E/DX2                !
 ! D28   D(17,5,10,12)          65.183          estimate D2E/DX2                !
 ! D29   D(5,6,7,8)            -26.4465         estimate D2E/DX2                !
 ! D30   D(5,6,7,9)            157.9827         estimate D2E/DX2                !
 ! D31   D(18,6,7,8)            95.3477         estimate D2E/DX2                !
 ! D32   D(18,6,7,9)           -80.223          estimate D2E/DX2                !
 ! D33   D(19,6,7,8)          -148.5577         estimate D2E/DX2                !
 ! D34   D(19,6,7,9)            35.8715         estimate D2E/DX2                !
 ! D35   D(6,7,9,20)            18.2061         estimate D2E/DX2                !
 ! D36   D(8,7,9,20)          -157.6921         estimate D2E/DX2                !
 ! D37   D(5,10,12,21)          -4.7179         estimate D2E/DX2                !
 ! D38   D(11,10,12,21)        174.7684         estimate D2E/DX2                !
 --------------------------------------------------------------------------------
 Trust Radius=3.00D-01 FncErr=1.00D-07 GrdErr=1.00D-06 EigMax=2.50D+02 EigMin=1.00D-04
 Number of steps in this run=     99 maximum allowed number of steps=    126.
 GradGradGradGradGradGradGradGradGradGradGradGradGradGradGradGradGradGrad

                          Input orientation:                          
 ---------------------------------------------------------------------
 Center     Atomic      Atomic             Coordinates (Angstroms)
 Number     Number       Type             X           Y           Z
 ---------------------------------------------------------------------
      1          6           0        0.820620   -0.082120   -0.045990
      2          6           0        2.302370   -0.087270   -0.201290
      3          8           0        2.748810    1.048900   -0.742750
      4          7           0        3.048300   -1.075300    0.119620
      5          6           0        4.524040   -1.044010   -0.024430
      6          6           0        5.128970   -0.366720    1.223230
      7          6           0        4.902490    1.128440    1.279470
      8          8           0        4.733470    1.862760    0.308710
      9          8           0        4.982440    1.685600    2.501230
     10          6           0        4.999200   -2.533430   -0.095140
     11          8           0        4.258750   -3.508820   -0.138960
     12          8           0        6.343690   -2.725700   -0.119040
     13          1           0        0.451530    0.946890    0.022500
     14          1           0        0.524660   -0.618190    0.857780
     15          1           0        0.388960   -0.554910   -0.930660
     16          1           0        2.646510    1.799280   -0.122980
     17          1           0        4.837710   -0.567810   -0.962540
     18          1           0        6.214140   -0.502610    1.250280
     19          1           0        4.708710   -0.843580    2.118110
     20          1           0        5.437940    1.156040    3.179470
     21          1           0        6.920210   -1.944710   -0.161900
 ---------------------------------------------------------------------
                    Distance matrix (angstroms):
                    1          2          3          4          5
     1  C    0.000000
     2  C    1.489875   0.000000
     3  O    2.341495   1.335429   0.000000
     4  N    2.444666   1.278905   2.312056   0.000000
     5  C    3.826358   2.425376   2.836846   1.483084   0.000000
     6  C    4.500422   3.177580   3.396207   2.459518   1.543152
     7  C    4.459144   3.229741   2.955341   3.104793   2.561819
     8  O    4.383921   3.158000   2.388893   3.392307   2.933284
     9  O    5.189789   4.198745   3.989724   4.127412   3.746980
    10  C    4.844777   3.642507   4.279806   2.445051   1.564976
    11  O    4.855065   3.941867   4.839142   2.730215   2.481690
    12  O    6.123574   4.827043   5.249741   3.693288   2.479548
    13  H    1.095345   2.131942   2.423532   3.292704   4.533346
    14  H    1.091679   2.136295   3.207449   2.668818   4.117603
    15  H    1.092017   2.100430   2.859442   2.906197   4.261380
    16  H    2.622874   1.919280   0.978596   2.912645   3.408684
    17  H    4.148852   2.690422   2.650578   2.151884   1.097819
    18  H    5.563019   4.193031   4.288107   3.410119   2.185049
    19  H    4.514465   3.426674   3.950596   2.608566   2.159804
    20  H    5.766826   4.775684   4.756754   4.477939   3.992544
    21  H    6.378689   4.977558   5.167172   3.978293   2.563550
                    6          7          8          9         10
     6  C    0.000000
     7  C    1.513261   0.000000
     8  O    2.441997   1.228889   0.000000
     9  O    2.422142   1.345183   2.213711   0.000000
    10  C    2.539601   3.912569   4.422691   4.953951   0.000000
    11  O    3.533502   4.891884   5.411066   5.871655   1.225386
    12  O    2.973553   4.345950   4.881572   5.308332   1.358379
    13  H    5.004575   4.628604   4.388137   5.217177   5.727807
    14  H    4.625631   4.732223   4.916368   5.280168   4.959608
    15  H    5.209832   5.300028   5.124054   6.156120   5.085956
    16  H    3.558995   2.739770   2.132085   3.515106   4.930345
    17  H    2.214240   2.812129   2.744925   4.134792   2.154559
    18  H    1.093980   2.093228   2.945151   2.805392   2.722217
    19  H    1.097645   2.151681   3.255583   2.572637   2.799724
    20  H    2.498226   1.974201   3.039242   0.973614   4.952550
    21  H    2.759924   3.948796   4.415896   4.901670   2.010305
                   11         12         13         14         15
    11  O    0.000000
    12  O    2.227251   0.000000
    13  H    5.862964   6.944458   0.000000
    14  H    4.826247   6.265532   1.775533   0.000000
    15  H    4.932307   6.389825   1.779841   1.794697   0.000000
    16  H    5.547567   5.843338   2.359167   3.362781   3.360222
    17  H    3.108540   2.763324   4.743753   4.681720   4.448883
    18  H    3.845886   2.614182   6.067633   5.704174   6.220286
    19  H    3.521411   3.349683   5.071582   4.375558   5.295146
    20  H    5.844945   5.173824   5.905463   5.716507   6.731472
    21  H    3.087124   0.971678   7.087960   6.610784   6.721589
                   16         17         18         19         20
    16  H    0.000000
    17  H    3.333067   0.000000
    18  H    4.462345   2.606796   0.000000
    19  H    4.032352   3.095657   1.770793   0.000000
    20  H    4.371729   4.526387   2.659959   2.378391   0.000000
    21  H    5.681856   2.621771   2.138326   3.361795   4.793384
                   21
    21  H    0.000000
 Stoichiometry    C6H9NO5
 Framework group  C1[X(C6H9NO5)]
 Deg. of freedom    57
 Full point group                 C1      NOp   1
 Largest Abelian subgroup         C1      NOp   1
 Largest concise Abelian subgroup C1      NOp   1
                         Standard orientation:                         
 ---------------------------------------------------------------------
 Center     Atomic      Atomic             Coordinates (Angstroms)
 Number     Number       Type             X           Y           Z
 ---------------------------------------------------------------------
      1          6           0       -1.845531    2.660555   -0.580394
      2          6           0       -1.092919    1.533263    0.038082
      3          8           0       -1.784462    0.956335    1.024131
      4          7           0        0.085022    1.184071   -0.317051
      5          6           0        0.801870    0.042244    0.300928
      6          6           0        0.359380   -1.258643   -0.401364
      7          6           0       -1.047346   -1.694849   -0.053792
      8          8           0       -1.641497   -1.428007    0.988297
      9          8           0       -1.641259   -2.512624   -0.941502
     10          6           0        2.327761    0.281588    0.048899
     11          8           0        2.809549    1.286715   -0.460190
     12          8           0        3.157630   -0.717579    0.446614
     13          1           0       -2.922271    2.519620   -0.437047
     14          1           0       -1.642475    2.719606   -1.651396
     15          1           0       -1.539539    3.582205   -0.080962
     16          1           0       -2.559025    0.470853    0.674834
     17          1           0        0.663415    0.007642    1.389431
     18          1           0        1.006751   -2.092931   -0.115593
     19          1           0        0.451403   -1.118868   -1.486177
     20          1           0       -1.045981   -2.965041   -1.565109
     21          1           0        2.773593   -1.475254    0.918421
 ---------------------------------------------------------------------
 Rotational constants (GHZ):           1.0446133           0.7525961           0.5002197
 Standard basis: 6-31G(2df,p) (6D, 7F)
 There are   417 symmetry adapted cartesian basis functions of A   symmetry.
 There are   381 symmetry adapted basis functions of A   symmetry.
   381 basis functions,   591 primitive gaussians,   417 cartesian basis functions
    46 alpha electrons       46 beta electrons
       nuclear repulsion energy       739.5295005864 Hartrees.
 NAtoms=   21 NActive=   21 NUniq=   21 SFac= 1.00D+00 NAtFMM=   60 NAOKFM=F Big=F
 Integral buffers will be    131072 words long.
 Raffenetti 2 integral format.
 Two-electron integral symmetry is turned on.
 One-electron integrals computed using PRISM.
 NBasis=   381 RedAO= T EigKep=  2.49D-04  NBF=   381
 NBsUse=   381 1.00D-06 EigRej= -1.00D+00 NBFU=   381
 ExpMin= 1.61D-01 ExpMax= 5.48D+03 ExpMxC= 8.25D+02 IAcc=3 IRadAn=         5 AccDes= 0.00D+00
 Harris functional with IExCor=  402 and IRadAn=       5 diagonalized for initial guess.
 HarFok:  IExCor=  402 AccDes= 0.00D+00 IRadAn=         5 IDoV= 1 UseB2=F ITyADJ=14
 ICtDFT=  3500011 ScaDFX=  1.000000  1.000000  1.000000  1.000000
 FoFCou: FMM=F IPFlag=           0 FMFlag=      100000 FMFlg1=           0
         NFxFlg=           0 DoJE=T BraDBF=F KetDBF=T FulRan=T
         wScrn=  0.000000 ICntrl=       500 IOpCl=  0 I1Cent=   200000004 NGrid=           0
         NMat0=    1 NMatS0=      1 NMatT0=    0 NMatD0=    1 NMtDS0=    0 NMtDT0=    0
 Petite list used in FoFCou.
 Requested convergence on RMS density matrix=1.00D-08 within 128 cycles.
 Requested convergence on MAX density matrix=1.00D-06.
 Requested convergence on             energy=1.00D-06.
 No special actions if energy rises.
 Integral accuracy reduced to 1.0D-05 until final iterations.
 Initial convergence to 1.0D-05 achieved.  Increase integral accuracy.
 SCF Done:  E(RB3LYP) =  -664.947753866     A.U. after   14 cycles
            NFock= 14  Conv=0.72D-08     -V/T= 2.0067

 **********************************************************************

            Population analysis using the SCF Density.

 **********************************************************************

 Orbital symmetries:
       Occupied  (A) (A) (A) (A) (A) (A) (A) (A) (A) (A) (A) (A)
                 (A) (A) (A) (A) (A) (A) (A) (A) (A) (A) (A) (A)
                 (A) (A) (A) (A) (A) (A) (A) (A) (A) (A) (A) (A)
                 (A) (A) (A) (A) (A) (A) (A) (A) (A) (A)
       Virtual   (A) (A) (A) (A) (A) (A) (A) (A) (A) (A) (A) (A)
                 (A) (A) (A) (A) (A) (A) (A) (A) (A) (A) (A) (A)
                 (A) (A) (A) (A) (A) (A) (A) (A) (A) (A) (A) (A)
                 (A) (A) (A) (A) (A) (A) (A) (A) (A) (A) (A) (A)
                 (A) (A) (A) (A) (A) (A) (A) (A) (A) (A) (A) (A)
                 (A) (A) (A) (A) (A) (A) (A) (A) (A) (A) (A) (A)
                 (A) (A) (A) (A) (A) (A) (A) (A) (A) (A) (A) (A)
                 (A) (A) (A) (A) (A) (A) (A) (A) (A) (A) (A) (A)
                 (A) (A) (A) (A) (A) (A) (A) (A) (A) (A) (A) (A)
                 (A) (A) (A) (A) (A) (A) (A) (A) (A) (A) (A) (A)
                 (A) (A) (A) (A) (A) (A) (A) (A) (A) (A) (A) (A)
                 (A) (A) (A) (A) (A) (A) (A) (A) (A) (A) (A) (A)
                 (A) (A) (A) (A) (A) (A) (A) (A) (A) (A) (A) (A)
                 (A) (A) (A) (A) (A) (A) (A) (A) (A) (A) (A) (A)
                 (A) (A) (A) (A) (A) (A) (A) (A) (A) (A) (A) (A)
                 (A) (A) (A) (A) (A) (A) (A) (A) (A) (A) (A) (A)
                 (A) (A) (A) (A) (A) (A) (A) (A) (A) (A) (A) (A)
                 (A) (A) (A) (A) (A) (A) (A) (A) (A) (A) (A) (A)
                 (A) (A) (A) (A) (A) (A) (A) (A) (A) (A) (A) (A)
                 (A) (A) (A) (A) (A) (A) (A) (A) (A) (A) (A) (A)
                 (A) (A) (A) (A) (A) (A) (A) (A) (A) (A) (A) (A)
                 (A) (A) (A) (A) (A) (A) (A) (A) (A) (A) (A) (A)
                 (A) (A) (A) (A) (A) (A) (A) (A) (A) (A) (A) (A)
                 (A) (A) (A) (A) (A) (A) (A) (A) (A) (A) (A) (A)
                 (A) (A) (A) (A) (A) (A) (A) (A) (A) (A) (A) (A)
                 (A) (A) (A) (A) (A) (A) (A) (A) (A) (A) (A) (A)
                 (A) (A) (A) (A) (A) (A) (A) (A) (A) (A) (A) (A)
                 (A) (A) (A) (A) (A) (A) (A) (A) (A) (A) (A)
 The electronic state is 1-A.
 Alpha  occ. eigenvalues --  -19.20555 -19.19082 -19.15513 -19.14078 -19.12117
 Alpha  occ. eigenvalues --  -14.31280 -10.33376 -10.31272 -10.27676 -10.24830
 Alpha  occ. eigenvalues --  -10.23331 -10.18819  -1.11571  -1.09253  -1.06855
 Alpha  occ. eigenvalues --   -1.02302  -1.00243  -0.90401  -0.80572  -0.74354
 Alpha  occ. eigenvalues --   -0.69647  -0.64067  -0.62510  -0.59340  -0.54539
 Alpha  occ. eigenvalues --   -0.52733  -0.50542  -0.49141  -0.47489  -0.46054
 Alpha  occ. eigenvalues --   -0.44750  -0.43752  -0.43185  -0.42152  -0.40623
 Alpha  occ. eigenvalues --   -0.40427  -0.39340  -0.37869  -0.36734  -0.33761
 Alpha  occ. eigenvalues --   -0.31122  -0.30910  -0.28316  -0.27096  -0.26351
 Alpha  occ. eigenvalues --   -0.24974
 Alpha virt. eigenvalues --   -0.02347   0.00382   0.01023   0.04024   0.04483
 Alpha virt. eigenvalues --    0.07224   0.11766   0.12510   0.13609   0.14116
 Alpha virt. eigenvalues --    0.15577   0.17493   0.18098   0.20012   0.20149
 Alpha virt. eigenvalues --    0.23158   0.25058   0.28895   0.29593   0.31587
 Alpha virt. eigenvalues --    0.34157   0.36038   0.39086   0.41389   0.43806
 Alpha virt. eigenvalues --    0.45776   0.46079   0.47024   0.48040   0.50749
 Alpha virt. eigenvalues --    0.51167   0.52812   0.53200   0.54641   0.55824
 Alpha virt. eigenvalues --    0.57427   0.58385   0.58557   0.59844   0.61023
 Alpha virt. eigenvalues --    0.62339   0.62973   0.63849   0.66665   0.67989
 Alpha virt. eigenvalues --    0.69460   0.70535   0.72069   0.72731   0.73334
 Alpha virt. eigenvalues --    0.73689   0.75774   0.76837   0.76901   0.77828
 Alpha virt. eigenvalues --    0.80077   0.81413   0.82506   0.83332   0.84205
 Alpha virt. eigenvalues --    0.85491   0.85871   0.86888   0.87675   0.88499
 Alpha virt. eigenvalues --    0.90402   0.90795   0.91274   0.93455   0.94954
 Alpha virt. eigenvalues --    0.96482   0.98262   0.98508   0.99895   1.00029
 Alpha virt. eigenvalues --    1.00617   1.01882   1.05091   1.08319   1.09515
 Alpha virt. eigenvalues --    1.09943   1.11533   1.13389   1.15658   1.18048
 Alpha virt. eigenvalues --    1.19587   1.19855   1.22499   1.23552   1.26304
 Alpha virt. eigenvalues --    1.29022   1.29258   1.30378   1.32531   1.33319
 Alpha virt. eigenvalues --    1.35126   1.36803   1.38168   1.39212   1.41929
 Alpha virt. eigenvalues --    1.42431   1.43039   1.45117   1.46551   1.49184
 Alpha virt. eigenvalues --    1.50426   1.52353   1.53057   1.53570   1.56996
 Alpha virt. eigenvalues --    1.59205   1.59996   1.61091   1.63342   1.65880
 Alpha virt. eigenvalues --    1.67757   1.69714   1.71451   1.73468   1.76235
 Alpha virt. eigenvalues --    1.78251   1.80946   1.81780   1.84960   1.85939
 Alpha virt. eigenvalues --    1.87682   1.90167   1.93153   1.94852   1.97302
 Alpha virt. eigenvalues --    2.00163   2.01261   2.05056   2.08065   2.11338
 Alpha virt. eigenvalues --    2.11850   2.14340   2.18086   2.19269   2.22571
 Alpha virt. eigenvalues --    2.25693   2.32414   2.35324   2.35884   2.42858
 Alpha virt. eigenvalues --    2.44219   2.45855   2.46201   2.53184   2.54113
 Alpha virt. eigenvalues --    2.56650   2.61034   2.64085   2.67578   2.69415
 Alpha virt. eigenvalues --    2.70915   2.72056   2.73779   2.79211   2.81230
 Alpha virt. eigenvalues --    2.83141   2.84468   2.88840   2.89876   2.91646
 Alpha virt. eigenvalues --    2.92247   2.94020   2.95548   2.97538   2.99437
 Alpha virt. eigenvalues --    3.02463   3.05791   3.07715   3.09426   3.10819
 Alpha virt. eigenvalues --    3.12348   3.13993   3.16153   3.19144   3.19303
 Alpha virt. eigenvalues --    3.19714   3.21601   3.23750   3.25148   3.27724
 Alpha virt. eigenvalues --    3.30480   3.32878   3.36316   3.38563   3.40920
 Alpha virt. eigenvalues --    3.42781   3.46572   3.48874   3.50935   3.56126
 Alpha virt. eigenvalues --    3.62743   3.65410   3.66516   3.70109   3.73390
 Alpha virt. eigenvalues --    3.74344   3.78232   3.79201   3.80245   3.87166
 Alpha virt. eigenvalues --    3.92877   3.94319   3.98226   3.98765   4.02222
 Alpha virt. eigenvalues --    4.04735   4.05219   4.07804   4.10105   4.11575
 Alpha virt. eigenvalues --    4.13570   4.14813   4.16861   4.17376   4.18766
 Alpha virt. eigenvalues --    4.22061   4.23240   4.24325   4.25369   4.27145
 Alpha virt. eigenvalues --    4.28547   4.30527   4.31709   4.33087   4.33836
 Alpha virt. eigenvalues --    4.35559   4.35591   4.36954   4.37695   4.40898
 Alpha virt. eigenvalues --    4.43250   4.44367   4.47830   4.49020   4.49965
 Alpha virt. eigenvalues --    4.51349   4.52851   4.54486   4.55119   4.56602
 Alpha virt. eigenvalues --    4.60147   4.60517   4.61800   4.63886   4.65047
 Alpha virt. eigenvalues --    4.67288   4.67734   4.69179   4.72415   4.73327
 Alpha virt. eigenvalues --    4.74132   4.76309   4.78258   4.80524   4.82329
 Alpha virt. eigenvalues --    4.83348   4.85094   4.89546   4.91827   4.94422
 Alpha virt. eigenvalues --    4.95671   4.96796   5.01430   5.02354   5.04002
 Alpha virt. eigenvalues --    5.06817   5.08645   5.09935   5.11121   5.12961
 Alpha virt. eigenvalues --    5.13846   5.17664   5.18959   5.22646   5.26660
 Alpha virt. eigenvalues --    5.29038   5.30798   5.33254   5.34413   5.35505
 Alpha virt. eigenvalues --    5.38284   5.41551   5.41719   5.44477   5.47352
 Alpha virt. eigenvalues --    5.53699   5.54744   5.56443   5.57637   5.62262
 Alpha virt. eigenvalues --    5.67074   5.69531   5.74262   5.76778   5.78584
 Alpha virt. eigenvalues --    5.79149   5.83710   5.84667   5.94637   5.97100
 Alpha virt. eigenvalues --    6.07095   6.08065   6.09760   6.12883   6.20278
 Alpha virt. eigenvalues --    6.25160   6.34065   6.41008   6.46076   6.57514
 Alpha virt. eigenvalues --    6.59852   6.76620   6.83298   6.90264   7.12378
 Alpha virt. eigenvalues --    7.15487   7.17837  10.80884  10.92575  11.13104
 Alpha virt. eigenvalues --   11.39438  11.84291  11.99485  12.70185  13.02516
 Alpha virt. eigenvalues --   13.11001  13.27713  13.32191  13.45491  17.65711
          Condensed to atoms (all electrons):
               1          2          3          4          5          6
     1  C    5.099267   0.358412  -0.062851  -0.043096   0.007262  -0.000266
     2  C    0.358412   4.386317   0.431064   0.635883  -0.093063  -0.000320
     3  O   -0.062851   0.431064   7.804294  -0.072891  -0.007955   0.000873
     4  N   -0.043096   0.635883  -0.072891   6.516516   0.312579  -0.035409
     5  C    0.007262  -0.093063  -0.007955   0.312579   5.216457   0.286208
     6  C   -0.000266  -0.000320   0.000873  -0.035409   0.286208   5.351133
     7  C   -0.000177   0.003757   0.005706   0.001215  -0.022058   0.306852
     8  O   -0.000015   0.002453  -0.026019   0.000078   0.003781  -0.077745
     9  O   -0.000002  -0.000258  -0.000104   0.000001   0.002680  -0.086152
    10  C   -0.000049   0.000880  -0.000046  -0.034242   0.310881  -0.023333
    11  O   -0.000001   0.000765  -0.000004  -0.001226  -0.059136  -0.002183
    12  O    0.000000   0.000043   0.000000   0.001770  -0.085112   0.004559
    13  H    0.363403  -0.022366   0.001477   0.001909  -0.000224   0.000018
    14  H    0.355602  -0.011410   0.002779   0.000544  -0.000305   0.000043
    15  H    0.368387  -0.012927   0.001173  -0.003555  -0.000290  -0.000008
    16  H   -0.001959  -0.048526   0.294515   0.005937  -0.000012   0.001388
    17  H    0.000163   0.005061   0.007363  -0.025191   0.341931  -0.042847
    18  H    0.000004   0.000120  -0.000093   0.003106  -0.021870   0.323939
    19  H   -0.000075   0.001545   0.000102   0.002358  -0.025291   0.342967
    20  H    0.000001   0.000018  -0.000001  -0.000011   0.000013   0.008600
    21  H    0.000000  -0.000001   0.000001   0.000210   0.009699  -0.001161
               7          8          9         10         11         12
     1  C   -0.000177  -0.000015  -0.000002  -0.000049  -0.000001   0.000000
     2  C    0.003757   0.002453  -0.000258   0.000880   0.000765   0.000043
     3  O    0.005706  -0.026019  -0.000104  -0.000046  -0.000004   0.000000
     4  N    0.001215   0.000078   0.000001  -0.034242  -0.001226   0.001770
     5  C   -0.022058   0.003781   0.002680   0.310881  -0.059136  -0.085112
     6  C    0.306852  -0.077745  -0.086152  -0.023333  -0.002183   0.004559
     7  C    4.282104   0.690717   0.394344   0.000862  -0.000055   0.000170
     8  O    0.690717   7.737066  -0.044742   0.000099   0.000000   0.000000
     9  O    0.394344  -0.044742   7.801988  -0.000030   0.000000   0.000000
    10  C    0.000862   0.000099  -0.000030   4.266778   0.744766   0.368170
    11  O   -0.000055   0.000000   0.000000   0.744766   7.661329  -0.042474
    12  O    0.000170   0.000000   0.000000   0.368170  -0.042474   7.833130
    13  H   -0.000024  -0.000016   0.000001   0.000000   0.000000   0.000000
    14  H    0.000006   0.000007   0.000000  -0.000007   0.000001   0.000000
    15  H    0.000003  -0.000001   0.000000   0.000003   0.000001   0.000000
    16  H    0.001322   0.014261  -0.000386  -0.000003   0.000000   0.000000
    17  H   -0.004688   0.006792   0.000113  -0.027161   0.000541   0.001549
    18  H   -0.014772  -0.000286   0.000092  -0.003546   0.000052   0.005863
    19  H   -0.019835   0.001594   0.001915  -0.000920   0.000485   0.000094
    20  H   -0.050961   0.004760   0.299739  -0.000008   0.000000   0.000000
    21  H   -0.000020   0.000007   0.000003  -0.052822   0.004801   0.297183
              13         14         15         16         17         18
     1  C    0.363403   0.355602   0.368387  -0.001959   0.000163   0.000004
     2  C   -0.022366  -0.011410  -0.012927  -0.048526   0.005061   0.000120
     3  O    0.001477   0.002779   0.001173   0.294515   0.007363  -0.000093
     4  N    0.001909   0.000544  -0.003555   0.005937  -0.025191   0.003106
     5  C   -0.000224  -0.000305  -0.000290  -0.000012   0.341931  -0.021870
     6  C    0.000018   0.000043  -0.000008   0.001388  -0.042847   0.323939
     7  C   -0.000024   0.000006   0.000003   0.001322  -0.004688  -0.014772
     8  O   -0.000016   0.000007  -0.000001   0.014261   0.006792  -0.000286
     9  O    0.000001   0.000000   0.000000  -0.000386   0.000113   0.000092
    10  C    0.000000  -0.000007   0.000003  -0.000003  -0.027161  -0.003546
    11  O    0.000000   0.000001   0.000001   0.000000   0.000541   0.000052
    12  O    0.000000   0.000000   0.000000   0.000000   0.001549   0.005863
    13  H    0.588158  -0.027921  -0.026908   0.002979   0.000005   0.000000
    14  H   -0.027921   0.559387  -0.021112  -0.000272  -0.000001   0.000000
    15  H   -0.026908  -0.021112   0.537086  -0.000123   0.000026   0.000000
    16  H    0.002979  -0.000272  -0.000123   0.419667  -0.001178  -0.000019
    17  H    0.000005  -0.000001   0.000026  -0.001178   0.594867   0.000563
    18  H    0.000000   0.000000   0.000000  -0.000019   0.000563   0.610665
    19  H    0.000003   0.000009   0.000002  -0.000185   0.005668  -0.029825
    20  H    0.000000   0.000000   0.000000   0.000007  -0.000006   0.000779
    21  H    0.000000   0.000000   0.000000   0.000000   0.001440   0.004566
              19         20         21
     1  C   -0.000075   0.000001   0.000000
     2  C    0.001545   0.000018  -0.000001
     3  O    0.000102  -0.000001   0.000001
     4  N    0.002358  -0.000011   0.000210
     5  C   -0.025291   0.000013   0.009699
     6  C    0.342967   0.008600  -0.001161
     7  C   -0.019835  -0.050961  -0.000020
     8  O    0.001594   0.004760   0.000007
     9  O    0.001915   0.299739   0.000003
    10  C   -0.000920  -0.000008  -0.052822
    11  O    0.000485   0.000000   0.004801
    12  O    0.000094   0.000000   0.297183
    13  H    0.000003   0.000000   0.000000
    14  H    0.000009   0.000000   0.000000
    15  H    0.000002   0.000000   0.000000
    16  H   -0.000185   0.000007   0.000000
    17  H    0.005668  -0.000006   0.001440
    18  H   -0.029825   0.000779   0.004566
    19  H    0.570712   0.001272   0.000054
    20  H    0.001272   0.420208  -0.000001
    21  H    0.000054  -0.000001   0.427638
 Mulliken charges:
               1
     1  C   -0.444011
     2  C    0.362554
     3  O   -0.379386
     4  N   -0.266483
     5  C   -0.176172
     6  C   -0.357157
     7  C    0.425532
     8  O   -0.312791
     9  O   -0.369200
    10  C    0.449729
    11  O   -0.307661
    12  O   -0.384943
    13  H    0.119508
    14  H    0.142651
    15  H    0.158244
    16  H    0.312588
    17  H    0.134990
    18  H    0.120663
    19  H    0.147353
    20  H    0.315592
    21  H    0.308403
 Sum of Mulliken charges =   0.00000
 Mulliken charges with hydrogens summed into heavy atoms:
               1
     1  C   -0.023609
     2  C    0.362554
     3  O   -0.066798
     4  N   -0.266483
     5  C   -0.041182
     6  C   -0.089142
     7  C    0.425532
     8  O   -0.312791
     9  O   -0.053608
    10  C    0.449729
    11  O   -0.307661
    12  O   -0.076541
 Electronic spatial extent (au):  <R**2>=           2238.3212
 Charge=              0.0000 electrons
 Dipole moment (field-independent basis, Debye):
    X=             -2.1778    Y=             -3.8079    Z=             -1.1492  Tot=              4.5347
 Quadrupole moment (field-independent basis, Debye-Ang):
   XX=            -78.8496   YY=            -61.3092   ZZ=            -66.9399
   XY=            -14.8700   XZ=              8.5625   YZ=              5.6633
 Traceless Quadrupole moment (field-independent basis, Debye-Ang):
   XX=             -9.8167   YY=              7.7237   ZZ=              2.0930
   XY=            -14.8700   XZ=              8.5625   YZ=              5.6633
 Octapole moment (field-independent basis, Debye-Ang**2):
  XXX=            -53.6234  YYY=            -29.1246  ZZZ=             -4.8708  XYY=              1.2938
  XXY=             -6.7896  XXZ=              8.2405  XZZ=              7.4380  YZZ=            -14.3161
  YYZ=             -9.4388  XYZ=             -2.2392
 Hexadecapole moment (field-independent basis, Debye-Ang**3):
 XXXX=          -1510.4508 YYYY=           -956.1135 ZZZZ=           -214.5722 XXXY=            -66.3019
 XXXZ=             16.2357 YYYX=            -34.3491 YYYZ=             55.9481 ZZZX=             11.9191
 ZZZY=             21.9600 XXYY=           -433.4525 XXZZ=           -271.2001 YYZZ=           -188.0209
 XXYZ=             -2.2763 YYXZ=             28.5387 ZZXY=              3.5063
 N-N= 7.395295005864D+02 E-N=-3.038109078579D+03  KE= 6.605164817729D+02
 Calling FoFJK, ICntrl=      2127 FMM=F ISym2X=0 I1Cent= 0 IOpClX= 0 NMat=1 NMatS=1 NMatT=0.
 ***** Axes restored to original set *****
 -------------------------------------------------------------------
 Center     Atomic                   Forces (Hartrees/Bohr)
 Number     Number              X              Y              Z
 -------------------------------------------------------------------
      1        6          -0.006839087   -0.006722086    0.010657970
      2        6           0.014641425   -0.015765067    0.014457443
      3        8           0.002813954    0.023282962   -0.016408195
      4        7          -0.002356521    0.005099947   -0.003434755
      5        6          -0.022056728   -0.011877278    0.002499706
      6        6          -0.001797741   -0.001640152   -0.005417933
      7        6           0.008688009    0.028976876   -0.031932156
      8        8           0.014082744   -0.023550984    0.042236100
      9        8           0.003948505    0.007478242    0.012624592
     10        6          -0.027468743   -0.025415274   -0.003091721
     11        8           0.031705512    0.040907847    0.002428141
     12        8           0.007057516   -0.005065174   -0.000888013
     13        1           0.000014210   -0.002208770   -0.002049043
     14        1          -0.002825363   -0.004286073   -0.003154743
     15        1          -0.004885763   -0.000455736    0.000648880
     16        1           0.001126201   -0.009515623   -0.013507182
     17        1           0.002253166    0.005112418    0.003805654
     18        1           0.002838423   -0.001488173    0.002291566
     19        1           0.001445287    0.000272456   -0.002005068
     20        1          -0.008695164   -0.003056307   -0.009419150
     21        1          -0.013689844   -0.000084052   -0.000342092
 -------------------------------------------------------------------
 Cartesian Forces:  Max     0.042236100 RMS     0.013833103

 GradGradGradGradGradGradGradGradGradGradGradGradGradGradGradGradGradGrad
 Berny optimization.
 FormGI is forming the generalized inverse of G from B-inverse, IUseBI=4.
 Internal  Forces:  Max     0.058127836 RMS     0.016152752
 Search for a local minimum.
 Step number   1 out of a maximum of   99
 All quantities printed in internal units (Hartrees-Bohrs-Radians)
 Mixed Optimization -- RFO/linear search
 Second derivative matrix not updated -- first step.
 ITU=  0
     Eigenvalues ---    0.00230   0.00230   0.00591   0.00593   0.00684
     Eigenvalues ---    0.00900   0.01014   0.01791   0.02242   0.02417
     Eigenvalues ---    0.02546   0.03294   0.03930   0.04829   0.05280
     Eigenvalues ---    0.05631   0.07446   0.07654   0.07717   0.09564
     Eigenvalues ---    0.12934   0.16000   0.16000   0.16000   0.16000
     Eigenvalues ---    0.16000   0.16000   0.16870   0.19256   0.22002
     Eigenvalues ---    0.24963   0.24994   0.24998   0.24999   0.25000
     Eigenvalues ---    0.25000   0.25000   0.26416   0.28242   0.31025
     Eigenvalues ---    0.33463   0.33925   0.33944   0.34202   0.34219
     Eigenvalues ---    0.34357   0.34581   0.34619   0.51658   0.52645
     Eigenvalues ---    0.53036   0.53277   0.56059   0.58242   0.73409
     Eigenvalues ---    0.91551   0.93036
 RFO step:  Lambda=-9.04421370D-02 EMin= 2.30000000D-03
 Linear search not attempted -- first point.
 Maximum step size (   0.300) exceeded in Quadratic search.
    -- Step size scaled by   0.805
 Iteration  1 RMS(Cart)=  0.29936597 RMS(Int)=  0.02726236
 Iteration  2 RMS(Cart)=  0.11137316 RMS(Int)=  0.00366657
 Iteration  3 RMS(Cart)=  0.00647035 RMS(Int)=  0.00105659
 Iteration  4 RMS(Cart)=  0.00001807 RMS(Int)=  0.00105656
 Iteration  5 RMS(Cart)=  0.00000003 RMS(Int)=  0.00105656
 Variable       Old X    -DE/DX   Delta X   Delta X   Delta X     New X
                                 (Linear)    (Quad)   (Total)
    R1        2.81546   0.01505   0.00000   0.02851   0.02851   2.84396
    R2        2.06990  -0.00221   0.00000  -0.00411  -0.00411   2.06579
    R3        2.06297   0.00026   0.00000   0.00048   0.00048   2.06345
    R4        2.06361   0.00160   0.00000   0.00296   0.00296   2.06657
    R5        2.52359   0.02516   0.00000   0.03011   0.03011   2.55371
    R6        2.41678  -0.01212   0.00000  -0.01184  -0.01184   2.40494
    R7        1.84928  -0.01597   0.00000  -0.02119  -0.02119   1.82809
    R8        2.80262  -0.00270   0.00000  -0.00503  -0.00503   2.79760
    R9        2.91613   0.01788   0.00000   0.03862   0.03862   2.95476
   R10        2.95738  -0.01049   0.00000  -0.02381  -0.02381   2.93356
   R11        2.07458  -0.00039   0.00000  -0.00073  -0.00073   2.07384
   R12        2.85965   0.00753   0.00000   0.01514   0.01514   2.87479
   R13        2.06732   0.00306   0.00000   0.00567   0.00567   2.07300
   R14        2.07425  -0.00231   0.00000  -0.00432  -0.00432   2.06993
   R15        2.32226  -0.04937   0.00000  -0.03953  -0.03953   2.28274
   R16        2.54203   0.00446   0.00000   0.00552   0.00552   2.54754
   R17        1.83986  -0.00897   0.00000  -0.01171  -0.01171   1.82816
   R18        2.31564  -0.05181   0.00000  -0.04087  -0.04087   2.27477
   R19        2.56696  -0.00581   0.00000  -0.00751  -0.00751   2.55945
   R20        1.83620  -0.00818   0.00000  -0.01061  -0.01061   1.82560
    A1        1.92292   0.00007   0.00000   0.00139   0.00136   1.92427
    A2        1.93288   0.00284   0.00000   0.00958   0.00953   1.94242
    A3        1.88303   0.00507   0.00000   0.01471   0.01469   1.89773
    A4        1.89462   0.00081   0.00000   0.00561   0.00555   1.90017
    A5        1.90095  -0.00320   0.00000  -0.01115  -0.01117   1.88979
    A6        1.92934  -0.00572   0.00000  -0.02062  -0.02065   1.90869
    A7        1.95175   0.01126   0.00000   0.02624   0.02518   1.97693
    A8        2.16107  -0.02715   0.00000  -0.06464  -0.06556   2.09551
    A9        2.17007   0.01562   0.00000   0.03648   0.03527   2.20533
   A10        1.93976   0.00697   0.00000   0.02242   0.02242   1.96218
   A11        2.14087   0.04976   0.00000   0.11770   0.11770   2.25858
   A12        1.89737   0.02738   0.00000   0.08556   0.08209   1.97946
   A13        1.86129  -0.01262   0.00000  -0.05261  -0.04994   1.81135
   A14        1.95676  -0.00264   0.00000   0.01526   0.01152   1.96829
   A15        1.91263  -0.02414   0.00000  -0.07937  -0.07783   1.83481
   A16        1.96981   0.00439   0.00000   0.02813   0.02474   1.99454
   A17        1.86238   0.00497   0.00000  -0.00774  -0.00741   1.85497
   A18        1.98781   0.05813   0.00000   0.15652   0.15646   2.14427
   A19        1.93299  -0.00920   0.00000  -0.01866  -0.01793   1.91506
   A20        1.89483  -0.02158   0.00000  -0.05704  -0.05852   1.83631
   A21        1.84447  -0.02437   0.00000  -0.06776  -0.06825   1.77622
   A22        1.91946  -0.01144   0.00000  -0.01589  -0.01599   1.90347
   A23        1.88144   0.00657   0.00000  -0.00357  -0.00569   1.87575
   A24        2.19152   0.01072   0.00000   0.02512   0.02506   2.21658
   A25        2.01983  -0.00798   0.00000  -0.01916  -0.01920   2.00062
   A26        2.06934  -0.00289   0.00000  -0.00716  -0.00720   2.06214
   A27        2.02109  -0.01315   0.00000  -0.04229  -0.04229   1.97880
   A28        2.18426   0.00224   0.00000   0.00529   0.00528   2.18955
   A29        2.02197  -0.00332   0.00000  -0.00786  -0.00787   2.01410
   A30        2.07691   0.00107   0.00000   0.00252   0.00252   2.07943
   A31        2.06493  -0.02014   0.00000  -0.06476  -0.06476   2.00017
    D1       -0.43692  -0.00511   0.00000  -0.04218  -0.04145  -0.47837
    D2        2.72990   0.00565   0.00000   0.03864   0.03794   2.76785
    D3       -2.53325  -0.00799   0.00000  -0.05626  -0.05555  -2.58881
    D4        0.63357   0.00277   0.00000   0.02457   0.02384   0.65741
    D5        1.63628  -0.00591   0.00000  -0.04609  -0.04538   1.59090
    D6       -1.48008   0.00485   0.00000   0.03474   0.03402  -1.44606
    D7        1.20868   0.00384   0.00000   0.02806   0.03008   1.23876
    D8       -1.95829  -0.00772   0.00000  -0.05499  -0.05700  -2.01530
    D9       -3.12285   0.01607   0.00000   0.09932   0.09944  -3.02341
   D10        0.04711   0.02834   0.00000   0.19060   0.19048   0.23759
   D11        1.46943   0.04171   0.00000   0.28550   0.28672   1.75615
   D12       -2.75293   0.02066   0.00000   0.20797   0.20715  -2.54578
   D13       -0.72058   0.01764   0.00000   0.17512   0.17471  -0.54586
   D14       -1.26389  -0.01880   0.00000  -0.11201  -0.11290  -1.37679
   D15        2.94332  -0.02026   0.00000  -0.11758  -0.11927   2.82404
   D16        0.88087  -0.00974   0.00000  -0.06756  -0.06995   0.81092
   D17        2.99123  -0.00577   0.00000  -0.05338  -0.05192   2.93931
   D18        0.91526  -0.00723   0.00000  -0.05896  -0.05830   0.85696
   D19       -1.14719   0.00329   0.00000  -0.00894  -0.00897  -1.15616
   D20        0.91847   0.00149   0.00000  -0.00789  -0.00616   0.91231
   D21       -1.15750   0.00003   0.00000  -0.01346  -0.01254  -1.17004
   D22        3.06323   0.01055   0.00000   0.03655   0.03679   3.10002
   D23        0.10001  -0.00724   0.00000  -0.02042  -0.02152   0.07848
   D24       -3.05118  -0.00799   0.00000  -0.02655  -0.02766  -3.07884
   D25        2.15078   0.00550   0.00000   0.01005   0.01078   2.16156
   D26       -1.00040   0.00476   0.00000   0.00392   0.00464  -0.99577
   D27       -1.99434  -0.00019   0.00000  -0.00688  -0.00649  -2.00083
   D28        1.13766  -0.00093   0.00000  -0.01301  -0.01263   1.12503
   D29       -0.46158  -0.00709   0.00000  -0.05191  -0.05041  -0.51199
   D30        2.75732  -0.00459   0.00000  -0.03275  -0.03116   2.72616
   D31        1.66413  -0.00037   0.00000  -0.02766  -0.02896   1.63517
   D32       -1.40016   0.00212   0.00000  -0.00850  -0.00971  -1.40986
   D33       -2.59282  -0.01150   0.00000  -0.07638  -0.07672  -2.66954
   D34        0.62608  -0.00900   0.00000  -0.05722  -0.05747   0.56861
   D35        0.31776  -0.00620   0.00000  -0.04588  -0.04572   0.27204
   D36       -2.75225  -0.00455   0.00000  -0.02971  -0.02987  -2.78211
   D37       -0.08234  -0.00019   0.00000  -0.00096  -0.00097  -0.08331
   D38        3.05028  -0.00088   0.00000  -0.00668  -0.00667   3.04361
         Item               Value     Threshold  Converged?
 Maximum Force            0.058128     0.000450     NO 
 RMS     Force            0.016153     0.000300     NO 
 Maximum Displacement     1.666754     0.001800     NO 
 RMS     Displacement     0.392772     0.001200     NO 
 Predicted change in Energy=-5.988629D-02
 GradGradGradGradGradGradGradGradGradGradGradGradGradGradGradGradGradGrad

                          Input orientation:                          
 ---------------------------------------------------------------------
 Center     Atomic      Atomic             Coordinates (Angstroms)
 Number     Number       Type             X           Y           Z
 ---------------------------------------------------------------------
      1          6           0        0.710945   -0.216386   -0.043902
      2          6           0        2.166347   -0.076854   -0.400609
      3          8           0        2.397451    0.865071   -1.341649
      4          7           0        3.021942   -0.884440    0.084551
      5          6           0        4.498904   -0.859624   -0.013555
      6          6           0        5.197221   -0.294523    1.266223
      7          6           0        5.294165    1.194084    1.564425
      8          8           0        5.338736    2.095062    0.761028
      9          8           0        5.450096    1.496729    2.868830
     10          6           0        4.891743   -2.360752   -0.060008
     11          8           0        4.119806   -3.283625   -0.098078
     12          8           0        6.222394   -2.612829   -0.075198
     13          1           0        0.187563    0.728281   -0.213293
     14          1           0        0.584930   -0.507565    1.000919
     15          1           0        0.262661   -0.977277   -0.688890
     16          1           0        2.267763    1.762665   -1.004988
     17          1           0        4.854880   -0.419191   -0.953584
     18          1           0        6.252601   -0.593636    1.274766
     19          1           0        4.706299   -0.796529    2.106934
     20          1           0        5.716854    0.739957    3.409234
     21          1           0        6.780219   -1.825885   -0.128434
 ---------------------------------------------------------------------
                    Distance matrix (angstroms):
                    1          2          3          4          5
     1  C    0.000000
     2  C    1.504960   0.000000
     3  O    2.387048   1.351365   0.000000
     4  N    2.409046   1.272642   2.341970   0.000000
     5  C    3.842305   2.490654   3.025642   1.480425   0.000000
     6  C    4.674312   3.465819   3.998045   2.544835   1.563591
     7  C    5.057869   3.906390   4.116365   3.416619   2.709276
     8  O    5.235184   4.016301   3.819069   3.834396   3.167881
     9  O    5.820508   4.893710   5.238870   4.395236   3.842565
    10  C    4.698685   3.572111   4.274345   2.386745   1.552374
    11  O    4.585981   3.767082   4.660971   2.644759   2.454922
    12  O    6.009990   4.794640   5.322581   3.640843   2.459257
    13  H    1.093169   2.144509   2.485056   3.274643   4.598804
    14  H    1.091932   2.156542   3.264504   2.630740   4.058607
    15  H    1.093583   2.125532   2.894419   2.867134   4.291348
    16  H    2.695183   1.938914   0.967385   2.960244   3.582921
    17  H    4.247452   2.766077   2.799800   2.157277   1.097431
    18  H    5.708866   4.446506   4.882175   3.455190   2.192253
    19  H    4.574441   3.641024   4.470393   2.633404   2.131541
    20  H    6.156124   5.271450   5.796980   4.577634   3.969578
    21  H    6.279627   4.941761   5.284108   3.880249   2.480173
                    6          7          8          9         10
     6  C    0.000000
     7  C    1.521274   0.000000
     8  O    2.446501   1.207971   0.000000
     9  O    2.416791   1.348103   2.193908   0.000000
    10  C    2.474168   3.929069   4.552822   4.875449   0.000000
    11  O    3.457871   4.918629   5.581589   5.781349   1.203758
    12  O    2.867914   4.247653   4.862547   5.113923   1.354402
    13  H    5.322759   5.427212   5.417746   6.146889   5.629826
    14  H    4.624824   5.038853   5.424932   5.583558   4.807131
    15  H    5.351494   5.925222   6.108032   6.759256   4.872155
    16  H    4.239356   4.010520   3.558114   5.020401   4.978034
    17  H    2.249507   3.022581   3.081475   4.316929   2.137638
    18  H    1.096982   2.049011   2.885858   2.748578   2.599279
    19  H    1.095358   2.145330   3.251575   2.528389   2.678959
    20  H    2.435706   1.946334   2.998712   0.967419   4.725552
    21  H    2.606918   3.767538   4.271165   4.668252   1.963952
                   11         12         13         14         15
    11  O    0.000000
    12  O    2.207118   0.000000
    13  H    5.618826   6.899368   0.000000
    14  H    4.627056   6.113196   1.777506   0.000000
    15  H    4.532755   6.210480   1.772219   1.783239   0.000000
    16  H    5.451384   5.970641   2.454376   3.465478   3.409931
    17  H    3.078507   2.730147   4.862980   4.696846   4.633572
    18  H    3.697236   2.429085   6.383296   5.674935   6.315259
    19  H    3.375159   3.218570   5.303534   4.276967   5.253114
    20  H    5.571446   4.861893   6.610287   5.804561   7.035036
    21  H    3.033765   0.966065   7.070650   6.433896   6.596424
                   16         17         18         19         20
    16  H    0.000000
    17  H    3.384717   0.000000
    18  H    5.160268   2.636209   0.000000
    19  H    4.709563   3.087269   1.767688   0.000000
    20  H    5.694516   4.595738   2.573218   2.253441   0.000000
    21  H    5.831663   2.523211   1.940564   3.218321   4.497709
                   21
    21  H    0.000000
 Stoichiometry    C6H9NO5
 Framework group  C1[X(C6H9NO5)]
 Deg. of freedom    57
 Full point group                 C1      NOp   1
 Largest Abelian subgroup         C1      NOp   1
 Largest concise Abelian subgroup C1      NOp   1
                         Standard orientation:                         
 ---------------------------------------------------------------------
 Center     Atomic      Atomic             Coordinates (Angstroms)
 Number     Number       Type             X           Y           Z
 ---------------------------------------------------------------------
      1          6           0       -3.097956   -1.153391   -0.896137
      2          6           0       -1.980808   -0.744282    0.025554
      3          8           0       -2.033823   -1.352129    1.231331
      4          7           0       -1.175951    0.179372   -0.318954
      5          6           0        0.057575    0.649375    0.351247
      6          6           0        1.367271    0.091796   -0.295760
      7          6           0        1.883199   -1.315102   -0.033593
      8          8           0        1.725253   -1.972588    0.967386
      9          8           0        2.684656   -1.808499   -0.998791
     10          6           0        0.078959    2.173967    0.059653
     11          8           0       -0.786716    2.788508   -0.507779
     12          8           0        1.170265    2.836641    0.511672
     13          1           0       -3.442155   -2.161216   -0.649487
     14          1           0       -2.777671   -1.135117   -1.939880
     15          1           0       -3.935001   -0.462603   -0.761638
     16          1           0       -1.812036   -2.292383    1.180668
     17          1           0        0.013907    0.545484    1.442876
     18          1           0        2.222853    0.705026    0.012945
     19          1           0        1.236134    0.229486   -1.374488
     20          1           0        3.017207   -1.131669   -1.604770
     21          1           0        1.781902    2.297741    1.030102
 ---------------------------------------------------------------------
 Rotational constants (GHZ):           0.8348869           0.7622369           0.4650908
 Standard basis: 6-31G(2df,p) (6D, 7F)
 There are   417 symmetry adapted cartesian basis functions of A   symmetry.
 There are   381 symmetry adapted basis functions of A   symmetry.
   381 basis functions,   591 primitive gaussians,   417 cartesian basis functions
    46 alpha electrons       46 beta electrons
       nuclear repulsion energy       718.7802719842 Hartrees.
 NAtoms=   21 NActive=   21 NUniq=   21 SFac= 1.00D+00 NAtFMM=   60 NAOKFM=F Big=F
 Integral buffers will be    131072 words long.
 Raffenetti 2 integral format.
 Two-electron integral symmetry is turned on.
 One-electron integrals computed using PRISM.
 NBasis=   381 RedAO= T EigKep=  2.77D-04  NBF=   381
 NBsUse=   381 1.00D-06 EigRej= -1.00D+00 NBFU=   381
 Initial guess from the checkpoint file:  "opt.chk"
 B after Tr=     0.000000    0.000000    0.000000
         Rot=    0.763728    0.010844    0.023319   -0.645026 Ang=  80.41 deg.
 ExpMin= 1.61D-01 ExpMax= 5.48D+03 ExpMxC= 8.25D+02 IAcc=3 IRadAn=         5 AccDes= 0.00D+00
 Harris functional with IExCor=  402 and IRadAn=       5 diagonalized for initial guess.
 HarFok:  IExCor=  402 AccDes= 0.00D+00 IRadAn=         5 IDoV= 1 UseB2=F ITyADJ=14
 ICtDFT=  3500011 ScaDFX=  1.000000  1.000000  1.000000  1.000000
 FoFCou: FMM=F IPFlag=           0 FMFlag=      100000 FMFlg1=           0
         NFxFlg=           0 DoJE=T BraDBF=F KetDBF=T FulRan=T
         wScrn=  0.000000 ICntrl=       500 IOpCl=  0 I1Cent=   200000004 NGrid=           0
         NMat0=    1 NMatS0=      1 NMatT0=    0 NMatD0=    1 NMtDS0=    0 NMtDT0=    0
 Petite list used in FoFCou.
 Requested convergence on RMS density matrix=1.00D-08 within 128 cycles.
 Requested convergence on MAX density matrix=1.00D-06.
 Requested convergence on             energy=1.00D-06.
 No special actions if energy rises.
 Integral accuracy reduced to 1.0D-05 until final iterations.
 Initial convergence to 1.0D-05 achieved.  Increase integral accuracy.
 SCF Done:  E(RB3LYP) =  -664.953814902     A.U. after   15 cycles
            NFock= 15  Conv=0.56D-08     -V/T= 2.0067
 Calling FoFJK, ICntrl=      2127 FMM=F ISym2X=0 I1Cent= 0 IOpClX= 0 NMat=1 NMatS=1 NMatT=0.
 ***** Axes restored to original set *****
 -------------------------------------------------------------------
 Center     Atomic                   Forces (Hartrees/Bohr)
 Number     Number              X              Y              Z
 -------------------------------------------------------------------
      1        6          -0.001776040    0.000031457    0.004693059
      2        6           0.012317958   -0.016762036    0.013342302
      3        8           0.018935185    0.014231830   -0.012484975
      4        7           0.005795389    0.016045252    0.016302519
      5        6          -0.020655257   -0.006153300   -0.006995625
      6        6          -0.008960817   -0.000632313   -0.000253832
      7        6           0.002041460    0.016074082   -0.017665786
      8        8          -0.009156806   -0.014895998    0.002328682
      9        8           0.004980176    0.000617850    0.010207585
     10        6          -0.008923954   -0.011896439   -0.006723134
     11        8           0.010948497    0.014115653    0.001689380
     12        8           0.008340918   -0.005257290   -0.001563066
     13        1          -0.000822435   -0.000470325   -0.001103549
     14        1           0.000332040   -0.002989243   -0.001840929
     15        1          -0.002301780   -0.000054425    0.000460938
     16        1          -0.003038485   -0.004110709   -0.000885115
     17        1           0.003386297    0.007130681    0.003188598
     18        1          -0.001531330   -0.004546773    0.000530996
     19        1           0.001933453   -0.000176769    0.001273935
     20        1          -0.006264071   -0.000985514   -0.002947565
     21        1          -0.005580395    0.000684331   -0.001554421
 -------------------------------------------------------------------
 Cartesian Forces:  Max     0.020655257 RMS     0.008393209

 GradGradGradGradGradGradGradGradGradGradGradGradGradGradGradGradGradGrad
 Berny optimization.
 Using GEDIIS/GDIIS optimizer.
 FormGI is forming the generalized inverse of G from B-inverse, IUseBI=4.
 Internal  Forces:  Max     0.045237631 RMS     0.009553670
 Search for a local minimum.
 Step number   2 out of a maximum of   99
 All quantities printed in internal units (Hartrees-Bohrs-Radians)
 Mixed Optimization -- RFO/linear search
 Update second derivatives using D2CorX and points    1    2
 DE= -6.06D-03 DEPred=-5.99D-02 R= 1.01D-01
 Trust test= 1.01D-01 RLast= 6.00D-01 DXMaxT set to 3.00D-01
 ITU=  0  0
 Use linear search instead of GDIIS.
     Eigenvalues ---    0.00230   0.00237   0.00591   0.00683   0.00820
     Eigenvalues ---    0.00901   0.01018   0.01924   0.02242   0.02411
     Eigenvalues ---    0.02543   0.03100   0.03629   0.04971   0.05454
     Eigenvalues ---    0.06266   0.07338   0.07631   0.07949   0.10884
     Eigenvalues ---    0.13816   0.15411   0.16000   0.16000   0.16000
     Eigenvalues ---    0.16000   0.16001   0.16904   0.19632   0.23011
     Eigenvalues ---    0.24321   0.24904   0.24947   0.24996   0.24998
     Eigenvalues ---    0.25000   0.26389   0.28031   0.30990   0.32452
     Eigenvalues ---    0.33415   0.33925   0.33941   0.34199   0.34351
     Eigenvalues ---    0.34579   0.34619   0.48072   0.51148   0.52526
     Eigenvalues ---    0.52960   0.53432   0.56202   0.57818   0.73669
     Eigenvalues ---    0.85588   0.92325
 RFO step:  Lambda=-1.60790127D-02 EMin= 2.29641642D-03
 Quartic linear search produced a step of -0.56338.
 Iteration  1 RMS(Cart)=  0.19147127 RMS(Int)=  0.03329548
 Iteration  2 RMS(Cart)=  0.12001460 RMS(Int)=  0.00545556
 Iteration  3 RMS(Cart)=  0.00786649 RMS(Int)=  0.00054044
 Iteration  4 RMS(Cart)=  0.00002501 RMS(Int)=  0.00054028
 Iteration  5 RMS(Cart)=  0.00000001 RMS(Int)=  0.00054028
 Variable       Old X    -DE/DX   Delta X   Delta X   Delta X     New X
                                 (Linear)    (Quad)   (Total)
    R1        2.84396   0.00526  -0.01606   0.03936   0.02330   2.86726
    R2        2.06579   0.00016   0.00232  -0.00448  -0.00217   2.06362
    R3        2.06345  -0.00100  -0.00027  -0.00074  -0.00101   2.06245
    R4        2.06657   0.00071  -0.00167   0.00429   0.00262   2.06919
    R5        2.55371   0.01908  -0.01697   0.05092   0.03395   2.58766
    R6        2.40494  -0.02315   0.00667  -0.02872  -0.02205   2.38290
    R7        1.82809  -0.00371   0.01194  -0.02843  -0.01649   1.81160
    R8        2.79760  -0.02825   0.00283  -0.04223  -0.03940   2.75819
    R9        2.95476  -0.01456  -0.02176   0.02030  -0.00146   2.95329
   R10        2.93356   0.00373   0.01342  -0.01999  -0.00658   2.92699
   R11        2.07384   0.00123   0.00041   0.00077   0.00118   2.07502
   R12        2.87479  -0.00133  -0.00853   0.01516   0.00663   2.88142
   R13        2.07300  -0.00023  -0.00320   0.00618   0.00298   2.07598
   R14        2.06993   0.00019   0.00243  -0.00467  -0.00224   2.06769
   R15        2.28274  -0.01300   0.02227  -0.05520  -0.03293   2.24981
   R16        2.54754   0.00679  -0.00311   0.01206   0.00895   2.55650
   R17        1.82816  -0.00260   0.00660  -0.01617  -0.00957   1.81858
   R18        2.27477  -0.01790   0.02303  -0.05918  -0.03616   2.23861
   R19        2.55945   0.00360   0.00423  -0.00592  -0.00169   2.55776
   R20        1.82560  -0.00258   0.00598  -0.01483  -0.00885   1.81675
    A1        1.92427   0.00093  -0.00076   0.00407   0.00331   1.92758
    A2        1.94242  -0.00068  -0.00537   0.00743   0.00208   1.94449
    A3        1.89773   0.00249  -0.00828   0.02079   0.01252   1.91025
    A4        1.90017   0.00131  -0.00313   0.00919   0.00607   1.90624
    A5        1.88979  -0.00191   0.00629  -0.01578  -0.00950   1.88028
    A6        1.90869  -0.00222   0.01164  -0.02678  -0.01513   1.89357
    A7        1.97693   0.01346  -0.01419   0.05316   0.03895   2.01588
    A8        2.09551   0.00283   0.03694  -0.06409  -0.02723   2.06828
    A9        2.20533  -0.01630  -0.01987   0.01271  -0.00718   2.19816
   A10        1.96218  -0.00267  -0.01263   0.01504   0.00241   1.96458
   A11        2.25858  -0.04524  -0.06631   0.04935  -0.01696   2.24161
   A12        1.97946  -0.01921  -0.04625   0.03004  -0.01536   1.96410
   A13        1.81135   0.00915   0.02814   0.00344   0.03023   1.84158
   A14        1.96829   0.00573  -0.00649  -0.01870  -0.02435   1.94394
   A15        1.83481   0.01543   0.04385  -0.02150   0.02171   1.85652
   A16        1.99454  -0.00216  -0.01394  -0.01380  -0.02679   1.96776
   A17        1.85497  -0.00572   0.00417   0.02177   0.02619   1.88116
   A18        2.14427  -0.02894  -0.08815   0.10265   0.01457   2.15884
   A19        1.91506   0.00434   0.01010  -0.01303  -0.00335   1.91171
   A20        1.83631   0.01047   0.03297  -0.04545  -0.01159   1.82472
   A21        1.77622   0.01302   0.03845  -0.03914  -0.00044   1.77578
   A22        1.90347   0.00725   0.00901  -0.02083  -0.01167   1.89180
   A23        1.87575  -0.00472   0.00321   0.01009   0.01446   1.89021
   A24        2.21658  -0.00954  -0.01412   0.01310  -0.00230   2.21428
   A25        2.00062  -0.00106   0.01082  -0.02009  -0.01055   1.99007
   A26        2.06214   0.01089   0.00406   0.01392   0.01669   2.07883
   A27        1.97880  -0.00551   0.02383  -0.05611  -0.03228   1.94652
   A28        2.18955  -0.00149  -0.00298   0.00310   0.00008   2.18963
   A29        2.01410   0.00147   0.00443  -0.00605  -0.00166   2.01244
   A30        2.07943   0.00000  -0.00142   0.00268   0.00122   2.08065
   A31        2.00017  -0.00907   0.03648  -0.08760  -0.05112   1.94906
    D1       -0.47837  -0.00056   0.02335   0.01060   0.03364  -0.44473
    D2        2.76785   0.00054  -0.02138  -0.00786  -0.02894   2.73890
    D3       -2.58881  -0.00239   0.03130  -0.00868   0.02231  -2.56650
    D4        0.65741  -0.00129  -0.01343  -0.02714  -0.04027   0.61714
    D5        1.59090  -0.00084   0.02556   0.00636   0.03163   1.62254
    D6       -1.44606   0.00026  -0.01916  -0.01210  -0.03095  -1.47701
    D7        1.23876  -0.00298  -0.01695  -0.03839  -0.05692   1.18184
    D8       -2.01530  -0.00262   0.03211  -0.02379   0.00991  -2.00539
    D9       -3.02341  -0.00412  -0.05602  -0.00415  -0.06091  -3.08432
   D10        0.23759  -0.00499  -0.10732  -0.02686  -0.13344   0.10415
   D11        1.75615  -0.00908  -0.16153  -0.23447  -0.39644   1.35971
   D12       -2.54578   0.00569  -0.11670  -0.24419  -0.36033  -2.90611
   D13       -0.54586   0.00685  -0.09843  -0.22519  -0.32374  -0.86961
   D14       -1.37679   0.00900   0.06360   0.09259   0.15645  -1.22034
   D15        2.82404   0.00883   0.06720   0.08101   0.14890   2.97294
   D16        0.81092   0.00677   0.03941   0.09929   0.13975   0.95067
   D17        2.93931  -0.00175   0.02925   0.08678   0.11519   3.05450
   D18        0.85696  -0.00192   0.03285   0.07520   0.10763   0.96459
   D19       -1.15616  -0.00399   0.00505   0.09349   0.09849  -1.05768
   D20        0.91231  -0.00348   0.00347   0.08119   0.08403   0.99634
   D21       -1.17004  -0.00365   0.00706   0.06961   0.07647  -1.09357
   D22        3.10002  -0.00571  -0.02073   0.08790   0.06732  -3.11584
   D23        0.07848   0.00504   0.01213  -0.03696  -0.02426   0.05423
   D24       -3.07884   0.00369   0.01558  -0.05774  -0.04157  -3.12041
   D25        2.16156  -0.00574  -0.00607  -0.01101  -0.01744   2.14412
   D26       -0.99577  -0.00709  -0.00261  -0.03179  -0.03475  -1.03052
   D27       -2.00083  -0.00322   0.00365  -0.02707  -0.02364  -2.02447
   D28        1.12503  -0.00457   0.00711  -0.04784  -0.04096   1.08407
   D29       -0.51199   0.00277   0.02840   0.10164   0.12908  -0.38291
   D30        2.72616  -0.00161   0.01755   0.01423   0.03100   2.75716
   D31        1.63517   0.00114   0.01632   0.11701   0.13394   1.76911
   D32       -1.40986  -0.00324   0.00547   0.02960   0.03586  -1.37400
   D33       -2.66954   0.00464   0.04322   0.10225   0.14556  -2.52399
   D34        0.56861   0.00026   0.03238   0.01484   0.04748   0.61609
   D35        0.27204  -0.00341   0.02576  -0.01394   0.01211   0.28415
   D36       -2.78211  -0.00624   0.01683  -0.09326  -0.07672  -2.85884
   D37       -0.08331  -0.00072   0.00055  -0.00621  -0.00566  -0.08897
   D38        3.04361  -0.00199   0.00376  -0.02558  -0.02183   3.02178
         Item               Value     Threshold  Converged?
 Maximum Force            0.045238     0.000450     NO 
 RMS     Force            0.009554     0.000300     NO 
 Maximum Displacement     1.417492     0.001800     NO 
 RMS     Displacement     0.295459     0.001200     NO 
 Predicted change in Energy=-8.179635D-03
 GradGradGradGradGradGradGradGradGradGradGradGradGradGradGradGradGradGrad

                          Input orientation:                          
 ---------------------------------------------------------------------
 Center     Atomic      Atomic             Coordinates (Angstroms)
 Number     Number       Type             X           Y           Z
 ---------------------------------------------------------------------
      1          6           0        0.779543   -0.220915   -0.111621
      2          6           0        2.270501   -0.023761   -0.312482
      3          8           0        2.638808    1.180725   -0.849729
      4          7           0        3.047456   -0.973991   -0.023585
      5          6           0        4.506122   -0.999005   -0.068560
      6          6           0        5.155568   -0.275642    1.155107
      7          6           0        5.109804    1.233579    1.367513
      8          8           0        4.933320    2.066959    0.535806
      9          8           0        5.292570    1.614673    2.652636
     10          6           0        4.898688   -2.492742    0.048552
     11          8           0        4.139622   -3.400794    0.099468
     12          8           0        6.228912   -2.742666    0.053302
     13          1           0        0.278985    0.743166    0.000196
     14          1           0        0.573688   -0.836515    0.765770
     15          1           0        0.355610   -0.716777   -0.991029
     16          1           0        2.474729    1.914387   -0.254884
     17          1           0        4.883368   -0.627547   -1.030552
     18          1           0        6.236707   -0.470226    1.165430
     19          1           0        4.710764   -0.760930    2.029100
     20          1           0        5.667822    0.903831    3.181800
     21          1           0        6.740933   -1.943078   -0.097517
 ---------------------------------------------------------------------
                    Distance matrix (angstroms):
                    1          2          3          4          5
     1  C    0.000000
     2  C    1.517290   0.000000
     3  O    2.442593   1.369333   0.000000
     4  N    2.391297   1.260974   2.343567   0.000000
     5  C    3.807186   2.451245   2.974611   1.459574   0.000000
     6  C    4.556005   3.246671   3.531919   2.514188   1.562816
     7  C    4.801515   3.530571   3.320358   3.325928   2.722346
     8  O    4.786167   3.490174   2.823102   3.621709   3.154028
     9  O    5.601599   4.539746   4.415577   4.347859   3.854182
    10  C    4.706826   3.624028   4.405488   2.395594   1.548894
    11  O    4.631017   3.881709   4.913628   2.664084   2.435394
    12  O    6.006834   4.816146   5.394193   3.640850   2.454223
    13  H    1.092023   2.156868   2.546094   3.257855   4.572589
    14  H    1.091400   2.168495   3.308144   2.600290   4.023251
    15  H    1.094969   2.146509   2.972116   2.871957   4.261144
    16  H    2.730145   1.949730   0.958657   2.953683   3.556562
    17  H    4.225064   2.776195   2.888009   2.122400   1.098056
    18  H    5.610138   4.256095   4.442002   3.440764   2.190266
    19  H    4.508747   3.461402   4.043597   2.650567   2.121022
    20  H    6.000579   4.961071   5.050230   4.546101   3.941468
    21  H    6.205177   4.869780   5.210701   3.819211   2.426210
                    6          7          8          9         10
     6  C    0.000000
     7  C    1.524782   0.000000
     8  O    2.433251   1.190548   0.000000
     9  O    2.415503   1.352840   2.194217   0.000000
    10  C    2.491181   3.958497   4.585792   4.879268   0.000000
    11  O    3.451535   4.901694   5.542263   5.744812   1.184624
    12  O    2.907275   4.334753   5.004384   5.159426   1.353507
    13  H    5.113985   5.044489   4.868484   5.738553   5.640487
    14  H    4.632471   5.022323   5.243037   5.642379   4.686482
    15  H    5.276371   5.654110   5.570982   6.563956   4.987417
    16  H    3.737807   3.168484   2.587111   4.060016   5.038893
    17  H    2.230479   3.043974   3.117104   4.331382   2.154914
    18  H    1.098559   2.052730   2.921053   2.729465   2.669884
    19  H    1.094174   2.138924   3.205684   2.524041   2.637624
    20  H    2.400218   1.926592   2.982221   0.962354   4.684605
    21  H    2.619693   3.859799   4.443980   4.724266   1.928039
                   11         12         13         14         15
    11  O    0.000000
    12  O    2.190981   0.000000
    13  H    5.664519   6.896048   0.000000
    14  H    4.442451   6.010207   1.779984   0.000000
    15  H    4.765697   6.300042   1.766305   1.774327   0.000000
    16  H    5.581092   5.989743   2.501622   3.496162   3.457687
    17  H    3.085613   2.731109   4.913414   4.673734   4.528810
    18  H    3.757961   2.529995   6.190682   5.688909   6.268844
    19  H    3.319423   3.183682   5.100923   4.326328   5.300046
    20  H    5.510533   4.837279   6.260030   5.900527   6.946831
    21  H    2.988405   0.961381   6.998731   6.324924   6.563119
                   16         17         18         19         20
    16  H    0.000000
    17  H    3.586730   0.000000
    18  H    4.675057   2.584301   0.000000
    19  H    4.168183   3.067418   1.777340   0.000000
    20  H    4.798736   4.550208   2.505476   2.239667   0.000000
    21  H    5.753721   2.460026   2.004638   3.168842   4.473296
                   21
    21  H    0.000000
 Stoichiometry    C6H9NO5
 Framework group  C1[X(C6H9NO5)]
 Deg. of freedom    57
 Full point group                 C1      NOp   1
 Largest Abelian subgroup         C1      NOp   1
 Largest concise Abelian subgroup C1      NOp   1
                         Standard orientation:                         
 ---------------------------------------------------------------------
 Center     Atomic      Atomic             Coordinates (Angstroms)
 Number     Number       Type             X           Y           Z
 ---------------------------------------------------------------------
      1          6           0       -1.578729    2.862372   -0.710434
      2          6           0       -1.072563    1.662716    0.068533
      3          8           0       -1.937621    1.158671    1.002709
      4          7           0        0.097367    1.249378   -0.156127
      5          6           0        0.774358    0.088286    0.412998
      6          6           0        0.319564   -1.253321   -0.247037
      7          6           0       -1.063145   -1.865779   -0.052172
      8          8           0       -1.816573   -1.657468    0.845802
      9          8           0       -1.426241   -2.728063   -1.029312
     10          6           0        2.271111    0.265126    0.055887
     11          8           0        2.737364    1.195849   -0.509530
     12          8           0        3.087136   -0.730598    0.473761
     13          1           0       -2.670402    2.866403   -0.737772
     14          1           0       -1.193751    2.865600   -1.731676
     15          1           0       -1.254162    3.782787   -0.213996
     16          1           0       -2.713273    0.757511    0.607162
     17          1           0        0.690353    0.072711    1.507725
     18          1           0        0.974647   -2.068618    0.089100
     19          1           0        0.482047   -1.101515   -1.318378
     20          1           0       -0.668566   -3.008762   -1.552056
     21          1           0        2.615448   -1.375285    1.008684
 ---------------------------------------------------------------------
 Rotational constants (GHZ):           0.9240659           0.7778115           0.4808880
 Standard basis: 6-31G(2df,p) (6D, 7F)
 There are   417 symmetry adapted cartesian basis functions of A   symmetry.
 There are   381 symmetry adapted basis functions of A   symmetry.
   381 basis functions,   591 primitive gaussians,   417 cartesian basis functions
    46 alpha electrons       46 beta electrons
       nuclear repulsion energy       730.5771035026 Hartrees.
 NAtoms=   21 NActive=   21 NUniq=   21 SFac= 1.00D+00 NAtFMM=   60 NAOKFM=F Big=F
 Integral buffers will be    131072 words long.
 Raffenetti 2 integral format.
 Two-electron integral symmetry is turned on.
 One-electron integrals computed using PRISM.
 NBasis=   381 RedAO= T EigKep=  2.57D-04  NBF=   381
 NBsUse=   381 1.00D-06 EigRej= -1.00D+00 NBFU=   381
 Initial guess from the checkpoint file:  "opt.chk"
 B after Tr=     0.000000    0.000000    0.000000
         Rot=    0.760587   -0.021864   -0.003872    0.648856 Ang= -80.97 deg.
 ExpMin= 1.61D-01 ExpMax= 5.48D+03 ExpMxC= 8.25D+02 IAcc=3 IRadAn=         5 AccDes= 0.00D+00
 Harris functional with IExCor=  402 and IRadAn=       5 diagonalized for initial guess.
[...]
 .76973258,0.00013864,0.00005389,-0.00098065,-0.00029735,-0.00056349,0.
 00603520,0.00054391,0.00085109,-0.00357863,0.00937920,-0.00907430,-0.0
 0815879,0.00034154,-0.01994301,-0.08890592,-0.00526593,-0.02639702,-0.
 01665174,-0.00439101,0.00123797,-0.00329493,0.00075107,-0.00072501,0.0
 0036960,0.00151427,0.00018997,0.00101568,-0.15346517,0.01901516,0.3104
 5359,0.00043872,0.00008143,0.00036883,0.00134165,-0.00120236,-0.004291
 72,-0.00195246,0.00319729,0.00195382,0.00287338,0.00400473,0.00092121,
 -0.00100257,-0.01739147,0.00460959,0.00056266,0.00087991,0.00178759,-0
 .00150427,0.00174115,0.00066634,0.00059150,-0.00039579,-0.00026355,0.0
 0195883,-0.00035722,0.00010684,-0.39358670,-0.34510131,0.05437338,0.46
 852456,0.00025338,-0.00006374,0.00056216,-0.00166331,-0.00142716,-0.00
 498504,0.00091648,0.00046713,0.00384596,-0.00143515,0.00189354,0.00321
 921,-0.03332170,-0.03579383,-0.00177021,0.00327017,-0.00630545,0.00151
 634,-0.00191078,0.00500865,-0.00019266,-0.00100021,-0.00264214,-0.0007
 3742,0.00128168,-0.00094757,-0.00051976,-0.33701300,-0.48553573,0.0417
 3397,0.40034545,0.50949646,-0.00012116,-0.00009720,0.00039535,-0.00130
 552,-0.00204456,-0.00493017,-0.00130921,0.00287393,0.00165249,0.000715
 45,-0.00156600,0.00163713,-0.00245113,-0.01153782,0.02088373,0.0001408
 4,0.00281091,0.00062407,0.00097927,-0.00054168,0.00065653,-0.00025674,
 0.00016248,-0.00011930,-0.00052617,0.00002060,-0.00012782,0.05704764,0
 .04611171,-0.08907904,-0.09547997,-0.05438813,0.06377613,-0.00015432,-
 0.00039889,-0.00025914,0.00222313,-0.00165209,0.00236294,-0.00019803,0
 .00113748,-0.00173442,0.00052050,0.00376631,0.00115884,-0.00976500,0.0
 0311002,0.01550931,-0.00507254,0.00265440,-0.00003785,0.00053068,-0.00
 140277,0.00051269,0.00145527,0.00154540,0.00025921,0.00151609,-0.00019
 709,0.00012274,-0.19640945,0.06665467,0.09748969,-0.07471325,-0.033057
 60,0.03490614,0.44604198,0.00043106,0.00062545,0.00043866,-0.00217190,
 -0.00106051,-0.00548794,-0.00016900,0.00040453,0.00324375,0.00363176,-
 0.00608179,-0.00269813,0.02581682,-0.00340576,-0.01818951,0.00159026,-
 0.00172893,-0.00061074,0.00021553,0.00169087,-0.00009662,-0.00090015,-
 0.00108847,-0.00027019,-0.00054442,-0.00037670,-0.00026850,0.01556910,
 -0.12907223,-0.03231459,-0.04781406,0.01720844,0.02538684,0.19082502,0
 .48907277,0.00028775,0.00070958,0.00044510,-0.00176082,0.00091081,-0.0
 0479240,-0.00044631,-0.00091837,0.00345256,0.00070386,-0.00506120,0.00
 116883,0.02300164,-0.00631982,0.00074249,-0.00021057,0.00002591,0.0006
 2068,0.00168052,0.00143546,0.00056601,-0.00095318,-0.00080024,-0.00027
 773,-0.00061530,-0.00071003,-0.00049807,0.08266103,-0.05946321,-0.1107
 6618,0.03095667,0.01816286,0.00304484,-0.16751451,0.03436850,0.1251135
 6,-0.07630721,0.07448863,-0.04305339,-0.01240080,0.02734460,-0.0193639
 9,0.00158687,-0.00284680,-0.00026912,-0.00430204,0.00144824,0.00100693
 ,-0.00073001,-0.00252887,0.00045273,-0.00020238,-0.00002365,0.00019485
 ,-0.00000782,0.00032581,0.00014863,-0.00005383,-0.00015832,-0.00006025
 ,-0.00000588,-0.00029758,-0.00011096,0.00029558,-0.00050923,-0.0003667
 2,0.00007778,0.00029825,0.00013706,-0.00010358,0.00015132,0.00010044,0
 .08519937,0.07398928,-0.20917311,0.10383500,0.00113558,-0.00295604,0.0
 0334887,-0.00037268,0.00107997,-0.00121767,-0.00027092,0.00000516,-0.0
 0086696,-0.00012911,-0.00003938,-0.00003518,0.00002200,0.00001658,-0.0
 0003183,-0.00013278,-0.00002567,-0.00001133,0.00006898,0.00003828,0.00
 001560,0.00010937,0.00002900,0.00007596,-0.00001344,0.00010569,0.00016
 853,0.00001569,-0.00002436,-0.00006262,0.00011308,-0.00006293,-0.00011
 309,-0.08175585,0.22668113,-0.04324432,0.10336769,-0.11292295,0.000466
 58,-0.00879979,0.00265030,0.00016594,0.00055784,0.00031567,0.00035914,
 0.00068541,0.00082061,0.00000523,0.00011783,0.00033037,0.00004853,0.00
 002112,-0.00005495,-0.00002789,0.00005583,0.00000836,-0.00000190,-0.00
 002531,-0.00000562,0.00001915,-0.00008707,0.00004497,0.00005534,0.0000
 4667,0.00003563,-0.00003308,-0.00003854,0.00001904,-0.00001008,-0.0000
 0739,-0.00000441,0.04931140,-0.11455095,0.11779275,-0.04816682,0.00299
 319,0.01428422,0.00124376,0.00510344,0.03433141,-0.00732671,0.00197865
 ,0.00426366,0.00172817,-0.00050128,-0.00092832,0.00031935,-0.00020129,
 -0.00023806,0.00007118,-0.00004370,-0.00005852,-0.00047654,0.00009253,
 0.00005690,0.00022605,0.00005222,0.00002509,0.00035421,-0.00008768,-0.
 00011510,0.00020650,0.00019760,0.00014922,-0.00008217,-0.00008528,-0.0
 0010431,0.00007451,-0.00011184,-0.00010144,0.00031036,-0.00316191,-0.0
 1077320,0.05184228,0.00427612,-0.05355515,-0.04545561,-0.00109333,-0.0
 0355443,-0.00575021,0.00146655,0.00260804,-0.00086895,-0.00053368,-0.0
 0014125,0.00042168,-0.00003344,-0.00022320,0.00013981,0.00001154,-0.00
 000776,-0.00002919,-0.00021011,0.00014916,0.00006884,0.00008643,-0.000
 03016,-0.00000867,0.00017779,-0.00020566,-0.00004044,0.00008899,0.0000
 6051,-0.00005550,-0.00002566,-0.00005019,0.00008553,-0.00002850,-0.000
 01457,0.00000446,-0.00290346,0.00538769,0.02572424,-0.00417777,0.05390
 087,0.02202738,-0.04664349,-0.31866332,-0.00094250,-0.00083402,-0.0093
 8781,0.00139601,-0.00065848,0.00094561,-0.00242228,0.00049110,0.000810
 56,0.00022238,0.00016317,0.00043155,0.00000668,-0.00001907,-0.00001104
 ,0.00012317,-0.00004208,-0.00002401,-0.00004383,0.00000589,0.00000165,
 -0.00011368,0.00003525,-0.00004450,-0.00018116,-0.00009696,-0.00002704
 ,0.00006223,0.00003799,0.00006527,-0.00003335,0.00007659,0.00005270,0.
 00117313,-0.00327164,-0.01247193,-0.02189208,0.05048685,0.34235734,-0.
 12588750,-0.11737371,-0.03194543,-0.02052331,-0.02784806,-0.01057843,0
 .00210909,0.00240348,-0.00072676,-0.00371384,0.00017995,0.00179762,0.0
 0029803,0.00275721,-0.00051029,-0.00017269,0.00008700,0.00015495,0.000
 32243,0.00007407,0.00002415,-0.00017335,-0.00010310,-0.00003489,-0.000
 31929,-0.00020671,-0.00029319,-0.00118450,-0.00110263,-0.00023618,0.00
 055169,0.00049895,0.00010382,-0.00002145,0.00044793,0.00024636,0.00691
 279,0.00952911,0.00336088,0.00153773,0.00305115,0.00045492,0.13990668,
 -0.11641809,-0.21005065,-0.05111806,0.00368759,0.00691058,0.00072280,0
 .00003477,0.00046009,0.00103339,0.00147314,-0.00003406,0.00071455,0.00
 009145,-0.00090281,0.00022195,0.00001124,-0.00001970,-0.00002191,0.000
 05666,-0.00004726,-0.00001432,-0.00001941,0.00001602,-0.00000143,-0.00
 002004,0.00011224,0.00008885,0.00029677,0.00026125,-0.00004966,-0.0002
 0504,-0.00008090,0.00006949,-0.00002374,-0.00007163,-0.00004575,-0.014
 45944,-0.01989867,-0.00690367,-0.00169556,-0.00378973,-0.00006928,0.12
 817815,0.22749855,-0.03205482,-0.05032397,-0.06073179,0.00287069,0.008
 25908,0.00031198,-0.00003529,-0.00080379,0.00016974,-0.00016274,-0.000
 51203,0.00042568,-0.00002044,0.00012708,0.00028360,0.00000645,-0.00002
 782,-0.00001525,0.00019129,-0.00008791,-0.00004863,-0.00007712,0.00000
 879,0.00000303,-0.00017311,0.00007051,0.00005054,-0.00013868,-0.000155
 03,0.00010720,0.00008586,0.00007445,-0.00007791,0.00002925,0.00005301,
 -0.00001992,0.01000266,0.01331909,0.00363961,-0.01804549,-0.02522116,-
 0.00497415,0.03664605,0.05494263,0.06133518,0.00098911,0.00064895,0.00
 335224,0.00691064,0.00028941,0.00598118,-0.39307757,-0.01417688,-0.229
 73218,0.00249334,0.00081171,0.00472415,-0.00055997,-0.00009078,-0.0000
 3155,0.00014342,0.00008618,-0.00010870,-0.00025129,-0.00003448,-0.0000
 4814,0.00011217,0.00005947,0.00004127,0.00030083,0.00018180,0.00030583
 ,0.00022123,-0.00024452,-0.00001619,0.00001051,-0.00008234,0.00010478,
 0.00012336,-0.00010717,-0.00006112,0.00037515,0.00078165,0.00024161,-0
 .00126081,0.00010091,0.00010360,-0.00002807,-0.00089918,0.00055828,0.3
 8318928,0.00013022,0.00102250,0.00011935,-0.00813655,-0.00649411,-0.00
 285906,-0.00599060,-0.00614962,-0.01149942,0.00094138,0.00658488,-0.00
 233604,0.00066857,-0.00068942,-0.00039220,-0.00005757,-0.00000873,-0.0
 0004269,-0.00041104,0.00036320,0.00017244,0.00015421,-0.00010505,-0.00
 003942,0.00045874,-0.00002009,0.00028709,-0.00007953,0.00077453,-0.000
 33573,-0.00024214,-0.00074569,-0.00002366,-0.00023197,-0.00012374,0.00
 005355,0.00087346,-0.00107939,-0.00034784,-0.00018328,-0.00082391,0.00
 031982,-0.00077525,-0.00025159,0.00028189,0.01273113,0.00791524,0.0001
 6821,0.00031545,0.00286321,-0.04464575,-0.00024234,-0.02994872,-0.1770
 0758,-0.01413931,-0.15883127,0.00428600,-0.00264064,-0.00705631,0.0012
 4404,-0.00019250,0.00032919,-0.00022180,0.00003171,0.00006249,0.000039
 80,-0.00040301,-0.00014840,0.00008739,0.00022347,0.00008658,-0.0001858
 5,-0.00022200,-0.00005714,-0.00067729,0.00069173,0.00038582,0.00036417
 ,-0.00020939,-0.00004528,0.00043200,-0.00021203,-0.00049994,0.00060750
 ,-0.00057838,-0.00015657,-0.00084073,0.00046084,0.00068502,0.00117640,
 0.00050059,-0.00050477,0.21524510,0.01634747,0.19244038,-0.00004129,0.
 00237688,-0.00107311,0.00194559,-0.00008616,0.01019192,0.00064452,-0.0
 0238340,-0.00394288,-0.02402388,-0.01730940,0.02157543,-0.06299300,-0.
 04070370,0.04662434,0.00492053,0.01235254,-0.01579628,0.00020560,0.001
 31701,0.00119834,0.00005215,-0.00014968,0.00004683,0.00104158,0.000077
 51,0.00000554,-0.00058112,-0.00197608,-0.00100067,0.00133163,0.0005940
 5,0.00001516,-0.00019186,0.00124966,-0.00031493,-0.00077304,0.00012577
 ,-0.00005528,0.00014832,-0.00010349,-0.00009527,0.00016795,-0.00012683
 ,0.00006824,0.00051799,0.00023258,-0.00002500,0.07971117,-0.00013871,-
 0.00070109,-0.00001158,0.00023425,0.00143347,0.00042863,0.00029705,0.0
 0026036,-0.00050554,0.00334380,0.00661025,-0.00575662,-0.04127413,-0.1
 5293983,0.11335029,0.00120465,0.00328087,-0.00282331,0.00069124,0.0006
 3602,-0.00048566,0.00002676,0.00024382,0.00036480,-0.00030982,-0.00004
 246,0.00010039,-0.01178294,-0.01991956,0.02566204,-0.00055366,-0.00514
 907,-0.00518250,0.00057666,0.00256595,-0.00296804,0.00015777,-0.000029
 45,0.00003800,0.00002904,-0.00000163,-0.00002319,-0.00010096,0.0000105
 6,-0.00002036,0.00023039,-0.00021971,-0.00024643,0.04513513,0.16425150
 ,0.00023823,-0.00039920,0.00007235,-0.00307487,-0.00120416,-0.00301423
 ,-0.00018528,0.00025178,0.00188241,0.01283287,0.00203411,-0.00518317,0
 .04732667,0.11320811,-0.16379489,0.00446531,0.01660566,-0.02027951,0.0
 0120055,0.00183387,0.00083729,-0.00062771,-0.00048717,0.00002267,-0.00
 009569,-0.00073877,-0.00003537,-0.00091855,-0.00790655,0.00850079,-0.0
 0213114,-0.00288571,-0.00199330,-0.00102789,-0.00019894,0.00036591,0.0
 0010433,0.00006950,0.00001113,-0.00001800,0.00005014,0.00004428,-0.000
 03287,0.00004471,0.00002779,-0.00010017,0.00063310,0.00006345,-0.05417
 014,-0.12142957,0.18447476,-0.00005045,-0.00005996,-0.00017737,-0.0003
 4227,0.00034259,0.00087853,-0.00004342,-0.00011737,-0.00062735,-0.0027
 0473,0.00028539,-0.00347604,-0.01381022,0.00199960,0.00694755,-0.28995
 869,0.04775580,0.06872224,-0.00433655,-0.00098621,-0.00027130,0.002104
 15,-0.00119194,-0.00098130,0.00162648,0.00021782,0.00029071,-0.0033149
 0,0.00114185,0.00147547,0.00080688,-0.00017975,-0.00039068,0.00245766,
 -0.00002621,0.00087364,-0.00005843,0.00001062,0.00000083,0.00003656,-0
 .00000198,-0.00000342,-0.00007681,0.00001210,0.00000071,0.00002274,-0.
 00000455,0.00001140,0.00075313,0.00035169,-0.00022594,0.31343783,-0.00
 000150,-0.00003865,-0.00000901,-0.00020407,0.00027092,-0.00018552,-0.0
 0003388,-0.00009246,-0.00005772,-0.00078942,0.00105833,-0.00072966,-0.
 00152475,-0.00134352,0.00119893,0.04376031,-0.05338139,-0.01174303,0.0
 3303643,-0.00601756,-0.00852456,-0.00176833,0.00251107,0.00246328,0.00
 151838,-0.00626846,-0.00358182,-0.00149483,0.00033868,0.00050637,0.000
 26703,0.00000227,-0.00026370,0.00077562,-0.00055779,-0.00039334,0.0000
 0215,0.00000102,-0.00000907,-0.00000335,-0.00001148,0.00000609,-0.0000
 1351,0.00000614,0.00001174,0.00000020,-0.00003889,-0.00000324,0.000075
 69,0.00003046,-0.00001506,-0.05088509,0.05902558,-0.00013882,0.0000765
 7,-0.00035926,-0.00147453,0.00031769,0.00104831,0.00011394,-0.00007965
 ,-0.00013619,-0.00465490,-0.00068753,-0.00440400,-0.02284172,0.0046979
 5,0.00852968,0.06750108,-0.01232092,-0.06836075,0.01608182,0.00022992,
 -0.00429608,-0.00173134,0.00063560,0.00012691,0.00100272,-0.00446228,0
 .00044303,-0.00084193,0.00053629,0.00129232,0.00015284,-0.00015256,-0.
 00014883,0.00055563,-0.00046249,-0.00070232,-0.00012276,0.00000921,0.0
 0001573,0.00002091,-0.00000275,0.00000136,-0.00007351,0.00001601,0.000
 00355,0.00002357,0.00001312,0.00001930,0.00094935,0.00045262,0.0010741
 9,-0.07276201,0.01707440,0.07400612,0.00000281,-0.00011216,0.00008534,
 0.00006466,-0.00003832,-0.00074619,-0.00021711,0.00015308,0.00039078,0
 .00225517,-0.00035981,0.00078486,0.00381885,0.01364943,-0.01650084,-0.
 06693501,-0.04956334,0.05300380,-0.00145070,0.00006923,-0.00228038,0.0
 0102359,-0.00051581,-0.00099616,-0.00032534,0.00032100,0.00084860,0.00
 160231,0.00106735,0.00040766,-0.00037943,-0.00000358,0.00037760,-0.000
 21266,0.00000228,0.00004962,0.00005621,-0.00001280,0.00000519,-0.00002
 338,0.00001660,0.00000662,0.00000465,0.00000975,-0.00000900,-0.0000859
 9,0.00002054,0.00002747,-0.00199423,-0.00040899,-0.00357319,-0.0067665
 6,-0.02103985,0.01995812,0.06951113,-0.00000637,0.00002043,0.00000792,
 0.00031263,0.00007020,0.00010544,-0.00012032,-0.00007606,-0.00026660,0
 .00003235,0.00029935,0.00002803,0.00070498,0.00232180,-0.00194202,-0.0
 4933093,-0.17234409,0.12258916,-0.01161341,-0.02108236,0.02312211,0.00
 020883,-0.00122942,-0.00565785,0.00165655,0.00199061,-0.00359513,0.000
 77263,0.00094255,-0.00111738,0.00011128,0.00025704,0.00041169,-0.00018
 669,-0.00013392,0.00007510,-0.00001022,-0.00000058,-0.00001200,0.00001
 371,-0.00001220,-0.00000016,-0.00000493,-0.00000079,-0.00000180,-0.000
 02206,-0.00003091,-0.00000693,-0.00074699,0.00085569,-0.00080710,0.001
 88499,0.00488738,-0.00512567,0.05614227,0.18428935,-0.00001410,0.00005
 555,-0.00001927,-0.00007100,-0.00007016,-0.00012373,-0.00013463,-0.000
 06171,0.00028725,0.00195546,-0.00117710,0.00200709,0.00573986,0.017937
 59,-0.02302770,0.05047167,0.11580436,-0.15594559,-0.00429863,-0.010029
 61,0.01293771,-0.00098256,-0.00056724,-0.00345079,0.00053425,0.0007210
 6,-0.00142585,0.00183056,0.00316324,-0.00037135,-0.00068494,-0.0011259
 1,0.00070587,-0.00026504,-0.00058236,-0.00007078,-0.00001428,-0.000003
 97,-0.00000296,-0.00001267,0.00000311,0.00000697,-0.00000692,0.0000051
 5,-0.00000407,-0.00005081,0.00006002,0.00009880,-0.00381601,-0.0011076
 3,-0.00343774,0.00169799,0.00528739,-0.00554024,-0.05150041,-0.1285219
 1,0.17722430,0.00033227,0.00041211,-0.00039242,-0.00478172,-0.00051385
 ,-0.00497511,0.00041069,0.00020805,0.00343573,-0.00394377,0.00508495,0
 .00456876,0.00398941,0.00213096,0.00520682,0.00142948,0.00067531,0.001
 05135,-0.04829499,-0.02075189,-0.01346982,0.00006337,0.00412495,0.0018
 4046,-0.19444722,-0.12405015,-0.08876602,-0.00026318,0.00093971,0.0000
 3700,-0.00090851,-0.00065358,0.00013958,-0.00107806,0.00066910,0.00041
 531,0.00005043,-0.00003509,0.00010008,-0.00074187,-0.00016322,0.000143
 90,0.00019319,0.00002815,0.00024382,-0.00010682,-0.00009846,0.00002965
 ,-0.00101168,0.00016954,0.00052545,0.00015023,-0.00152149,-0.00136904,
 0.00021647,0.00023085,-0.00013983,0.24845437,0.00048285,0.00007297,0.0
 0057463,-0.00812560,0.00139146,-0.00239447,0.00223109,0.00054482,0.005
 63551,0.00865912,-0.00038116,0.00548215,0.00589211,-0.00209455,-0.0026
 6640,0.00307371,-0.00173593,-0.00054159,-0.00150572,0.01699338,0.01457
 500,0.01158800,0.00154907,-0.00403894,-0.15396480,-0.18010481,-0.10990
 769,0.00061890,-0.00001409,-0.00070222,-0.00083122,-0.00012076,0.00030
 843,-0.00106829,0.00066588,0.00063237,0.00044859,-0.00005541,0.0001610
 1,-0.00020708,0.00031379,0.00003214,0.00032662,-0.00011363,-0.00000214
 ,-0.00027584,0.00010312,0.00049858,-0.00085497,0.00013387,0.00075838,-
 0.00059145,-0.00067332,-0.00038113,0.00068826,-0.00109195,-0.00005153,
 0.13307219,0.16460137,0.00046535,0.00121865,0.00057769,-0.00874960,0.0
 0078816,-0.00793001,0.00113251,-0.00071780,0.00671676,0.00887230,0.007
 50771,0.00026909,0.00645823,-0.00392185,-0.00222870,0.00225089,-0.0016
 9763,0.00007726,-0.00621417,0.01625209,0.00456993,0.01006379,-0.003700
 99,0.00444194,-0.10344584,-0.10826091,-0.09327241,0.00076343,-0.000141
 36,-0.00075798,-0.00091545,0.00032806,0.00017525,-0.00130638,0.0007739
 4,0.00068248,0.00018870,-0.00012507,-0.00006643,-0.00005632,-0.0000083
 3,0.00022406,0.00057338,-0.00013964,0.00001837,-0.00051408,-0.00042918
 ,0.00009036,-0.00058812,0.00015286,0.00009682,-0.00040997,-0.00037950,
 -0.00128155,-0.00003351,0.00054895,-0.00005735,0.09103668,0.09198941,0
 .08748204,0.00011956,0.00001272,0.00012106,-0.00078788,-0.00014596,-0.
 00107276,0.00016497,0.00011645,0.00058891,0.00114464,-0.00057445,-0.00
 112342,0.00059739,-0.00000358,0.00100275,0.00115463,-0.00019246,0.0001
 5330,0.00051018,0.00075514,0.00018362,-0.00062869,-0.00053341,-0.00013
 991,-0.00048675,-0.00013033,-0.00018856,-0.02531364,-0.03797526,-0.001
 56182,-0.00494044,0.00294787,0.00727755,-0.16702296,-0.18875512,0.0310
 0133,0.00008048,-0.00001656,0.00000582,-0.00002068,-0.00000145,0.00000
 755,0.00009659,-0.00001245,0.00001341,-0.00003923,0.00000011,-0.000115
 11,0.00016995,0.00212124,-0.00051199,0.00006739,-0.00015573,-0.0003494
 1,-0.00016545,-0.00002913,-0.00023795,0.00028790,0.00034352,0.00042818
 ,0.19501203,0.00002318,0.00015207,-0.00005760,0.00024119,0.00038827,0.
 00055130,-0.00004562,-0.00035210,-0.00017327,-0.00105736,-0.00076602,-
 0.00015939,0.00344605,0.00057564,-0.00322187,0.00024971,-0.00066261,-0
 .00031528,0.00019815,-0.00000138,-0.00017911,-0.00007257,-0.00007659,0
 .00011253,-0.00004226,-0.00003153,0.00002197,0.00340213,0.00389205,0.0
 0185892,0.00347598,0.00455308,-0.00253372,-0.23291103,-0.36845495,0.02
 041447,-0.00004540,0.00000048,0.00000598,-0.00000036,0.00000125,0.0000
 0348,-0.00000477,-0.00001400,0.00000776,0.00001144,0.00001739,0.000026
 34,0.00090390,-0.00131001,0.00058286,0.00004207,0.00029168,-0.00038440
 ,-0.00008513,0.00006788,0.00026166,0.00004185,0.00001587,-0.00003756,0
 .22222885,0.36171351,-0.00007823,-0.00007438,-0.00019521,0.00040215,0.
 00033586,0.00187586,0.00010832,-0.00015390,-0.00126858,-0.00130239,0.0
 0029525,-0.00081310,0.00115504,-0.00137184,-0.00021573,0.00198555,0.00
 003852,-0.00043802,-0.00043995,-0.00156560,-0.00060715,0.00012401,0.00
 059910,0.00029824,-0.00072020,0.00082587,0.00027915,0.00947977,0.02366
 794,-0.00562357,0.00739048,-0.00247566,0.00288596,0.01885022,-0.002941
 85,-0.01862342,-0.00006688,0.00002695,0.00000166,0.00005282,-0.0000047
 0,-0.00002257,-0.00010005,0.00000359,0.00000025,-0.00001867,0.00001740
 ,0.00012379,0.00020254,0.00001081,0.00026437,-0.00157369,-0.00065295,-
 0.00133127,-0.00030598,0.00016615,0.00020942,0.00033767,0.00003851,0.0
 0017237,-0.03548253,-0.01678507,0.02302755\\0.00000041,0.00000501,0.00
 000013,0.00000224,0.00000001,-0.00000611,-0.00000692,0.00001569,0.0000
 0064,0.00002057,-0.00002114,-0.00001074,-0.00002150,0.00001253,0.00001
 115,0.00001231,0.00001834,0.00002103,0.00002316,-0.00002152,-0.0000159
 4,0.00000202,0.00000024,-0.00000039,-0.00001085,0.00000532,0.00001593,
 -0.00000713,-0.00001533,-0.00000514,0.00000481,0.00001049,0.00000086,0
 .00000205,0.00000446,0.00000066,0.00000087,-0.00000319,-0.00000243,-0.
 00000200,-0.00000088,0.00000085,0.00000162,-0.00000250,0.00000441,0.00
 000056,-0.00000453,0.00000081,-0.00000147,-0.00000189,-0.00000861,-0.0
 0000652,-0.00000188,-0.00000085,-0.00000270,-0.00000096,0.00000440,-0.
 00001161,-0.00000055,-0.00000930,0.00000004,0.00000225,-0.00000136\\\@
 The archive entry for this job was punched.


 EVERYBODY NEEDS BEAUTY AS WELL AS BREAD, PLACES TO PLAY IN AND PRAY IN,
 WHERE NATURE MAY HEAL AND CHEER AND GIVE STRENGTH TO BODY AND SOUL ALIKE.

                                    -- JOHN MUIR
 Job cpu time:       0 days  0 hours 51 minutes  6.2 seconds.
 Elapsed time:       0 days  0 hours 51 minutes 13.4 seconds.
 File lengths (MBytes):  RWF=    270 Int=      0 D2E=      0 Chk=     13 Scr=      1
 Normal termination of Gaussian 16 at Sun May 21 05:48:21 2023.
