### Starting Gaussian ###
 Entering Gaussian System, Link 0=g16
 Initial command:
 /cluster/software/gaussian/gaussian-16-A.03/avx2/g16/l1.exe "/local/scratch/ks29c/Gau-9557.inp" -scrdir="/local/scratch/ks29c/"
 Entering Link 1 = /cluster/software/gaussian/gaussian-16-A.03/avx2/g16/l1.exe PID=      9558.
  
 Copyright (c) 1988,1990,1992,1993,1995,1998,2003,2009,2016,
            Gaussian, Inc.  All Rights Reserved.
  
 This is part of the Gaussian(R) 16 program.  It is based on
 the Gaussian(R) 09 system (copyright 2009, Gaussian, Inc.),
 the Gaussian(R) 03 system (copyright 2003, Gaussian, Inc.),
 the Gaussian(R) 98 system (copyright 1998, Gaussian, Inc.),
 the Gaussian(R) 94 system (copyright 1995, Gaussian, Inc.),
 the Gaussian 92(TM) system (copyright 1992, Gaussian, Inc.),
 the Gaussian 90(TM) system (copyright 1990, Gaussian, Inc.),
 the Gaussian 88(TM) system (copyright 1988, Gaussian, Inc.),
 the Gaussian 86(TM) system (copyright 1986, Carnegie Mellon
 University), and the Gaussian 82(TM) system (copyright 1983,
 Carnegie Mellon University). Gaussian is a federally registered
 trademark of Gaussian, Inc.
  
 This software contains proprietary and confidential information,
 including trade secrets, belonging to Gaussian, Inc.
  
 This software is provided under written license and may be
 used, copied, transmitted, or stored only in accord with that
 written license.
  
 The following legend is applicable only to US Government
 contracts under FAR:
  
                    RESTRICTED RIGHTS LEGEND
  
 Use, reproduction and disclosure by the US Government is
 subject to restrictions as set forth in subparagraphs (a)
 and (c) of the Commercial Computer Software - Restricted
 Rights clause in FAR 52.227-19.
  
 Gaussian, Inc.
 340 Quinnipiac St., Bldg. 40, Wallingford CT 06492
  
  
 ---------------------------------------------------------------
 Warning -- This program may not be used in any manner that
 competes with the business of Gaussian, Inc. or will provide
 assistance to any competitor of Gaussian, Inc.  The licensee
 of this program is prohibited from giving any competitor of
 Gaussian, Inc. access to this program.  By using this program,
 the user acknowledges that Gaussian, Inc. is engaged in the
 business of creating and licensing software in the field of
 computational chemistry and represents and warrants to the
 licensee that it is not a competitor of Gaussian, Inc. and that
 it will not use this program in any manner prohibited above.
 ---------------------------------------------------------------
  

 Cite this work as:
 Gaussian 16, Revision A.03,
 M. J. Frisch, G. W. Trucks, H. B. Schlegel, G. E. Scuseria, 
 M. A. Robb, J. R. Cheeseman, G. Scalmani, V. Barone, 
 G. A. Petersson, H. Nakatsuji, X. Li, M. Caricato, A. V. Marenich, 
 J. Bloino, B. G. Janesko, R. Gomperts, B. Mennucci, H. P. Hratchian, 
 J. V. Ortiz, A. F. Izmaylov, J. L. Sonnenberg, D. Williams-Young, 
 F. Ding, F. Lipparini, F. Egidi, J. Goings, B. Peng, A. Petrone, 
 T. Henderson, D. Ranasinghe, V. G. Zakrzewski, J. Gao, N. Rega, 
 G. Zheng, W. Liang, M. Hada, M. Ehara, K. Toyota, R. Fukuda, 
 J. Hasegawa, M. Ishida, T. Nakajima, Y. Honda, O. Kitao, H. Nakai, 
 T. Vreven, K. Throssell, J. A. Montgomery, Jr., J. E. Peralta, 
 F. Ogliaro, M. J. Bearpark, J. J. Heyd, E. N. Brothers, K. N. Kudin, 
 V. N. Staroverov, T. A. Keith, R. Kobayashi, J. Normand, 
 K. Raghavachari, A. P. Rendell, J. C. Burant, S. S. Iyengar, 
 J. Tomasi, M. Cossi, J. M. Millam, M. Klene, C. Adamo, R. Cammi, 
 J. W. Ochterski, R. L. Martin, K. Morokuma, O. Farkas, 
 J. B. Foresman, and D. J. Fox, Gaussian, Inc., Wallingford CT, 2016.
 
 ******************************************
 Gaussian 16:  ES64L-G16RevA.03 25-Dec-2016
                15-May-2023 
 ******************************************
 %chk=CCCCn1ccnc1.chk
 %NProcShared=20
 Will use up to   20 processors via shared memory.
 -----------------------------
 # opt freq b3lyp/6-31g(2df,p)
 -----------------------------
 1/18=20,19=15,26=3,38=1/1,3;
 2/9=110,12=2,17=6,18=5,40=1/2;
 3/5=1,6=6,7=104,11=2,25=1,30=1,71=1,74=-5/1,2,3;
 4//1;
 5/5=2,38=5/2;
 6/7=2,8=2,9=2,10=2,28=1/1;
 7//1,2,3,16;
 1/18=20,19=15,26=3/3(2);
 2/9=110/2;
 99//99;
 2/9=110/2;
 3/5=1,6=6,7=104,11=2,25=1,30=1,71=1,74=-5/1,2,3;
 4/5=5,16=3,69=1/1;
 5/5=2,38=5/2;
 7//1,2,3,16;
 1/18=20,19=15,26=3/3(-5);
 2/9=110/2;
 6/7=2,8=2,9=2,10=2,19=2,28=1/1;
 99/9=1/99;
 -------------------
 Title Card Required
 -------------------
 Symbolic Z-matrix:
 Charge =  0 Multiplicity = 1
 C                     0.93156  -0.01461   0.06701 
 C                     2.45077  -0.01297   0.07512 
 C                     2.97429   0.62956   1.35228 
 C                     4.49865   0.65877   1.38507 
 N                     4.96712   1.29554   2.5991 
 C                     4.8754    2.62839   2.88667 
 C                     5.30305   2.73496   4.18925 
 N                     5.68532   1.512     4.67789 
 C                     5.47706   0.66373   3.69462 
 H                     0.55562  -0.47514  -0.85061 
 H                     0.54115   1.00696   0.12322 
 H                     0.53887  -0.57703   0.92039 
 H                     2.81957   0.53758  -0.79796 
 H                     2.81963  -1.04166  -0.00514 
 H                     2.59723   0.08344   2.22679 
 H                     2.58041   1.65115   1.43181 
 H                     4.90695   1.22283   0.53887 
 H                     4.91162  -0.35583   1.34812 
 H                     4.49376   3.35501   2.18406 
 H                     5.34775   3.62605   4.80053 
 H                     5.65932  -0.40189   3.73367 
 

 GradGradGradGradGradGradGradGradGradGradGradGradGradGradGradGradGradGrad
 Berny optimization.
 Initialization pass.
                           ----------------------------
                           !    Initial Parameters    !
                           ! (Angstroms and Degrees)  !
 --------------------------                            --------------------------
 ! Name  Definition              Value          Derivative Info.                !
 --------------------------------------------------------------------------------
 ! R1    R(1,2)                  1.5192         estimate D2E/DX2                !
 ! R2    R(1,10)                 1.0934         estimate D2E/DX2                !
 ! R3    R(1,11)                 1.0951         estimate D2E/DX2                !
 ! R4    R(1,12)                 1.0949         estimate D2E/DX2                !
 ! R5    R(2,3)                  1.5225         estimate D2E/DX2                !
 ! R6    R(2,13)                 1.0961         estimate D2E/DX2                !
 ! R7    R(2,14)                 1.0958         estimate D2E/DX2                !
 ! R8    R(3,4)                  1.525          estimate D2E/DX2                !
 ! R9    R(3,15)                 1.0978         estimate D2E/DX2                !
 ! R10   R(3,16)                 1.0978         estimate D2E/DX2                !
 ! R11   R(4,5)                  1.4487         estimate D2E/DX2                !
 ! R12   R(4,17)                 1.0959         estimate D2E/DX2                !
 ! R13   R(4,18)                 1.096          estimate D2E/DX2                !
 ! R14   R(5,6)                  1.3666         estimate D2E/DX2                !
 ! R15   R(5,9)                  1.3636         estimate D2E/DX2                !
 ! R16   R(6,7)                  1.3751         estimate D2E/DX2                !
 ! R17   R(6,19)                 1.0804         estimate D2E/DX2                !
 ! R18   R(7,8)                  1.3713         estimate D2E/DX2                !
 ! R19   R(7,20)                 1.0815         estimate D2E/DX2                !
 ! R20   R(8,9)                  1.3152         estimate D2E/DX2                !
 ! R21   R(9,21)                 1.0818         estimate D2E/DX2                !
 ! A1    A(2,1,10)             110.412          estimate D2E/DX2                !
 ! A2    A(2,1,11)             110.8075         estimate D2E/DX2                !
 ! A3    A(2,1,12)             110.7963         estimate D2E/DX2                !
 ! A4    A(10,1,11)            108.266          estimate D2E/DX2                !
 ! A5    A(10,1,12)            108.328          estimate D2E/DX2                !
 ! A6    A(11,1,12)            108.1391         estimate D2E/DX2                !
 ! A7    A(1,2,3)              110.4127         estimate D2E/DX2                !
 ! A8    A(1,2,13)             109.4362         estimate D2E/DX2                !
 ! A9    A(1,2,14)             109.5855         estimate D2E/DX2                !
 ! A10   A(3,2,13)             109.908          estimate D2E/DX2                !
 ! A11   A(3,2,14)             109.9914         estimate D2E/DX2                !
 ! A12   A(13,2,14)            107.4537         estimate D2E/DX2                !
 ! A13   A(2,3,4)              111.7051         estimate D2E/DX2                !
 ! A14   A(2,3,15)             109.888          estimate D2E/DX2                !
 ! A15   A(2,3,16)             109.2766         estimate D2E/DX2                !
 ! A16   A(4,3,15)             109.6165         estimate D2E/DX2                !
 ! A17   A(4,3,16)             109.8322         estimate D2E/DX2                !
 ! A18   A(15,3,16)            106.3792         estimate D2E/DX2                !
 ! A19   A(3,4,5)              110.4671         estimate D2E/DX2                !
 ! A20   A(3,4,17)             111.4496         estimate D2E/DX2                !
 ! A21   A(3,4,18)             110.9878         estimate D2E/DX2                !
 ! A22   A(5,4,17)             107.4794         estimate D2E/DX2                !
 ! A23   A(5,4,18)             108.2575         estimate D2E/DX2                !
 ! A24   A(17,4,18)            108.0624         estimate D2E/DX2                !
 ! A25   A(4,5,6)              125.6842         estimate D2E/DX2                !
 ! A26   A(4,5,9)              126.1943         estimate D2E/DX2                !
 ! A27   A(6,5,9)              107.9351         estimate D2E/DX2                !
 ! A28   A(5,6,7)              104.7167         estimate D2E/DX2                !
 ! A29   A(5,6,19)             122.874          estimate D2E/DX2                !
 ! A30   A(7,6,19)             132.3567         estimate D2E/DX2                !
 ! A31   A(6,7,8)              110.8            estimate D2E/DX2                !
 ! A32   A(6,7,20)             127.7408         estimate D2E/DX2                !
 ! A33   A(8,7,20)             121.4571         estimate D2E/DX2                !
 ! A34   A(7,8,9)              105.3465         estimate D2E/DX2                !
 ! A35   A(5,9,8)              111.1626         estimate D2E/DX2                !
 ! A36   A(5,9,21)             123.2586         estimate D2E/DX2                !
 ! A37   A(8,9,21)             125.5675         estimate D2E/DX2                !
 ! D1    D(10,1,2,3)           179.9442         estimate D2E/DX2                !
 ! D2    D(10,1,2,13)           58.8396         estimate D2E/DX2                !
 ! D3    D(10,1,2,14)          -58.7506         estimate D2E/DX2                !
 ! D4    D(11,1,2,3)            59.9986         estimate D2E/DX2                !
 ! D5    D(11,1,2,13)          -61.106          estimate D2E/DX2                !
 ! D6    D(11,1,2,14)         -178.6961         estimate D2E/DX2                !
 ! D7    D(12,1,2,3)           -60.0399         estimate D2E/DX2                !
 ! D8    D(12,1,2,13)          178.8555         estimate D2E/DX2                !
 ! D9    D(12,1,2,14)           61.2654         estimate D2E/DX2                !
 ! D10   D(1,2,3,4)           -179.453          estimate D2E/DX2                !
 ! D11   D(1,2,3,15)            58.6592         estimate D2E/DX2                !
 ! D12   D(1,2,3,16)           -57.7136         estimate D2E/DX2                !
 ! D13   D(13,2,3,4)           -58.6295         estimate D2E/DX2                !
 ! D14   D(13,2,3,15)          179.4826         estimate D2E/DX2                !
 ! D15   D(13,2,3,16)           63.1099         estimate D2E/DX2                !
 ! D16   D(14,2,3,4)            59.483          estimate D2E/DX2                !
 ! D17   D(14,2,3,15)          -62.4049         estimate D2E/DX2                !
 ! D18   D(14,2,3,16)         -178.7776         estimate D2E/DX2                !
 ! D19   D(2,3,4,5)            179.0089         estimate D2E/DX2                !
 ! D20   D(2,3,4,17)            59.596          estimate D2E/DX2                !
 ! D21   D(2,3,4,18)           -60.9026         estimate D2E/DX2                !
 ! D22   D(15,3,4,5)           -58.9471         estimate D2E/DX2                !
 ! D23   D(15,3,4,17)         -178.3599         estimate D2E/DX2                !
 ! D24   D(15,3,4,18)           61.1414         estimate D2E/DX2                !
 ! D25   D(16,3,4,5)            57.5905         estimate D2E/DX2                !
 ! D26   D(16,3,4,17)          -61.8223         estimate D2E/DX2                !
 ! D27   D(16,3,4,18)          177.679          estimate D2E/DX2                !
 ! D28   D(3,4,5,6)            -70.9918         estimate D2E/DX2                !
 ! D29   D(3,4,5,9)            103.4393         estimate D2E/DX2                !
 ! D30   D(17,4,5,6)            50.7943         estimate D2E/DX2                !
 ! D31   D(17,4,5,9)          -134.7746         estimate D2E/DX2                !
 ! D32   D(18,4,5,6)           167.2931         estimate D2E/DX2                !
 ! D33   D(18,4,5,9)           -18.2757         estimate D2E/DX2                !
 ! D34   D(4,5,6,7)            173.3008         estimate D2E/DX2                !
 ! D35   D(4,5,6,19)            -4.3583         estimate D2E/DX2                !
 ! D36   D(9,5,6,7)             -1.9776         estimate D2E/DX2                !
 ! D37   D(9,5,6,19)          -179.6367         estimate D2E/DX2                !
 ! D38   D(4,5,9,8)           -173.6729         estimate D2E/DX2                !
 ! D39   D(4,5,9,21)             5.1676         estimate D2E/DX2                !
 ! D40   D(6,5,9,8)              1.5749         estimate D2E/DX2                !
 ! D41   D(6,5,9,21)          -179.5847         estimate D2E/DX2                !
 ! D42   D(5,6,7,8)              1.7745         estimate D2E/DX2                !
 ! D43   D(5,6,7,20)          -177.7098         estimate D2E/DX2                !
 ! D44   D(19,6,7,8)           179.1138         estimate D2E/DX2                !
 ! D45   D(19,6,7,20)           -0.3706         estimate D2E/DX2                !
 ! D46   D(6,7,8,9)             -0.8565         estimate D2E/DX2                !
 ! D47   D(20,7,8,9)           178.6655         estimate D2E/DX2                !
 ! D48   D(7,8,9,5)             -0.4436         estimate D2E/DX2                !
 ! D49   D(7,8,9,21)          -179.2516         estimate D2E/DX2                !
 --------------------------------------------------------------------------------
 Trust Radius=3.00D-01 FncErr=1.00D-07 GrdErr=1.00D-06 EigMax=2.50D+02 EigMin=1.00D-04
 Number of steps in this run=    117 maximum allowed number of steps=    126.
 GradGradGradGradGradGradGradGradGradGradGradGradGradGradGradGradGradGrad

                          Input orientation:                          
 ---------------------------------------------------------------------
 Center     Atomic      Atomic             Coordinates (Angstroms)
 Number     Number       Type             X           Y           Z
 ---------------------------------------------------------------------
      1          6           0        0.931560   -0.014610    0.067010
      2          6           0        2.450770   -0.012970    0.075120
      3          6           0        2.974290    0.629560    1.352280
      4          6           0        4.498650    0.658770    1.385070
      5          7           0        4.967120    1.295540    2.599100
      6          6           0        4.875400    2.628390    2.886670
      7          6           0        5.303050    2.734960    4.189250
      8          7           0        5.685320    1.512000    4.677890
      9          6           0        5.477060    0.663730    3.694620
     10          1           0        0.555620   -0.475140   -0.850610
     11          1           0        0.541150    1.006960    0.123220
     12          1           0        0.538870   -0.577030    0.920390
     13          1           0        2.819570    0.537580   -0.797960
     14          1           0        2.819630   -1.041660   -0.005140
     15          1           0        2.597230    0.083440    2.226790
     16          1           0        2.580410    1.651150    1.431810
     17          1           0        4.906950    1.222830    0.538870
     18          1           0        4.911620   -0.355830    1.348120
     19          1           0        4.493760    3.355010    2.184060
     20          1           0        5.347750    3.626050    4.800530
     21          1           0        5.659320   -0.401890    3.733670
 ---------------------------------------------------------------------
                    Distance matrix (angstroms):
                    1          2          3          4          5
     1  C    0.000000
     2  C    1.519233   0.000000
     3  C    2.497923   1.522516   0.000000
     4  C    3.861975   2.522105   1.524992   0.000000
     5  N    4.941024   3.796668   2.443248   1.448727   0.000000
     6  C    5.521757   4.556361   3.156564   2.505224   1.366601
     7  C    6.607793   5.710752   4.231339   3.580649   2.171026
     8  N    6.796248   5.828665   4.380418   3.602617   2.209985
     9  C    5.855021   4.766250   3.428058   2.508253   1.363593
    10  H    1.093364   2.159206   3.452977   4.672419   5.873427
    11  H    1.095073   2.165461   2.751943   4.168370   5.079613
    12  H    1.094888   2.165181   2.752028   4.174085   5.092542
    13  H    2.148876   1.096078   2.157761   2.756740   4.089803
    14  H    2.150545   1.095766   2.158584   2.764644   4.105640
    15  H    2.729234   2.158803   1.097811   2.157521   2.687783
    16  H    2.712221   2.150979   1.097776   2.160242   2.680561
    17  H    4.190183   2.788384   2.179170   1.095868   2.062391
    18  H    4.195063   2.791749   2.173536   1.096049   2.072451
    19  H    5.340928   4.468190   3.229354   2.812138   2.153542
    20  H    7.427203   6.630570   5.148077   4.603378   3.228382
    21  H    5.995506   4.881705   3.734206   2.826319   2.155843
                    6          7          8          9         10
     6  C    0.000000
     7  C    1.375120   0.000000
     8  N    2.260700   1.371324   0.000000
     9  C    2.207865   2.136570   1.315201   0.000000
    10  H    6.500743   7.631712   7.799158   6.795345   0.000000
    11  H    5.389936   6.495712   6.889308   6.102124   1.773464
    12  H    5.739901   6.659740   6.705878   5.798410   1.774008
    13  H    4.708972   5.989025   6.256752   5.221249   2.480694
    14  H    5.104706   6.166291   6.055091   4.864002   2.482238
    15  H    3.478832   4.266529   4.193444   3.284004   3.735047
    16  H    2.887663   4.023790   4.494092   3.806033   3.718914
    17  H    2.736560   3.970983   4.221489   3.255208   4.873174
    18  H    3.357680   4.216423   3.895481   2.620169   4.880920
    19  H    1.080410   2.249489   3.322001   3.239083   6.276003
    20  H    2.209366   1.081528   2.144342   3.164664   8.468746
    21  H    3.242613   3.189719   2.134292   1.081799   6.860666
                   11         12         13         14         15
    11  H    0.000000
    12  H    1.773276   0.000000
    13  H    2.502017   3.065400   0.000000
    14  H    3.066723   2.504866   1.767077   0.000000
    15  H    3.083077   2.525816   3.066723   2.509347   0.000000
    16  H    2.507184   3.065000   2.503819   3.061581   1.757837
    17  H    4.390851   4.739744   2.571738   3.127422   3.079300
    18  H    4.739049   4.399185   3.127381   2.584202   2.514243
    19  H    5.038207   5.718300   4.430944   5.189028   3.781775
    20  H    7.200018   7.473065   6.875568   7.160543   5.171033
    21  H    6.419959   5.845017   5.429775   4.738338   3.447119
                   16         17         18         19         20
    16  H    0.000000
    17  H    2.528555   0.000000
    18  H    3.077257   1.774000   0.000000
    19  H    2.670192   2.724622   3.826713   0.000000
    20  H    4.786092   4.912384   5.288167   2.765624   0.000000
    21  H    4.358121   3.662311   2.500405   4.227779   4.178465
                   21
    21  H    0.000000
 Stoichiometry    C7H12N2
 Framework group  C1[X(C7H12N2)]
 Deg. of freedom    57
 Full point group                 C1      NOp   1
 Largest Abelian subgroup         C1      NOp   1
 Largest concise Abelian subgroup C1      NOp   1
                         Standard orientation:                         
 ---------------------------------------------------------------------
 Center     Atomic      Atomic             Coordinates (Angstroms)
 Number     Number       Type             X           Y           Z
 ---------------------------------------------------------------------
      1          6           0        3.798136    0.429557   -0.619911
      2          6           0        2.795844   -0.257896    0.291619
      3          6           0        1.373226    0.078004   -0.134274
      4          6           0        0.341650   -0.587200    0.770688
      5          7           0       -1.000183   -0.231501    0.356233
      6          6           0       -1.579044    0.998164    0.499208
      7          6           0       -2.777392    0.899865   -0.168067
      8          7           0       -2.951507   -0.363229   -0.672852
      9          6           0       -1.866145   -1.025315   -0.336122
     10          1           0        4.819761    0.189124   -0.313448
     11          1           0        3.675615    1.517120   -0.582761
     12          1           0        3.664995    0.106786   -1.657635
     13          1           0        2.961953    0.065119    1.325764
     14          1           0        2.951162   -1.342044    0.256963
     15          1           0        1.210089   -0.237316   -1.173095
     16          1           0        1.237177    1.167170   -0.116367
     17          1           0        0.459145   -0.270042    1.813057
     18          1           0        0.434007   -1.678772    0.735130
     19          1           0       -1.094979    1.818493    1.009136
     20          1           0       -3.517774    1.674101   -0.316719
     21          1           0       -1.656976   -2.057701   -0.582530
 ---------------------------------------------------------------------
 Rotational constants (GHZ):           5.0247693           0.7068352           0.6824492
 Standard basis: 6-31G(2df,p) (6D, 7F)
 There are   339 symmetry adapted cartesian basis functions of A   symmetry.
 There are   312 symmetry adapted basis functions of A   symmetry.
   312 basis functions,   480 primitive gaussians,   339 cartesian basis functions
    34 alpha electrons       34 beta electrons
       nuclear repulsion energy       436.3249654040 Hartrees.
 NAtoms=   21 NActive=   21 NUniq=   21 SFac= 1.00D+00 NAtFMM=   60 NAOKFM=F Big=F
 Integral buffers will be    131072 words long.
 Raffenetti 2 integral format.
 Two-electron integral symmetry is turned on.
 One-electron integrals computed using PRISM.
 PrsmSu:  requested number of processors reduced to:  13 ShMem   1 Linda.
 NBasis=   312 RedAO= T EigKep=  2.20D-04  NBF=   312
 NBsUse=   312 1.00D-06 EigRej= -1.00D+00 NBFU=   312
 ExpMin= 1.61D-01 ExpMax= 4.17D+03 ExpMxC= 6.27D+02 IAcc=3 IRadAn=         5 AccDes= 0.00D+00
 Harris functional with IExCor=  402 and IRadAn=       5 diagonalized for initial guess.
 HarFok:  IExCor=  402 AccDes= 0.00D+00 IRadAn=         5 IDoV= 1 UseB2=F ITyADJ=14
 ICtDFT=  3500011 ScaDFX=  1.000000  1.000000  1.000000  1.000000
 FoFCou: FMM=F IPFlag=           0 FMFlag=      100000 FMFlg1=           0
         NFxFlg=           0 DoJE=T BraDBF=F KetDBF=T FulRan=T
         wScrn=  0.000000 ICntrl=       500 IOpCl=  0 I1Cent=   200000004 NGrid=           0
         NMat0=    1 NMatS0=      1 NMatT0=    0 NMatD0=    1 NMtDS0=    0 NMtDT0=    0
 Petite list used in FoFCou.
 Requested convergence on RMS density matrix=1.00D-08 within 128 cycles.
 Requested convergence on MAX density matrix=1.00D-06.
 Requested convergence on             energy=1.00D-06.
 No special actions if energy rises.
 Integral accuracy reduced to 1.0D-05 until final iterations.
 Initial convergence to 1.0D-05 achieved.  Increase integral accuracy.
 SCF Done:  E(RB3LYP) =  -383.497476710     A.U. after   13 cycles
            NFock= 13  Conv=0.96D-08     -V/T= 2.0079

 **********************************************************************

            Population analysis using the SCF density.

 **********************************************************************

 Orbital symmetries:
       Occupied  (A) (A) (A) (A) (A) (A) (A) (A) (A) (A) (A) (A)
                 (A) (A) (A) (A) (A) (A) (A) (A) (A) (A) (A) (A)
                 (A) (A) (A) (A) (A) (A) (A) (A) (A) (A)
       Virtual   (A) (A) (A) (A) (A) (A) (A) (A) (A) (A) (A) (A)
                 (A) (A) (A) (A) (A) (A) (A) (A) (A) (A) (A) (A)
                 (A) (A) (A) (A) (A) (A) (A) (A) (A) (A) (A) (A)
                 (A) (A) (A) (A) (A) (A) (A) (A) (A) (A) (A) (A)
                 (A) (A) (A) (A) (A) (A) (A) (A) (A) (A) (A) (A)
                 (A) (A) (A) (A) (A) (A) (A) (A) (A) (A) (A) (A)
                 (A) (A) (A) (A) (A) (A) (A) (A) (A) (A) (A) (A)
                 (A) (A) (A) (A) (A) (A) (A) (A) (A) (A) (A) (A)
                 (A) (A) (A) (A) (A) (A) (A) (A) (A) (A) (A) (A)
                 (A) (A) (A) (A) (A) (A) (A) (A) (A) (A) (A) (A)
                 (A) (A) (A) (A) (A) (A) (A) (A) (A) (A) (A) (A)
                 (A) (A) (A) (A) (A) (A) (A) (A) (A) (A) (A) (A)
                 (A) (A) (A) (A) (A) (A) (A) (A) (A) (A) (A) (A)
                 (A) (A) (A) (A) (A) (A) (A) (A) (A) (A) (A) (A)
                 (A) (A) (A) (A) (A) (A) (A) (A) (A) (A) (A) (A)
                 (A) (A) (A) (A) (A) (A) (A) (A) (A) (A) (A) (A)
                 (A) (A) (A) (A) (A) (A) (A) (A) (A) (A) (A) (A)
                 (A) (A) (A) (A) (A) (A) (A) (A) (A) (A) (A) (A)
                 (A) (A) (A) (A) (A) (A) (A) (A) (A) (A) (A) (A)
                 (A) (A) (A) (A) (A) (A) (A) (A) (A) (A) (A) (A)
                 (A) (A) (A) (A) (A) (A) (A) (A) (A) (A) (A) (A)
                 (A) (A) (A) (A) (A) (A) (A) (A) (A) (A) (A) (A)
                 (A) (A) (A) (A) (A) (A) (A) (A) (A) (A) (A) (A)
                 (A) (A)
 The electronic state is 1-A.
 Alpha  occ. eigenvalues --  -14.37832 -14.29360 -10.23429 -10.22053 -10.19756
 Alpha  occ. eigenvalues --  -10.19319 -10.19087 -10.18251 -10.18063  -1.00980
 Alpha  occ. eigenvalues --   -0.87912  -0.80663  -0.74595  -0.72370  -0.65489
 Alpha  occ. eigenvalues --   -0.59724  -0.58641  -0.56565  -0.52507  -0.48878
 Alpha  occ. eigenvalues --   -0.46147  -0.44430  -0.42270  -0.41992  -0.41298
 Alpha  occ. eigenvalues --   -0.39610  -0.38661  -0.36674  -0.35296  -0.34545
 Alpha  occ. eigenvalues --   -0.34069  -0.25830  -0.25361  -0.21795
 Alpha virt. eigenvalues --    0.03570   0.07376   0.07821   0.09985   0.10371
 Alpha virt. eigenvalues --    0.12530   0.13176   0.14515   0.15349   0.16504
 Alpha virt. eigenvalues --    0.17007   0.17366   0.18288   0.19099   0.19860
 Alpha virt. eigenvalues --    0.21911   0.23366   0.24628   0.26250   0.27583
 Alpha virt. eigenvalues --    0.30755   0.33411   0.40969   0.42258   0.44583
 Alpha virt. eigenvalues --    0.44716   0.46476   0.49852   0.50894   0.51110
 Alpha virt. eigenvalues --    0.52966   0.53949   0.55190   0.56107   0.56560
 Alpha virt. eigenvalues --    0.57875   0.58851   0.58921   0.61886   0.62350
 Alpha virt. eigenvalues --    0.64377   0.67108   0.67662   0.69818   0.70476
 Alpha virt. eigenvalues --    0.71856   0.72860   0.73427   0.73863   0.75371
 Alpha virt. eigenvalues --    0.75590   0.76730   0.78168   0.79492   0.80073
 Alpha virt. eigenvalues --    0.80516   0.82737   0.83590   0.84080   0.85905
 Alpha virt. eigenvalues --    0.86479   0.87512   0.89248   0.90194   0.92145
 Alpha virt. eigenvalues --    0.97626   1.02566   1.03618   1.03967   1.04859
 Alpha virt. eigenvalues --    1.11064   1.13997   1.16764   1.18514   1.19448
 Alpha virt. eigenvalues --    1.21686   1.22640   1.24090   1.29906   1.32242
 Alpha virt. eigenvalues --    1.32554   1.34751   1.35648   1.36610   1.39406
 Alpha virt. eigenvalues --    1.39987   1.47213   1.47270   1.48779   1.51668
 Alpha virt. eigenvalues --    1.52432   1.53076   1.54086   1.55699   1.58178
 Alpha virt. eigenvalues --    1.59644   1.61779   1.63459   1.67483   1.69418
 Alpha virt. eigenvalues --    1.70123   1.71798   1.76925   1.79178   1.82006
 Alpha virt. eigenvalues --    1.84867   1.85884   1.89207   1.91911   1.93504
 Alpha virt. eigenvalues --    1.95563   1.97754   2.02862   2.07638   2.12154
 Alpha virt. eigenvalues --    2.16432   2.17645   2.18622   2.19724   2.21562
 Alpha virt. eigenvalues --    2.23962   2.28741   2.32382   2.33773   2.35143
 Alpha virt. eigenvalues --    2.37183   2.38607   2.43260   2.45562   2.54591
 Alpha virt. eigenvalues --    2.58252   2.59949   2.61208   2.64190   2.71845
 Alpha virt. eigenvalues --    2.72836   2.73574   2.75905   2.76781   2.77938
 Alpha virt. eigenvalues --    2.79482   2.81333   2.82126   2.85240   2.85742
 Alpha virt. eigenvalues --    2.87684   2.88669   2.88826   2.91185   2.91768
 Alpha virt. eigenvalues --    2.94007   2.95815   2.98797   2.99884   3.00661
 Alpha virt. eigenvalues --    3.05529   3.07507   3.08203   3.11867   3.13124
 Alpha virt. eigenvalues --    3.15317   3.16531   3.18467   3.20104   3.21736
 Alpha virt. eigenvalues --    3.24059   3.29715   3.31773   3.32017   3.33813
 Alpha virt. eigenvalues --    3.36329   3.37262   3.41806   3.42961   3.43550
 Alpha virt. eigenvalues --    3.47821   3.49380   3.51947   3.53653   3.56354
 Alpha virt. eigenvalues --    3.57624   3.61004   3.65107   3.66387   3.69061
 Alpha virt. eigenvalues --    3.71221   3.72290   3.75975   3.77178   3.79470
 Alpha virt. eigenvalues --    3.81079   3.82295   3.88717   3.90612   3.92267
 Alpha virt. eigenvalues --    3.96973   4.02344   4.05118   4.05958   4.10177
 Alpha virt. eigenvalues --    4.16220   4.17318   4.18534   4.20476   4.25306
 Alpha virt. eigenvalues --    4.30154   4.34161   4.36917   4.39865   4.41626
 Alpha virt. eigenvalues --    4.43796   4.45269   4.46366   4.47221   4.48606
 Alpha virt. eigenvalues --    4.51155   4.51668   4.53175   4.54363   4.55024
 Alpha virt. eigenvalues --    4.55889   4.57240   4.57616   4.60418   4.61337
 Alpha virt. eigenvalues --    4.62157   4.64040   4.65286   4.65985   4.69544
 Alpha virt. eigenvalues --    4.72749   4.73140   4.74590   4.75374   4.76726
 Alpha virt. eigenvalues --    4.77772   4.79652   4.82032   4.84582   4.85684
 Alpha virt. eigenvalues --    4.87283   4.90490   4.92945   4.94029   4.94746
 Alpha virt. eigenvalues --    4.98739   5.01151   5.07636   5.15226   5.16907
 Alpha virt. eigenvalues --    5.19062   5.27425   5.29024   5.32774   5.36044
 Alpha virt. eigenvalues --    5.40448   5.44629   5.47230   5.50312   5.53233
 Alpha virt. eigenvalues --    5.59793   5.63835   5.67394   5.94286   6.03916
 Alpha virt. eigenvalues --    6.12001   6.28174  10.18581  10.60083  11.03754
 Alpha virt. eigenvalues --   11.19747  11.36221  11.45228  11.69043  12.06461
 Alpha virt. eigenvalues --   12.37233  14.81004  20.91515
          Condensed to atoms (all electrons):
               1          2          3          4          5          6
     1  C    4.935896   0.410896  -0.032318   0.002131  -0.000108  -0.000000
     2  C    0.410896   4.792945   0.400885  -0.033777   0.003267  -0.000043
     3  C   -0.032318   0.400885   4.839805   0.404473  -0.056173  -0.000126
     4  C    0.002131  -0.033777   0.404473   4.909305   0.387986  -0.064893
     5  N   -0.000108   0.003267  -0.056173   0.387986   5.871011   0.447582
     6  C   -0.000000  -0.000043  -0.000126  -0.064893   0.447582   4.930213
     7  C    0.000000  -0.000002   0.000405   0.005502  -0.026070   0.600873
     8  N   -0.000000  -0.000000  -0.000216   0.005184  -0.084124  -0.013771
     9  C   -0.000001  -0.000096  -0.001022  -0.054722   0.508863  -0.091729
    10  H    0.373396  -0.022628   0.003230  -0.000156   0.000001   0.000000
    11  H    0.380841  -0.029702  -0.004989   0.000153   0.000003  -0.000003
    12  H    0.381140  -0.029678  -0.004609   0.000142   0.000002   0.000001
    13  H   -0.034772   0.372419  -0.034062  -0.003015   0.000168   0.000008
    14  H   -0.034531   0.371853  -0.033527  -0.002837   0.000147   0.000012
    15  H   -0.002698  -0.032488   0.367444  -0.032847   0.001074  -0.000141
    16  H   -0.002788  -0.034170   0.371567  -0.034845  -0.002523   0.004966
    17  H   -0.000053  -0.001306  -0.038719   0.353900  -0.017737  -0.003372
    18  H   -0.000040  -0.002230  -0.030416   0.354795  -0.015712   0.005694
    19  H   -0.000000  -0.000020  -0.000410  -0.001118  -0.030766   0.360724
    20  H    0.000000   0.000000   0.000002  -0.000161   0.002012  -0.040477
    21  H    0.000000  -0.000009   0.000048  -0.002217  -0.034532   0.006111
               7          8          9         10         11         12
     1  C    0.000000  -0.000000  -0.000001   0.373396   0.380841   0.381140
     2  C   -0.000002  -0.000000  -0.000096  -0.022628  -0.029702  -0.029678
     3  C    0.000405  -0.000216  -0.001022   0.003230  -0.004989  -0.004609
     4  C    0.005502   0.005184  -0.054722  -0.000156   0.000153   0.000142
     5  N   -0.026070  -0.084124   0.508863   0.000001   0.000003   0.000002
     6  C    0.600873  -0.013771  -0.091729   0.000000  -0.000003   0.000001
     7  C    4.785862   0.509931  -0.129282  -0.000000  -0.000000  -0.000000
     8  N    0.509931   6.311366   0.577098   0.000000  -0.000000   0.000000
     9  C   -0.129282   0.577098   4.830126   0.000000   0.000000  -0.000000
    10  H   -0.000000   0.000000   0.000000   0.600412  -0.031163  -0.031076
    11  H   -0.000000  -0.000000   0.000000  -0.031163   0.595020  -0.032769
    12  H   -0.000000   0.000000  -0.000000  -0.031076  -0.032769   0.593172
    13  H   -0.000000  -0.000000   0.000008  -0.002298  -0.004474   0.005563
    14  H   -0.000000  -0.000000   0.000000  -0.002288   0.005569  -0.004412
    15  H   -0.000068  -0.000164   0.003126  -0.000029  -0.000410   0.004892
    16  H   -0.000252   0.000030  -0.000079  -0.000032   0.005203  -0.000433
    17  H    0.000274  -0.000344   0.003662   0.000006   0.000002   0.000007
    18  H   -0.000433   0.000453  -0.004938   0.000005   0.000009   0.000001
    19  H   -0.031270   0.005881   0.003511  -0.000000  -0.000000   0.000000
    20  H    0.368613  -0.020985   0.005266  -0.000000  -0.000000  -0.000000
    21  H    0.005405  -0.019131   0.361157  -0.000000   0.000000   0.000000
              13         14         15         16         17         18
     1  C   -0.034772  -0.034531  -0.002698  -0.002788  -0.000053  -0.000040
     2  C    0.372419   0.371853  -0.032488  -0.034170  -0.001306  -0.002230
     3  C   -0.034062  -0.033527   0.367444   0.371567  -0.038719  -0.030416
     4  C   -0.003015  -0.002837  -0.032847  -0.034845   0.353900   0.354795
     5  N    0.000168   0.000147   0.001074  -0.002523  -0.017737  -0.015712
     6  C    0.000008   0.000012  -0.000141   0.004966  -0.003372   0.005694
     7  C   -0.000000  -0.000000  -0.000068  -0.000252   0.000274  -0.000433
     8  N   -0.000000  -0.000000  -0.000164   0.000030  -0.000344   0.000453
     9  C    0.000008   0.000000   0.003126  -0.000079   0.003662  -0.004938
    10  H   -0.002298  -0.002288  -0.000029  -0.000032   0.000006   0.000005
    11  H   -0.004474   0.005569  -0.000410   0.005203   0.000002   0.000009
    12  H    0.005563  -0.004412   0.004892  -0.000433   0.000007   0.000001
    13  H    0.638999  -0.041321   0.006026  -0.005437   0.004826  -0.000502
    14  H   -0.041321   0.638578  -0.005393   0.006033  -0.000426   0.004463
    15  H    0.006026  -0.005393   0.619535  -0.039819   0.005931  -0.005270
    16  H   -0.005437   0.006033  -0.039819   0.623228  -0.005273   0.005596
    17  H    0.004826  -0.000426   0.005931  -0.005273   0.615023  -0.037374
    18  H   -0.000502   0.004463  -0.005270   0.005596  -0.037374   0.600317
    19  H    0.000005   0.000001   0.000006   0.001976   0.001384   0.000061
    20  H    0.000000   0.000000  -0.000000   0.000003  -0.000002   0.000005
    21  H    0.000000   0.000001   0.000180   0.000008  -0.000043   0.004170
              19         20         21
     1  C   -0.000000   0.000000   0.000000
     2  C   -0.000020   0.000000  -0.000009
     3  C   -0.000410   0.000002   0.000048
     4  C   -0.001118  -0.000161  -0.002217
     5  N   -0.030766   0.002012  -0.034532
     6  C    0.360724  -0.040477   0.006111
     7  C   -0.031270   0.368613   0.005405
     8  N    0.005881  -0.020985  -0.019131
     9  C    0.003511   0.005266   0.361157
    10  H   -0.000000  -0.000000  -0.000000
    11  H   -0.000000  -0.000000   0.000000
    12  H    0.000000  -0.000000   0.000000
    13  H    0.000005   0.000000   0.000000
    14  H    0.000001   0.000000   0.000001
    15  H    0.000006  -0.000000   0.000180
    16  H    0.001976   0.000003   0.000008
    17  H    0.001384  -0.000002  -0.000043
    18  H    0.000061   0.000005   0.004170
    19  H    0.565073   0.001269  -0.000136
    20  H    0.001269   0.581528  -0.000217
    21  H   -0.000136  -0.000217   0.553637
 Mulliken charges:
               1
     1  C   -0.376991
     2  C   -0.166115
     3  C   -0.151271
     4  C   -0.192984
     5  N    0.045628
     6  C   -0.141628
     7  C   -0.089488
     8  N   -0.271208
     9  C   -0.010946
    10  H    0.112621
    11  H    0.116711
    12  H    0.118058
    13  H    0.097859
    14  H    0.098079
    15  H    0.111114
    16  H    0.107040
    17  H    0.119634
    18  H    0.121349
    19  H    0.123827
    20  H    0.103144
    21  H    0.125567
 Sum of Mulliken charges =  -0.00000
 Mulliken charges with hydrogens summed into heavy atoms:
               1
     1  C   -0.029601
     2  C    0.029823
     3  C    0.066883
     4  C    0.047999
     5  N    0.045628
     6  C   -0.017801
     7  C    0.013656
     8  N   -0.271208
     9  C    0.114621
 Electronic spatial extent (au):  <R**2>=           1730.2799
 Charge=             -0.0000 electrons
 Dipole moment (field-independent basis, Debye):
    X=              3.9081    Y=              0.1138    Z=              1.4863  Tot=              4.1828
 Quadrupole moment (field-independent basis, Debye-Ang):
   XX=            -66.2876   YY=            -50.9177   ZZ=            -56.3516
   XY=             -3.1370   XZ=             -2.6584   YZ=              0.7503
 Traceless Quadrupole moment (field-independent basis, Debye-Ang):
   XX=             -8.4353   YY=              6.9346   ZZ=              1.5007
   XY=             -3.1370   XZ=             -2.6584   YZ=              0.7503
 Octapole moment (field-independent basis, Debye-Ang**2):
  XXX=             40.9737  YYY=             -3.4513  ZZZ=              2.9497  XYY=             -5.3054
  XXY=             12.2712  XXZ=             11.0783  XZZ=              6.5710  YZZ=              0.0777
  YYZ=              0.7659  XYZ=              2.3038
 Hexadecapole moment (field-independent basis, Debye-Ang**3):
 XXXX=          -2068.7239 YYYY=           -227.2451 ZZZZ=           -170.8356 XXXY=            -61.7334
 XXXZ=            -25.3855 YYYX=              1.2503 YYYZ=              6.4623 ZZZX=             -4.0815
 ZZZY=              1.5412 XXYY=           -351.2983 XXZZ=           -373.7973 YYZZ=            -70.4237
 XXYZ=             -7.7368 YYXZ=              2.2365 ZZXY=             -1.6640
 N-N= 4.363249654040D+02 E-N=-1.761861284787D+03  KE= 3.804823155860D+02
 PrsmSu:  requested number of processors reduced to:  13 ShMem   1 Linda.
 Calling FoFJK, ICntrl=      2127 FMM=F ISym2X=0 I1Cent= 0 IOpClX= 0 NMat=1 NMatS=1 NMatT=0.
 ***** Axes restored to original set *****
 -------------------------------------------------------------------
 Center     Atomic                   Forces (Hartrees/Bohr)
 Number     Number              X              Y              Z
 -------------------------------------------------------------------
      1        6          -0.004223322   -0.002473949   -0.004621877
      2        6          -0.003375985    0.001183880    0.002217386
      3        6           0.001276633   -0.002042022   -0.005235967
      4        6           0.000865485    0.004271126    0.003809681
      5        7           0.006768627   -0.012718883   -0.007982906
      6        6          -0.001639735    0.004180311    0.011439953
      7        6           0.001245646    0.003909446    0.000218034
      8        7           0.001611804    0.000172511    0.004066805
      9        6          -0.003242595    0.008044175    0.003504133
     10        1          -0.002975689    0.000052893    0.000217095
     11        1          -0.001142083   -0.000389621   -0.000001438
     12        1          -0.001265053    0.000174030   -0.000310852
     13        1           0.001782185   -0.000714245   -0.000838260
     14        1           0.001630676   -0.000510728   -0.001100746
     15        1           0.001591642    0.000408866    0.000007375
     16        1           0.001561916   -0.000387737    0.000563076
     17        1          -0.001730670   -0.002461675   -0.002584863
     18        1          -0.000316031    0.001430226   -0.000379026
     19        1           0.000808070   -0.002532386    0.000462579
     20        1           0.001575384   -0.000827390   -0.000987252
     21        1          -0.000806905    0.001231173   -0.002462930
 -------------------------------------------------------------------
 Cartesian Forces:  Max     0.012718883 RMS     0.003426204

 GradGradGradGradGradGradGradGradGradGradGradGradGradGradGradGradGradGrad
 Berny optimization.
 FormGI is forming the generalized inverse of G from B-inverse, IUseBI=4.
 Internal  Forces:  Max     0.011107223 RMS     0.003149419
 Search for a local minimum.
 Step number   1 out of a maximum of  117
 All quantities printed in internal units (Hartrees-Bohrs-Radians)
 Mixed Optimization -- RFO/linear search
 Second derivative matrix not updated -- first step.
 ITU=  0
     Eigenvalues ---    0.00435   0.00468   0.00512   0.01047   0.01671
     Eigenvalues ---    0.02202   0.02246   0.02332   0.02361   0.02449
     Eigenvalues ---    0.03675   0.03864   0.04496   0.04909   0.04993
     Eigenvalues ---    0.05403   0.05662   0.05698   0.08011   0.08236
     Eigenvalues ---    0.09341   0.11943   0.12120   0.12658   0.15973
     Eigenvalues ---    0.15997   0.15999   0.16000   0.16000   0.16000
     Eigenvalues ---    0.21877   0.21889   0.21940   0.22679   0.23397
     Eigenvalues ---    0.24862   0.29891   0.30125   0.30441   0.33925
     Eigenvalues ---    0.33929   0.34120   0.34123   0.34143   0.34155
     Eigenvalues ---    0.34233   0.34254   0.34427   0.35778   0.35810
     Eigenvalues ---    0.35945   0.38412   0.44135   0.46786   0.51026
     Eigenvalues ---    0.51516   0.60604
 RFO step:  Lambda=-5.58241259D-03 EMin= 4.35345997D-03
 Linear search not attempted -- first point.
 Iteration  1 RMS(Cart)=  0.08745966 RMS(Int)=  0.00186612
 Iteration  2 RMS(Cart)=  0.00265484 RMS(Int)=  0.00033998
 Iteration  3 RMS(Cart)=  0.00000350 RMS(Int)=  0.00033997
 Iteration  4 RMS(Cart)=  0.00000000 RMS(Int)=  0.00033997
 Variable       Old X    -DE/DX   Delta X   Delta X   Delta X     New X
                                 (Linear)    (Quad)   (Total)
    R1        2.87093   0.00963   0.00000   0.03108   0.03108   2.90201
    R2        2.06616   0.00082   0.00000   0.00234   0.00234   2.06850
    R3        2.06939   0.00004   0.00000   0.00013   0.00013   2.06951
    R4        2.06904   0.00012   0.00000   0.00035   0.00035   2.06939
    R5        2.87714   0.00814   0.00000   0.02654   0.02654   2.90368
    R6        2.07129   0.00091   0.00000   0.00262   0.00262   2.07391
    R7        2.07070   0.00111   0.00000   0.00319   0.00319   2.07389
    R8        2.88182   0.00542   0.00000   0.01781   0.01781   2.89963
    R9        2.07456  -0.00074   0.00000  -0.00216  -0.00216   2.07240
   R10        2.07450  -0.00088   0.00000  -0.00255  -0.00255   2.07194
   R11        2.73770   0.00961   0.00000   0.02465   0.02465   2.76234
   R12        2.07089   0.00008   0.00000   0.00024   0.00024   2.07113
   R13        2.07123  -0.00143   0.00000  -0.00412  -0.00412   2.06711
   R14        2.58250   0.00767   0.00000   0.01505   0.01497   2.59747
   R15        2.57682  -0.00027   0.00000  -0.00032  -0.00029   2.57652
   R16        2.59860  -0.00004   0.00000  -0.00005  -0.00013   2.59847
   R17        2.04168  -0.00229   0.00000  -0.00627  -0.00627   2.03541
   R18        2.59143  -0.00110   0.00000  -0.00249  -0.00245   2.58898
   R19        2.04379  -0.00117   0.00000  -0.00323  -0.00323   2.04056
   R20        2.48537   0.00317   0.00000   0.00478   0.00488   2.49025
   R21        2.04430  -0.00144   0.00000  -0.00396  -0.00396   2.04035
    A1        1.92705   0.00368   0.00000   0.02381   0.02371   1.95076
    A2        1.93396   0.00075   0.00000   0.00374   0.00370   1.93765
    A3        1.93376   0.00091   0.00000   0.00464   0.00459   1.93835
    A4        1.88960  -0.00210   0.00000  -0.01111  -0.01120   1.87840
    A5        1.89068  -0.00220   0.00000  -0.01185  -0.01195   1.87873
    A6        1.88738  -0.00125   0.00000  -0.01062  -0.01061   1.87677
    A7        1.92707   0.00853   0.00000   0.04506   0.04488   1.97195
    A8        1.91002  -0.00176   0.00000   0.00026   0.00021   1.91023
    A9        1.91263  -0.00205   0.00000  -0.00307  -0.00308   1.90954
   A10        1.91826  -0.00277   0.00000  -0.01153  -0.01191   1.90635
   A11        1.91971  -0.00266   0.00000  -0.01164  -0.01193   1.90779
   A12        1.87542   0.00046   0.00000  -0.02093  -0.02115   1.85428
   A13        1.94962   0.00599   0.00000   0.02864   0.02866   1.97828
   A14        1.91791  -0.00115   0.00000  -0.00042  -0.00025   1.91766
   A15        1.90724  -0.00084   0.00000   0.00536   0.00544   1.91268
   A16        1.91317  -0.00275   0.00000  -0.01889  -0.01902   1.89415
   A17        1.91693  -0.00260   0.00000  -0.01462  -0.01488   1.90205
   A18        1.85667   0.00109   0.00000  -0.00159  -0.00182   1.85485
   A19        1.92802   0.01111   0.00000   0.05709   0.05688   1.98490
   A20        1.94516  -0.00468   0.00000  -0.02252  -0.02395   1.92121
   A21        1.93710  -0.00279   0.00000  -0.02073  -0.02085   1.91625
   A22        1.87587  -0.00050   0.00000   0.02458   0.02449   1.90036
   A23        1.88945  -0.00428   0.00000  -0.01980  -0.01932   1.87013
   A24        1.88605   0.00098   0.00000  -0.01882  -0.01933   1.86671
   A25        2.19360   0.00542   0.00000   0.02086   0.02109   2.21469
   A26        2.20251   0.00381   0.00000   0.01452   0.01476   2.21726
   A27        1.88382  -0.00924   0.00000  -0.03593  -0.03640   1.84742
   A28        1.82765   0.00566   0.00000   0.02605   0.02453   1.85218
   A29        2.14456  -0.00425   0.00000  -0.02025  -0.02089   2.12367
   A30        2.31006  -0.00132   0.00000  -0.00260  -0.00323   2.30683
   A31        1.93383  -0.00143   0.00000  -0.00755  -0.00803   1.92580
   A32        2.22950   0.00098   0.00000   0.00538   0.00562   2.23512
   A33        2.11983   0.00045   0.00000   0.00218   0.00241   2.12224
   A34        1.83864  -0.00177   0.00000  -0.00932  -0.00976   1.82888
   A35        1.94015   0.00686   0.00000   0.02990   0.02917   1.96933
   A36        2.15127  -0.00595   0.00000  -0.02977  -0.03003   2.12124
   A37        2.19157  -0.00088   0.00000   0.00086   0.00061   2.19217
    D1        3.14062   0.00001   0.00000   0.00095   0.00098  -3.14159
    D2        1.02694  -0.00083   0.00000  -0.01358  -0.01368   1.01327
    D3       -1.02539   0.00084   0.00000   0.01342   0.01348  -1.01191
    D4        1.04717  -0.00024   0.00000  -0.00312  -0.00312   1.04405
    D5       -1.06650  -0.00108   0.00000  -0.01766  -0.01778  -1.08428
    D6       -3.11884   0.00059   0.00000   0.00934   0.00938  -3.10945
    D7       -1.04789   0.00025   0.00000   0.00470   0.00476  -1.04314
    D8        3.12162  -0.00060   0.00000  -0.00983  -0.00990   3.11172
    D9        1.06928   0.00107   0.00000   0.01717   0.01726   1.08655
   D10       -3.13205  -0.00022   0.00000  -0.00608  -0.00611  -3.13815
   D11        1.02380   0.00004   0.00000  -0.00109  -0.00113   1.02267
   D12       -1.00729  -0.00014   0.00000  -0.00202  -0.00194  -1.00923
   D13       -1.02328   0.00128   0.00000   0.01577   0.01564  -1.00764
   D14        3.13256   0.00153   0.00000   0.02076   0.02062  -3.13001
   D15        1.10148   0.00136   0.00000   0.01983   0.01981   1.12128
   D16        1.03817  -0.00145   0.00000  -0.02387  -0.02381   1.01436
   D17       -1.08917  -0.00119   0.00000  -0.01888  -0.01883  -1.10800
   D18       -3.12026  -0.00137   0.00000  -0.01982  -0.01964  -3.13990
   D19        3.12429   0.00140   0.00000   0.02765   0.02758  -3.13131
   D20        1.04015  -0.00228   0.00000  -0.02635  -0.02597   1.01417
   D21       -1.06295   0.00154   0.00000   0.02692   0.02663  -1.03633
   D22       -1.02882   0.00205   0.00000   0.03320   0.03299  -0.99583
   D23       -3.11297  -0.00163   0.00000  -0.02080  -0.02056  -3.13353
   D24        1.06712   0.00219   0.00000   0.03247   0.03204   1.09916
   D25        1.00514   0.00027   0.00000   0.01184   0.01190   1.01704
   D26       -1.07900  -0.00341   0.00000  -0.04216  -0.04166  -1.12066
   D27        3.10108   0.00040   0.00000   0.01111   0.01094   3.11202
   D28       -1.23904   0.00008   0.00000  -0.01632  -0.01694  -1.25598
   D29        1.80536  -0.00047   0.00000  -0.02631  -0.02684   1.77852
   D30        0.88653   0.00072   0.00000   0.00603   0.00664   0.89316
   D31       -2.35226   0.00017   0.00000  -0.00396  -0.00326  -2.35552
   D32        2.91982  -0.00059   0.00000  -0.01334  -0.01346   2.90635
   D33       -0.31897  -0.00115   0.00000  -0.02333  -0.02336  -0.34234
   D34        3.02467   0.00218   0.00000   0.07346   0.07328   3.09795
   D35       -0.07607   0.00016   0.00000   0.00199   0.00203  -0.07403
   D36       -0.03451   0.00217   0.00000   0.08008   0.07968   0.04517
   D37       -3.13525   0.00016   0.00000   0.00861   0.00844  -3.12682
   D38       -3.03116  -0.00187   0.00000  -0.05911  -0.05891  -3.09008
   D39        0.09019  -0.00035   0.00000  -0.00815  -0.00831   0.08188
   D40        0.02749  -0.00177   0.00000  -0.06541  -0.06495  -0.03747
   D41       -3.13434  -0.00025   0.00000  -0.01445  -0.01435   3.13450
   D42        0.03097  -0.00181   0.00000  -0.06986  -0.07065  -0.03968
   D43       -3.10162  -0.00195   0.00000  -0.07116  -0.07166   3.10990
   D44        3.12613   0.00041   0.00000   0.01089   0.01069   3.13681
   D45       -0.00647   0.00026   0.00000   0.00960   0.00967   0.00321
   D46       -0.01495   0.00090   0.00000   0.03228   0.03208   0.01713
   D47        3.11830   0.00104   0.00000   0.03351   0.03304  -3.13184
   D48       -0.00774   0.00043   0.00000   0.02007   0.02071   0.01297
   D49       -3.12853  -0.00107   0.00000  -0.03189  -0.03192   3.12273
         Item               Value     Threshold  Converged?
 Maximum Force            0.011107     0.000450     NO 
 RMS     Force            0.003149     0.000300     NO 
 Maximum Displacement     0.475893     0.001800     NO 
 RMS     Displacement     0.087427     0.001200     NO 
 Predicted change in Energy=-2.968487D-03
 GradGradGradGradGradGradGradGradGradGradGradGradGradGradGradGradGradGrad

                          Input orientation:                          
 ---------------------------------------------------------------------
 Center     Atomic      Atomic             Coordinates (Angstroms)
 Number     Number       Type             X           Y           Z
 ---------------------------------------------------------------------
      1          6           0        0.884139   -0.085438   -0.018595
      2          6           0        2.417039   -0.028069    0.053767
      3          6           0        2.932517    0.638664    1.338590
      4          6           0        4.463489    0.704720    1.417308
      5          7           0        4.963187    1.325350    2.642825
      6          6           0        4.909083    2.658259    2.974091
      7          6           0        5.445925    2.760206    4.235904
      8          7           0        5.783039    1.520427    4.711588
      9          6           0        5.471486    0.690073    3.736908
     10          1           0        0.538851   -0.563622   -0.940696
     11          1           0        0.451375    0.919983    0.015671
     12          1           0        0.471358   -0.651103    0.823319
     13          1           0        2.803784    0.517251   -0.816568
     14          1           0        2.823728   -1.045024   -0.015640
     15          1           0        2.561655    0.094575    2.215581
     16          1           0        2.527433    1.654761    1.413438
     17          1           0        4.861311    1.251808    0.554963
     18          1           0        4.880542   -0.305601    1.374156
     19          1           0        4.529333    3.396633    2.288001
     20          1           0        5.599582    3.652763    4.823901
     21          1           0        5.616242   -0.379775    3.752248
 ---------------------------------------------------------------------
                    Distance matrix (angstroms):
                    1          2          3          4          5
     1  C    0.000000
     2  C    1.535679   0.000000
     3  C    2.561665   1.536561   0.000000
     4  C    3.936739   2.565966   1.534417   0.000000
     5  N    5.070711   3.875285   2.509221   1.461770   0.000000
     6  C    5.717012   4.685609   3.265034   2.537409   1.374522
     7  C    6.856263   5.868466   4.383217   3.624181   2.197669
     8  N    6.996617   5.951730   4.503343   3.641273   2.233829
     9  C    5.979045   4.838482   3.492984   2.529193   1.363438
    10  H    1.094602   2.191658   3.517140   4.750964   5.998716
    11  H    1.095139   2.182679   2.825831   4.255347   5.236669
    12  H    1.095073   2.183130   2.826005   4.257720   5.233879
    13  H    2.164493   1.097465   2.162411   2.789260   4.157337
    14  H    2.163982   1.097456   2.163465   2.793522   4.154925
    15  H    2.799644   2.170113   1.096669   2.150927   2.732161
    16  H    2.789162   2.166289   1.096425   2.156596   2.748236
    17  H    4.234985   2.804238   2.170315   1.095996   2.091639
    18  H    4.237861   2.808789   2.165110   1.093866   2.067934
    19  H    5.543703   4.602410   3.325297   2.829989   2.145774
    20  H    7.723944   6.814050   5.324042   4.646132   3.252529
    21  H    6.057945   4.902791   3.750379   2.820800   2.136528
                    6          7          8          9         10
     6  C    0.000000
     7  C    1.375050   0.000000
     8  N    2.253299   1.370027   0.000000
     9  C    2.184478   2.129578   1.317783   0.000000
    10  H    6.693655   7.869206   7.987058   6.912498   0.000000
    11  H    5.625390   6.792813   7.130134   6.253158   1.767308
    12  H    5.938947   6.930301   6.931675   5.940457   1.767473
    13  H    4.835835   6.126927   6.359468   5.280213   2.512691
    14  H    5.196298   6.279436   6.138872   4.909461   2.511601
    15  H    3.557841   4.416595   4.317456   3.337091   3.806185
    16  H    3.019090   4.207840   4.636250   3.872543   3.797055
    17  H    2.798672   4.020741   4.266060   3.288257   4.921021
    18  H    3.368245   4.231835   3.909901   2.631194   4.927007
    19  H    1.077092   2.244884   3.311451   3.211301   6.483214
    20  H    2.210797   1.079819   2.143159   3.158400   8.753256
    21  H    3.214849   3.181574   2.135163   1.079706   6.916461
                   11         12         13         14         15
    11  H    0.000000
    12  H    1.766637   0.000000
    13  H    2.527576   3.081313   0.000000
    14  H    3.080631   2.528373   1.755730   0.000000
    15  H    3.158192   2.619879   3.071027   2.519070   0.000000
    16  H    2.608384   3.145264   2.518576   3.069021   1.754646
    17  H    4.455163   4.792157   2.579553   3.122943   3.063537
    18  H    4.792187   4.456870   3.128783   2.590129   2.499075
    19  H    5.284602   5.915794   4.572386   5.286225   3.844554
    20  H    7.555871   7.799140   7.032981   7.293540   5.356588
    21  H    6.505938   5.926388   5.439546   4.736843   3.452080
                   16         17         18         19         20
    16  H    0.000000
    17  H    2.519194   0.000000
    18  H    3.062953   1.759822   0.000000
    19  H    2.794027   2.777391   3.829491   0.000000
    20  H    5.006133   4.953126   5.299661   2.764385   0.000000
    21  H    4.376084   3.668053   2.490397   4.193644   4.172538
                   21
    21  H    0.000000
 Stoichiometry    C7H12N2
 Framework group  C1[X(C7H12N2)]
 Deg. of freedom    57
 Full point group                 C1      NOp   1
 Largest Abelian subgroup         C1      NOp   1
 Largest concise Abelian subgroup C1      NOp   1
                         Standard orientation:                         
 ---------------------------------------------------------------------
 Center     Atomic      Atomic             Coordinates (Angstroms)
 Number     Number       Type             X           Y           Z
 ---------------------------------------------------------------------
      1          6           0        3.930456    0.339675   -0.618453
      2          6           0        2.853925   -0.225375    0.319689
      3          6           0        1.424781    0.092987   -0.146370
      4          6           0        0.342313   -0.463771    0.787824
      5          7           0       -1.020979   -0.177320    0.344935
      6          6           0       -1.657068    1.040956    0.367448
      7          6           0       -2.894730    0.835952   -0.195515
      8          7           0       -3.019870   -0.463785   -0.610243
      9          6           0       -1.878799   -1.033803   -0.279201
     10          1           0        4.939801    0.101626   -0.268153
     11          1           0        3.853784    1.429582   -0.692975
     12          1           0        3.825084   -0.068295   -1.629216
     13          1           0        3.002421    0.176284    1.330158
     14          1           0        2.975310   -1.313076    0.400826
     15          1           0        1.260938   -0.314336   -1.151321
     16          1           0        1.298963    1.178902   -0.230680
     17          1           0        0.477542   -0.065452    1.799883
     18          1           0        0.436957   -1.551290    0.857751
     19          1           0       -1.193404    1.913272    0.796642
     20          1           0       -3.692316    1.551578   -0.328721
     21          1           0       -1.624396   -2.070783   -0.439564
 ---------------------------------------------------------------------
 Rotational constants (GHZ):           5.2949721           0.6703366           0.6482623
 Standard basis: 6-31G(2df,p) (6D, 7F)
 There are   339 symmetry adapted cartesian basis functions of A   symmetry.
 There are   312 symmetry adapted basis functions of A   symmetry.
   312 basis functions,   480 primitive gaussians,   339 cartesian basis functions
    34 alpha electrons       34 beta electrons
       nuclear repulsion energy       431.9683903505 Hartrees.
 NAtoms=   21 NActive=   21 NUniq=   21 SFac= 1.00D+00 NAtFMM=   60 NAOKFM=F Big=F
 Integral buffers will be    131072 words long.
 Raffenetti 2 integral format.
 Two-electron integral symmetry is turned on.
 One-electron integrals computed using PRISM.
 PrsmSu:  requested number of processors reduced to:  13 ShMem   1 Linda.
 NBasis=   312 RedAO= T EigKep=  2.23D-04  NBF=   312
 NBsUse=   312 1.00D-06 EigRej= -1.00D+00 NBFU=   312
 Initial guess from the checkpoint file:  "CCCCn1ccnc1.chk"
 B after Tr=    -0.000000    0.000000   -0.000000
         Rot=    0.998922    0.046363    0.001563   -0.001757 Ang=   5.32 deg.
 ExpMin= 1.61D-01 ExpMax= 4.17D+03 ExpMxC= 6.27D+02 IAcc=2 IRadAn=         4 AccDes= 0.00D+00
 Harris functional with IExCor=  402 and IRadAn=       4 diagonalized for initial guess.
 HarFok:  IExCor=  402 AccDes= 0.00D+00 IRadAn=         4 IDoV= 1 UseB2=F ITyADJ=14
 ICtDFT=  3500011 ScaDFX=  1.000000  1.000000  1.000000  1.000000
 FoFCou: FMM=F IPFlag=           0 FMFlag=      100000 FMFlg1=           0
         NFxFlg=           0 DoJE=T BraDBF=F KetDBF=T FulRan=T
         wScrn=  0.000000 ICntrl=       500 IOpCl=  0 I1Cent=   200000004 NGrid=           0
         NMat0=    1 NMatS0=      1 NMatT0=    0 NMatD0=    1 NMtDS0=    0 NMtDT0=    0
 Petite list used in FoFCou.
 Requested convergence on RMS density matrix=1.00D-08 within 128 cycles.
 Requested convergence on MAX density matrix=1.00D-06.
 Requested convergence on             energy=1.00D-06.
 No special actions if energy rises.
 Integral accuracy reduced to 1.0D-05 until final iterations.
 Initial convergence to 1.0D-05 achieved.  Increase integral accuracy.
 SCF Done:  E(RB3LYP) =  -383.499250735     A.U. after   12 cycles
            NFock= 12  Conv=0.40D-08     -V/T= 2.0083
 PrsmSu:  requested number of processors reduced to:  13 ShMem   1 Linda.
 Calling FoFJK, ICntrl=      2127 FMM=F ISym2X=0 I1Cent= 0 IOpClX= 0 NMat=1 NMatS=1 NMatT=0.
 ***** Axes restored to original set *****
 -------------------------------------------------------------------
 Center     Atomic                   Forces (Hartrees/Bohr)
 Number     Number              X              Y              Z
 -------------------------------------------------------------------
      1        6           0.001722660    0.000628787    0.000996577
      2        6          -0.000008299    0.000504601    0.000870577
      3        6          -0.001679081    0.000137294    0.000884608
      4        6           0.000350877   -0.000329214    0.001168742
      5        7          -0.006250047   -0.001999650   -0.000040263
      6        6           0.004382163    0.006938997    0.000589760
      7        6          -0.005109760    0.000789300   -0.003763963
      8        7           0.000273420   -0.004548254   -0.002986863
      9        6           0.004550654   -0.002118463    0.002592819
     10        1           0.001115834    0.000048359    0.000090503
     11        1          -0.000117553    0.000179106    0.000083239
     12        1          -0.000053694   -0.000051759    0.000195791
     13        1           0.000197573   -0.000123901   -0.000439052
     14        1           0.000306989   -0.000216774   -0.000232207
     15        1          -0.000331736   -0.000058070    0.000245104
     16        1          -0.000281703    0.000410472    0.000066682
     17        1           0.000626951    0.000483789    0.000727782
     18        1           0.000826117   -0.000293341    0.000050371
     19        1           0.000249422    0.000395599   -0.000809120
     20        1          -0.000617569   -0.000017951   -0.000144490
     21        1          -0.000153218   -0.000758926   -0.000146599
 -------------------------------------------------------------------
 Cartesian Forces:  Max     0.006938997 RMS     0.001910281

 GradGradGradGradGradGradGradGradGradGradGradGradGradGradGradGradGradGrad
 Berny optimization.
 Using GEDIIS/GDIIS optimizer.
 FormGI is forming the generalized inverse of G from B-inverse, IUseBI=4.
 Internal  Forces:  Max     0.005422064 RMS     0.001389403
 Search for a local minimum.
 Step number   2 out of a maximum of  117
 All quantities printed in internal units (Hartrees-Bohrs-Radians)
 Mixed Optimization -- RFO/linear search
 Update second derivatives using D2CorX and points    1    2
 DE= -1.77D-03 DEPred=-2.97D-03 R= 5.98D-01
 TightC=F SS=  1.41D+00  RLast= 2.54D-01 DXNew= 5.0454D-01 7.6165D-01
 Trust test= 5.98D-01 RLast= 2.54D-01 DXMaxT set to 5.05D-01
 ITU=  1  0
 Use linear search instead of GDIIS.
     Eigenvalues ---    0.00435   0.00468   0.00512   0.01047   0.01653
     Eigenvalues ---    0.02224   0.02333   0.02339   0.02426   0.02729
     Eigenvalues ---    0.03530   0.03589   0.04189   0.04868   0.04914
     Eigenvalues ---    0.05488   0.05525   0.05625   0.08451   0.08491
     Eigenvalues ---    0.09781   0.12285   0.12315   0.12990   0.15803
     Eigenvalues ---    0.15987   0.15998   0.16000   0.16000   0.16105
     Eigenvalues ---    0.21488   0.21930   0.22216   0.22831   0.24695
     Eigenvalues ---    0.25558   0.29877   0.30263   0.31046   0.33926
     Eigenvalues ---    0.33943   0.34103   0.34137   0.34144   0.34157
     Eigenvalues ---    0.34235   0.34255   0.34438   0.35792   0.35802
     Eigenvalues ---    0.35960   0.39940   0.44140   0.46718   0.51245
     Eigenvalues ---    0.51705   0.61511
 RFO step:  Lambda=-4.04490225D-04 EMin= 4.35472726D-03
 Quartic linear search produced a step of -0.26473.
 Iteration  1 RMS(Cart)=  0.01518682 RMS(Int)=  0.00021299
 Iteration  2 RMS(Cart)=  0.00027199 RMS(Int)=  0.00009996
 Iteration  3 RMS(Cart)=  0.00000004 RMS(Int)=  0.00009996
 Variable       Old X    -DE/DX   Delta X   Delta X   Delta X     New X
                                 (Linear)    (Quad)   (Total)
    R1        2.90201  -0.00276  -0.00823   0.00413  -0.00410   2.89791
    R2        2.06850  -0.00045  -0.00062  -0.00015  -0.00077   2.06773
    R3        2.06951   0.00021  -0.00003   0.00050   0.00047   2.06998
    R4        2.06939   0.00020  -0.00009   0.00054   0.00045   2.06984
    R5        2.90368  -0.00279  -0.00703   0.00241  -0.00462   2.89906
    R6        2.07391   0.00036  -0.00069   0.00168   0.00098   2.07489
    R7        2.07389   0.00033  -0.00085   0.00182   0.00097   2.07486
    R8        2.89963  -0.00107  -0.00471   0.00354  -0.00117   2.89845
    R9        2.07240   0.00034   0.00057  -0.00002   0.00055   2.07296
   R10        2.07194   0.00049   0.00068   0.00017   0.00085   2.07279
   R11        2.76234  -0.00542  -0.00653  -0.00183  -0.00835   2.75399
   R12        2.07113  -0.00010  -0.00006  -0.00014  -0.00020   2.07093
   R13        2.06711   0.00058   0.00109  -0.00017   0.00092   2.06803
   R14        2.59747   0.00326  -0.00396   0.01006   0.00602   2.60349
   R15        2.57652   0.00125   0.00008   0.00172   0.00179   2.57832
   R16        2.59847  -0.00420   0.00004  -0.00614  -0.00615   2.59232
   R17        2.03541   0.00070   0.00166  -0.00075   0.00091   2.03632
   R18        2.58898   0.00447   0.00065   0.00545   0.00614   2.59512
   R19        2.04056  -0.00018   0.00085  -0.00149  -0.00064   2.03992
   R20        2.49025  -0.00385  -0.00129  -0.00295  -0.00417   2.48608
   R21        2.04035   0.00073   0.00105   0.00013   0.00117   2.04152
    A1        1.95076  -0.00152  -0.00628   0.00060  -0.00565   1.94511
    A2        1.93765   0.00032  -0.00098   0.00313   0.00217   1.93982
    A3        1.93835   0.00021  -0.00121   0.00283   0.00162   1.93997
    A4        1.87840   0.00055   0.00297  -0.00189   0.00110   1.87949
    A5        1.87873   0.00058   0.00316  -0.00226   0.00093   1.87966
    A6        1.87677  -0.00008   0.00281  -0.00283  -0.00003   1.87674
    A7        1.97195  -0.00152  -0.01188   0.01050  -0.00133   1.97062
    A8        1.91023   0.00042  -0.00006   0.00130   0.00126   1.91149
    A9        1.90954   0.00054   0.00082   0.00056   0.00138   1.91092
   A10        1.90635   0.00060   0.00315  -0.00157   0.00169   1.90803
   A11        1.90779   0.00043   0.00316  -0.00294   0.00029   1.90808
   A12        1.85428  -0.00040   0.00560  -0.00908  -0.00342   1.85085
   A13        1.97828  -0.00337  -0.00759  -0.00227  -0.00986   1.96842
   A14        1.91766   0.00092   0.00007   0.00231   0.00233   1.91999
   A15        1.91268   0.00097  -0.00144   0.00410   0.00263   1.91531
   A16        1.89415   0.00117   0.00504  -0.00244   0.00263   1.89678
   A17        1.90205   0.00107   0.00394  -0.00203   0.00198   1.90403
   A18        1.85485  -0.00058   0.00048   0.00040   0.00093   1.85578
   A19        1.98490  -0.00194  -0.01506   0.01232  -0.00268   1.98221
   A20        1.92121   0.00119   0.00634  -0.00270   0.00401   1.92522
   A21        1.91625   0.00097   0.00552  -0.00077   0.00478   1.92103
   A22        1.90036  -0.00022  -0.00648   0.00234  -0.00412   1.89624
   A23        1.87013   0.00040   0.00511  -0.00655  -0.00156   1.86857
   A24        1.86671  -0.00035   0.00512  -0.00576  -0.00052   1.86619
   A25        2.21469  -0.00084  -0.00558   0.00527  -0.00038   2.21432
   A26        2.21726  -0.00221  -0.00391  -0.00098  -0.00496   2.21230
   A27        1.84742   0.00311   0.00964  -0.00141   0.00776   1.85519
   A28        1.85218  -0.00287  -0.00649   0.00020  -0.00655   1.84563
   A29        2.12367   0.00124   0.00553  -0.00394   0.00179   2.12546
   A30        2.30683   0.00167   0.00086   0.00420   0.00526   2.31209
   A31        1.92580   0.00121   0.00213   0.00158   0.00335   1.92915
   A32        2.23512  -0.00094  -0.00149  -0.00167  -0.00323   2.23189
   A33        2.12224  -0.00026  -0.00064   0.00033  -0.00038   2.12186
   A34        1.82888   0.00146   0.00258   0.00059   0.00305   1.83192
   A35        1.96933  -0.00280  -0.00772   0.00117  -0.00665   1.96267
   A36        2.12124   0.00116   0.00795  -0.00697   0.00108   2.12232
   A37        2.19217   0.00167  -0.00016   0.00604   0.00598   2.19816
    D1       -3.14159   0.00006  -0.00026   0.00096   0.00070  -3.14089
    D2        1.01327   0.00002   0.00362  -0.00512  -0.00147   1.01179
    D3       -1.01191  -0.00004  -0.00357   0.00474   0.00115  -1.01076
    D4        1.04405   0.00016   0.00083   0.00081   0.00164   1.04569
    D5       -1.08428   0.00013   0.00471  -0.00527  -0.00053  -1.08481
    D6       -3.10945   0.00006  -0.00248   0.00459   0.00210  -3.10735
    D7       -1.04314  -0.00009  -0.00126   0.00043  -0.00084  -1.04398
    D8        3.11172  -0.00012   0.00262  -0.00564  -0.00301   3.10871
    D9        1.08655  -0.00019  -0.00457   0.00421  -0.00038   1.08616
   D10       -3.13815   0.00004   0.00162  -0.00254  -0.00092  -3.13907
   D11        1.02267   0.00018   0.00030   0.00048   0.00079   1.02346
   D12       -1.00923  -0.00020   0.00051  -0.00372  -0.00323  -1.01246
   D13       -1.00764  -0.00002  -0.00414   0.00512   0.00101  -1.00663
   D14       -3.13001   0.00012  -0.00546   0.00813   0.00272  -3.12729
   D15        1.12128  -0.00027  -0.00524   0.00394  -0.00130   1.11998
   D16        1.01436   0.00007   0.00630  -0.00827  -0.00198   1.01238
   D17       -1.10800   0.00021   0.00499  -0.00525  -0.00028  -1.10828
   D18       -3.13990  -0.00017   0.00520  -0.00944  -0.00429   3.13899
   D19       -3.13131  -0.00023  -0.00730   0.00756   0.00028  -3.13103
   D20        1.01417   0.00053   0.00688  -0.00223   0.00456   1.01873
   D21       -1.03633  -0.00033  -0.00705   0.00687  -0.00010  -1.03643
   D22       -0.99583  -0.00047  -0.00873   0.00724  -0.00144  -0.99727
   D23       -3.13353   0.00030   0.00544  -0.00255   0.00283  -3.13070
   D24        1.09916  -0.00056  -0.00848   0.00655  -0.00183   1.09733
   D25        1.01704   0.00004  -0.00315   0.00532   0.00215   1.01919
   D26       -1.12066   0.00081   0.01103  -0.00447   0.00643  -1.11423
   D27        3.11202  -0.00005  -0.00290   0.00463   0.00177   3.11379
   D28       -1.25598  -0.00053   0.00448  -0.03046  -0.02578  -1.28176
   D29        1.77852   0.00058   0.00710   0.00995   0.01716   1.79568
   D30        0.89316  -0.00050  -0.00176  -0.02364  -0.02553   0.86763
   D31       -2.35552   0.00061   0.00086   0.01677   0.01742  -2.33811
   D32        2.90635  -0.00081   0.00356  -0.03265  -0.02902   2.87733
   D33       -0.34234   0.00030   0.00619   0.00776   0.01393  -0.32841
   D34        3.09795  -0.00128  -0.01940  -0.00705  -0.02629   3.07166
   D35       -0.07403  -0.00004  -0.00054   0.00670   0.00613  -0.06790
   D36        0.04517  -0.00197  -0.02109  -0.04049  -0.06157  -0.01640
   D37       -3.12682  -0.00073  -0.00223  -0.02674  -0.02915   3.12722
   D38       -3.09008   0.00064   0.01560  -0.00592   0.00961  -3.08046
   D39        0.08188  -0.00020   0.00220  -0.01402  -0.01178   0.07010
   D40       -0.03747   0.00143   0.01720   0.02800   0.04514   0.00768
   D41        3.13450   0.00059   0.00380   0.01990   0.02375  -3.12494
   D42       -0.03968   0.00202   0.01870   0.04088   0.05962   0.01994
   D43        3.10990   0.00104   0.01897   0.00706   0.02608   3.13598
   D44        3.13681   0.00062  -0.00283   0.02531   0.02238  -3.12399
   D45        0.00321  -0.00036  -0.00256  -0.00851  -0.01115  -0.00795
   D46        0.01713  -0.00106  -0.00849  -0.02382  -0.03240  -0.01527
   D47       -3.13184  -0.00015  -0.00875   0.00744  -0.00134  -3.13319
   D48        0.01297  -0.00024  -0.00548  -0.00287  -0.00852   0.00446
   D49        3.12273   0.00063   0.00845   0.00535   0.01388   3.13661
         Item               Value     Threshold  Converged?
 Maximum Force            0.005422     0.000450     NO 
 RMS     Force            0.001389     0.000300     NO 
 Maximum Displacement     0.073656     0.001800     NO 
 RMS     Displacement     0.015218     0.001200     NO 
 Predicted change in Energy=-4.467176D-04
 GradGradGradGradGradGradGradGradGradGradGradGradGradGradGradGradGradGrad

                          Input orientation:                          
 ---------------------------------------------------------------------
 Center     Atomic      Atomic             Coordinates (Angstroms)
 Number     Number       Type             X           Y           Z
 ---------------------------------------------------------------------
      1          6           0        0.888031   -0.085434   -0.015308
      2          6           0        2.418370   -0.024948    0.062526
      3          6           0        2.925019    0.643073    1.347270
      4          6           0        4.455805    0.705209    1.420497
      5          7           0        4.956234    1.324367    2.641188
      6          6           0        4.929355    2.664567    2.959347
      7          6           0        5.424050    2.754199    4.235697
      8          7           0        5.778267    1.512511    4.703278
      9          6           0        5.481375    0.683968    3.725470
     10          1           0        0.553126   -0.566312   -0.939354
     11          1           0        0.450894    0.918499    0.014754
     12          1           0        0.471640   -0.651852    0.824632
     13          1           0        2.808802    0.518632   -0.807907
     14          1           0        2.829007   -1.040998   -0.004971
     15          1           0        2.553123    0.099693    2.224627
     16          1           0        2.520748    1.660115    1.420233
     17          1           0        4.855781    1.253548    0.560081
     18          1           0        4.875080   -0.304727    1.377546
     19          1           0        4.568310    3.405509    2.265216
     20          1           0        5.563572    3.643476    4.831516
     21          1           0        5.628511   -0.386255    3.734422
 ---------------------------------------------------------------------
                    Distance matrix (angstroms):
                    1          2          3          4          5
     1  C    0.000000
     2  C    1.533510   0.000000
     3  C    2.556689   1.534116   0.000000
     4  C    3.926278   2.555065   1.533796   0.000000
     5  N    5.059129   3.861463   2.502842   1.457351   0.000000
     6  C    5.722183   4.682959   3.271482   2.536019   1.377709
     7  C    6.834474   5.845778   4.364060   3.614030   2.192198
     8  N    6.980894   5.932054   4.489959   3.630054   2.227858
     9  C    5.973626   4.827185   3.491771   2.522924   1.364387
    10  H    1.094197   2.185401   3.509578   4.734614   5.981832
    11  H    1.095387   2.182506   2.823606   4.249814   5.230771
    12  H    1.095312   2.182561   2.822951   4.250911   5.226557
    13  H    2.163902   1.097985   2.161893   2.777267   4.142092
    14  H    2.163469   1.097970   2.161914   2.779869   4.137899
    15  H    2.797161   2.169879   1.096961   2.152550   2.729156
    16  H    2.788097   2.166399   1.096875   2.157845   2.745005
    17  H    4.226935   2.796977   2.172599   1.095889   2.084733
    18  H    4.229030   2.800532   2.168405   1.094352   2.063329
    19  H    5.561648   4.608917   3.342766   2.831577   2.150114
    20  H    7.697867   6.789175   5.301354   4.636336   3.247255
    21  H    6.051703   4.890640   3.750584   2.814388   2.138538
                    6          7          8          9         10
     6  C    0.000000
     7  C    1.371796   0.000000
     8  N    2.255920   1.373278   0.000000
     9  C    2.194184   2.132950   1.315575   0.000000
    10  H    6.692521   7.844288   7.966360   6.900103   0.000000
    11  H    5.637020   6.776314   7.121517   6.255410   1.767890
    12  H    5.952047   6.911072   6.920163   5.941104   1.767938
    13  H    4.826384   6.105344   6.338665   5.265120   2.506483
    14  H    5.189399   6.254682   6.114422   4.891498   2.505601
    15  H    3.572796   4.396934   4.305963   3.341940   3.801885
    16  H    3.029717   4.189633   4.627267   3.877150   3.794228
    17  H    2.784397   4.010616   4.252543   3.276504   4.906428
    18  H    3.364781   4.222253   3.895971   2.618751   4.910778
    19  H    1.077575   2.244836   3.315355   3.220686   6.493561
    20  H    2.205791   1.079482   2.145589   3.160504   8.725241
    21  H    3.224449   3.186775   2.136918   1.080327   6.901894
                   11         12         13         14         15
    11  H    0.000000
    12  H    1.767012   0.000000
    13  H    2.529110   3.081809   0.000000
    14  H    3.081467   2.529201   1.754297   0.000000
    15  H    3.158060   2.618660   3.071994   2.519603   0.000000
    16  H    2.609532   3.146232   2.520033   3.069568   1.755852
    17  H    4.451142   4.787612   2.569360   3.113204   3.066648
    18  H    4.788205   4.451573   3.118274   2.576794   2.504514
    19  H    5.310642   5.943077   4.568809   5.286809   3.871827
    20  H    7.534333   7.773850   7.011170   7.267308   5.330767
    21  H    6.507382   5.927119   5.422391   4.716882   3.460294
                   16         17         18         19         20
    16  H    0.000000
    17  H    2.521416   0.000000
    18  H    3.066808   1.759785   0.000000
    19  H    2.820090   2.760627   3.827260   0.000000
    20  H    4.982906   4.945492   5.290769   2.762802   0.000000
    21  H    4.381928   3.655476   2.475715   4.202388   4.176909
                   21
    21  H    0.000000
 Stoichiometry    C7H12N2
 Framework group  C1[X(C7H12N2)]
 Deg. of freedom    57
 Full point group                 C1      NOp   1
 Largest Abelian subgroup         C1      NOp   1
 Largest concise Abelian subgroup C1      NOp   1
                         Standard orientation:                         
 ---------------------------------------------------------------------
 Center     Atomic      Atomic             Coordinates (Angstroms)
 Number     Number       Type             X           Y           Z
 ---------------------------------------------------------------------
[...]
 56,-0.00005555,0.00002268,-0.00004277,0.00007251,0.03635941,0.10120544
 ,-0.06482566,-0.09809082,-0.23986620,0.00093651,0.00073211,0.00001384,
 -0.00061081,0.00033514,0.00098654,0.00039314,-0.00018618,0.00019173,-0
 .00008192,-0.00004365,-0.00014668,-0.00001102,0.00011393,0.00001943,-0
 .00002253,0.00002154,-0.00003772,-0.00003645,-0.00006295,-0.00009643,0
 .00005687,-0.00008244,0.00014741,0.07118901,0.10798623,0.25844576,-0.0
 8692565,0.09340305,0.00379294,-0.01506151,0.03211881,0.00088314,0.0016
 1184,0.00146601,0.00114741,0.00002113,-0.00012419,0.00019771,-0.000005
 65,-0.00015837,-0.00004514,-0.00000816,0.00006348,-0.00004473,-0.00000
 366,-0.00001922,-0.00003156,-0.00000926,-0.00004698,-0.00002294,0.0000
 3197,-0.00000582,0.00006903,0.00331606,-0.00890777,0.00051158,0.097692
 93,0.09446722,-0.26661484,-0.00886388,-0.00094738,0.00224129,-0.000193
 52,-0.00026838,0.00064854,0.00009826,-0.00016152,0.00038005,0.00007935
 ,0.00013064,-0.00000218,0.00009014,0.00000807,-0.00005737,-0.00000701,
 0.00000738,-0.00000727,0.00002711,0.00000860,0.00004626,0.00005411,-0.
 00001830,0.00002980,-0.00006990,0.00482626,-0.01243784,0.00042301,-0.1
 0439603,0.28873578,0.00389542,-0.00891190,-0.04807369,-0.00031510,0.00
 103953,-0.00084735,-0.00008496,0.00112665,0.00028831,-0.00010673,-0.00
 007495,-0.00003613,0.00001993,0.00001022,0.00002296,0.00001664,-0.0000
 3525,-0.00000739,0.00000972,-0.00000549,-0.00000365,0.00000954,0.00000
 564,0.00002822,-0.00001364,0.00002441,-0.00003130,0.01169477,-0.025990
 68,-0.00042722,-0.00421482,0.01010993,0.04677860,-0.07984495,-0.049400
 73,0.07061980,-0.01379144,-0.01913363,0.02655541,0.00164371,0.00010920
 ,0.00181539,0.00000446,0.00021789,0.00005685,-0.00001251,0.00005814,-0
 .00016464,0.00000176,0.00004691,0.00001289,-0.00000442,0.00000686,-0.0
 0001331,-0.00001889,-0.00000340,-0.00005512,0.00003678,-0.00006824,0.0
 0002395,0.00290498,0.00587332,-0.00685301,0.00438576,0.00632088,-0.010
 65104,0.08981336,-0.04997278,-0.12223550,0.10639761,-0.00025538,-0.000
 88650,0.00030769,0.00017606,-0.00015766,0.00057792,0.00000025,0.000112
 51,-0.00027133,-0.00005367,-0.00001931,-0.00002998,0.00000465,-0.00000
 342,0.00000439,0.00000126,-0.00000020,-0.00000576,0.00000836,0.0000001
 5,-0.00002543,-0.00000406,0.00000036,0.00000511,0.00605946,0.00801802,
 -0.01145846,-0.01103747,-0.01548352,0.02345736,0.05559107,0.12865841,0
 .07154995,0.10647331,-0.19980683,-0.00056525,-0.00163742,0.00106655,-0
 .00025663,-0.00052737,0.00106646,-0.00017728,-0.00012875,0.00023737,0.
 00012558,0.00005581,0.00005899,0.00000814,-0.00006295,-0.00001248,0.00
 000861,-0.00000748,0.00002187,0.00001345,0.00002450,0.00006505,-0.0000
 2709,0.00005189,-0.00008155,0.00977138,0.01565648,-0.02045615,-0.00133
 770,-0.00159975,0.00126974,-0.07912092,-0.11775279,0.21498073,-0.01415
 880,-0.01873065,0.02686830,-0.07549812,-0.04303032,0.06630495,0.002738
 88,0.00580925,-0.00862582,0.00094685,0.00076125,-0.00095094,0.00002349
 ,-0.00002746,0.00025290,-0.00001077,-0.00006398,0.00001341,0.00002273,
 -0.00002346,0.00002996,0.00000511,0.00004744,0.00005296,-0.00003005,0.
 00003473,-0.00001492,0.00141750,-0.00008318,-0.00043769,0.00155254,0.0
 0058790,0.00006371,-0.00689825,-0.00003533,-0.00063927,0.08608568,-0.0
 0045894,-0.00092444,0.00080396,-0.04344571,-0.11752563,0.10195498,0.00
 493575,0.00763492,-0.01278203,0.00034510,0.00035105,0.00006878,0.00015
 374,0.00002626,0.00001376,0.00000555,0.00004984,0.00001626,0.00001407,
 -0.00000749,-0.00002633,-0.00003118,-0.00001163,0.00002697,0.00007949,
 -0.00004958,0.00003384,-0.00021268,-0.00014541,-0.00003899,-0.00024378
 ,0.00071754,-0.00051961,-0.00024876,0.00133499,-0.00061178,0.05002497,
 0.12387988,-0.00087706,-0.00128838,0.00187421,0.06680639,0.10133400,-0
 .20035130,0.00861917,0.01509456,-0.02538522,0.00170111,0.00097048,0.00
 014049,-0.00021820,-0.00050923,0.00049256,-0.00003465,0.00008939,-0.00
 001287,-0.00000824,-0.00002780,-0.00002133,0.00003236,-0.00006191,0.00
 006403,0.00000935,0.00011028,0.00019202,0.00048244,-0.00008212,0.00069
 090,0.00034843,-0.00017589,0.00003313,-0.00085099,-0.00028839,0.001213
 47,-0.07185467,-0.11045481,0.22213296,-0.01541327,0.03209457,0.0013970
 6,-0.08193708,0.08606599,0.00638829,0.00309642,-0.01024124,-0.00064113
 ,0.00099866,-0.00111837,0.00004043,0.00013877,0.00012094,0.00014521,-0
 .00006205,-0.00004852,-0.00001810,0.00000829,-0.00000507,0.00008532,-0
 .00000514,0.00006825,0.00002459,-0.00003083,0.00004859,-0.00006341,0.0
 0139628,-0.00025374,-0.00037098,-0.00686742,-0.00082649,-0.00025190,0.
 00155262,-0.00027330,0.00048912,0.00398801,-0.01024492,-0.00100837,0.0
 9327090,-0.00107278,0.00236380,0.00029270,0.08675765,-0.26154225,-0.01
 294470,0.00458354,-0.01479613,-0.00170015,0.00121671,-0.00021518,0.000
 53577,-0.00032396,0.00050523,-0.00016319,0.00000962,0.00000396,0.00018
 160,-0.00001078,0.00008531,0.00005363,-0.00001797,0.00005856,-0.000072
 35,-0.00000892,-0.00011494,0.00000293,0.00056054,0.00045789,0.00033541
 ,-0.00087768,0.00163751,-0.00001996,0.00045597,0.00061680,-0.00024043,
 0.00613575,-0.01626330,-0.00066335,-0.09512307,0.28549465,-0.00068081,
 0.00164269,-0.00015059,0.00632026,-0.01229738,-0.04993272,0.01005133,-
 0.02881044,-0.00336130,0.00134314,-0.00030935,0.00075514,0.00010156,0.
 00030919,-0.00001203,-0.00001449,0.00003357,0.00006196,-0.00002251,0.0
 0003976,0.00011003,0.00000692,0.00009280,-0.00006583,-0.00000818,-0.00
 005592,-0.00001294,0.00007750,0.00041173,0.00010187,-0.00054225,-0.000
 35945,0.00087633,0.00001059,-0.00059219,0.00012370,-0.00982243,0.02383
 073,0.00141191,-0.00441991,0.01783455,0.05335351,0.00117168,0.00086128
 ,-0.00054903,0.00282251,0.00600800,-0.00894729,-0.07387030,-0.04173865
 ,0.06422633,-0.01551969,-0.01913571,0.02799383,0.00289383,0.00079206,0
 .00090502,0.00014662,0.00009986,-0.00019707,-0.00011714,0.00017243,-0.
 00000850,-0.00012194,-0.00015475,-0.00037675,0.00020806,-0.00001375,-0
 .00026720,0.00006469,-0.00001168,0.00019046,-0.00002105,0.00002711,-0.
 00004465,0.00000029,-0.00031776,0.00024119,-0.00039360,-0.00116840,-0.
 00227106,0.00015597,-0.00004936,0.00065549,0.08390407,0.00070872,0.000
 38492,0.00019828,0.00453676,0.00751465,-0.01285728,-0.04230722,-0.1186
 5493,0.10503849,-0.00040384,-0.00100488,0.00100510,0.00053648,0.000020
 87,-0.00007666,-0.00005527,-0.00028490,-0.00000749,-0.00008097,0.00002
 741,0.00000869,0.00006516,-0.00002361,-0.00016481,-0.00023802,0.000102
 00,-0.00022153,0.00027149,0.00000985,-0.00001232,-0.00012555,-0.000053
 08,0.00007494,0.00006471,0.00008930,0.00032550,-0.00110781,-0.00010304
 ,-0.00328969,0.00051109,0.00100688,0.00055178,0.04799259,0.12468585,0.
 00139904,0.00071511,0.00101080,0.00847740,0.01457445,-0.02429678,0.066
 21901,0.10496144,-0.20453898,-0.00133368,-0.00091294,-0.00031292,0.000
 32137,-0.00022310,0.00175738,0.00006104,-0.00018200,-0.00011485,0.0000
 7110,-0.00009455,0.00012839,0.00004176,0.00009889,0.00018559,-0.000100
 31,0.00035723,-0.00007284,0.00003345,-0.00033428,0.00044926,-0.0001168
 6,-0.00003390,0.00001281,-0.00112483,-0.00041760,0.00038551,-0.0019980
 8,-0.00317864,-0.00401354,0.00035669,-0.00018687,0.00120240,-0.0712065
 9,-0.11338038,0.22578544,0.00121472,-0.00095294,0.00031212,0.00328535,
 -0.01057964,-0.00070370,-0.08165990,0.08551378,0.00653599,-0.01648396,
 0.03307162,0.00184297,0.00216444,0.00041672,0.00112503,0.00020256,0.00
 020477,-0.00028296,-0.00006894,-0.00023867,-0.00065250,0.00005236,-0.0
 0053307,0.00016415,0.00028358,0.00002682,0.00002934,0.00007409,0.00014
 333,0.00010905,0.00002064,0.00038560,-0.00009743,-0.00002439,-0.000052
 88,-0.00000062,0.00016069,0.00053337,0.00039376,-0.00036939,-0.0012142
 4,-0.00224881,0.00393240,-0.00997091,-0.00078682,0.09245737,0.00077640
 ,0.00035979,0.00071754,0.00488925,-0.01431459,-0.00154242,0.08717522,-
 0.26576938,-0.01315120,-0.00157253,0.00113961,-0.00025770,0.00044461,0
 .00067537,0.00070683,-0.00023695,-0.00024652,0.00014946,-0.00001931,-0
 .00002597,0.00038011,0.00009072,0.00042961,0.00005520,-0.00007173,0.00
 008467,-0.00050806,-0.00014735,0.00046624,0.00001279,-0.00097494,0.000
 30938,-0.00023161,-0.00002086,-0.00003637,-0.00001380,-0.00006442,0.00
 098329,-0.00021119,-0.00106369,0.00038454,-0.00289123,0.00628549,-0.01
 599293,-0.00110104,-0.09505280,0.28936302,0.00140139,0.00024509,0.0010
 3969,0.00982632,-0.02822801,-0.00348984,0.00733338,-0.01313996,-0.0487
 3834,-0.00080449,0.00056657,-0.00064131,0.00030392,0.00106656,0.000358
 06,0.00001826,-0.00038997,-0.00005271,0.00005287,-0.00001213,-0.000123
 71,-0.00002377,0.00000197,0.00006072,-0.00007843,-0.00003523,-0.000094
 67,0.00023608,0.00033396,-0.00000322,-0.00064413,0.00047366,0.00016410
 ,-0.00017427,0.00008589,-0.00000711,0.00060974,0.00052956,0.00122690,-
 0.00205673,-0.00287701,-0.00451919,-0.00965521,0.02379388,0.00147747,-
 0.00582849,0.01866365,0.05228618,-0.00007162,0.00020986,-0.00024192,0.
 00132843,0.00019342,0.00188862,-0.01444275,-0.01977268,0.02578168,-0.0
 8042058,-0.04894942,0.07248864,0.00357319,0.00709130,-0.01444322,0.000
 55709,0.00041554,0.00068232,-0.00015201,0.00049533,-0.00002525,-0.0010
 0367,-0.00011147,-0.00076644,0.00098416,-0.00160629,-0.00130381,-0.000
 01099,0.00003719,-0.00012113,-0.00001581,-0.00000222,0.00003749,0.0002
 9463,0.00014540,-0.00010193,0.00002718,0.00011701,-0.00126538,-0.00000
 353,0.00000454,-0.00016334,-0.00664766,-0.00013224,-0.00075897,0.00169
 574,0.00065304,-0.00000765,0.08975148,-0.00001059,0.00004103,-0.000330
 71,0.00001716,-0.00000797,0.00052658,0.00042276,0.00021884,0.00058452,
 -0.04721525,-0.12538922,0.10806924,0.00331221,0.00882933,-0.01767989,0
 .00037606,0.00144514,0.00000431,0.00013628,0.00090230,-0.00032235,-0.0
 0113486,-0.00058425,-0.00149341,0.00141830,-0.00158630,0.00029657,-0.0
 0007552,-0.00002796,-0.00000540,0.00003814,-0.00001204,0.00000728,0.00
 013253,0.00000674,-0.00000566,-0.00027554,0.00014641,-0.00047907,-0.00
 004142,-0.00004863,0.00009507,-0.00014506,0.00139289,-0.00051556,-0.00
 035448,0.00074353,-0.00061122,0.05456328,0.12836341,-0.00002546,-0.000
 12294,0.00029355,-0.00020425,-0.00015334,0.00092367,0.00095729,0.00047
 552,0.00056732,0.06896056,0.10106296,-0.19453614,0.00161404,0.01377607
 ,-0.03453997,-0.00013075,0.00241794,0.00254710,-0.00085266,0.00116784,
 -0.00164210,-0.00204100,-0.00201773,-0.00180508,0.00422215,-0.00442290
 ,0.00101276,0.00004002,0.00000562,0.00000609,0.00000771,0.00000987,-0.
 00001373,-0.00013285,-0.00000743,-0.00011688,0.00016708,0.00024538,0.0
 0034594,0.00002303,-0.00000741,-0.00000675,-0.00056352,-0.00039492,0.0
 0075439,0.00009276,-0.00010461,0.00016050,-0.07195753,-0.11111862,0.22
 362246,-0.00005256,-0.00031118,0.00005384,0.00134811,0.00139824,0.0012
 0800,-0.01550725,0.03154918,0.00004938,-0.08647721,0.09598906,0.004663
 70,0.00351569,-0.01471531,-0.00240782,0.00006781,0.00011782,-0.0023988
 6,0.00030319,-0.00082414,-0.00044281,-0.00005378,0.00000256,0.00046713
 ,0.00027952,-0.00046963,-0.00014867,0.00000606,-0.00011199,-0.00003465
 ,0.00030300,-0.00015345,0.00004841,-0.00001955,0.00002976,0.00001951,-
 0.00000682,-0.00013694,-0.00008047,0.00004440,-0.00108077,-0.00067440,
 0.00167648,-0.00029322,0.00041246,-0.00649768,-0.00092793,-0.00040410,
 0.00440863,-0.01058573,-0.00063451,0.09680973,-0.00004482,0.00038603,0
 .00014521,-0.00016831,0.00055031,0.00019090,-0.00014969,0.00176546,0.0
 0030553,0.09075839,-0.26660476,-0.00959531,0.00284699,-0.01866609,-0.0
 0445921,-0.00008829,0.00238108,-0.00235527,0.00001970,-0.00070856,0.00
 009863,-0.00048609,-0.00025598,-0.00078780,0.00062771,0.00081592,0.002
 87595,0.00007568,-0.00000861,0.00001913,-0.00015469,-0.00008278,-0.000
 05617,-0.00001181,-0.00001806,0.00000323,0.00004194,-0.00007210,-0.000
 02505,0.00029077,0.00030018,0.00039198,0.00034421,0.00074117,-0.000128
 14,-0.00079854,0.00135824,-0.00038393,0.00658693,-0.01462436,-0.000263
 18,-0.09955495,0.29186516,-0.00003816,-0.00007095,-0.00011287,-0.00022
 161,0.00088619,0.00049770,0.00095612,-0.00011280,0.00045572,0.00174945
 ,-0.00008638,-0.05110501,0.00868934,-0.03659252,-0.00721787,-0.0006736
 7,0.00245435,-0.00352913,-0.00043016,-0.00140920,-0.00095501,0.0002760
 2,-0.00023455,0.00014801,0.00052098,-0.00164582,0.00180731,-0.00004486
 ,0.00000979,-0.00001537,0.00003650,-0.00005906,-0.00004608,0.00003901,
 0.00000256,-0.00000664,-0.00002578,0.00008770,0.00000491,-0.00010077,-
 0.00032351,0.00012248,-0.00016331,-0.00063641,0.00017613,-0.00028141,-
 0.00048867,0.00073738,-0.00994481,0.02290390,0.00244119,0.00013795,0.0
 1489833,0.05710769,0.00000188,-0.00002099,0.00000195,-0.00009961,0.000
 12854,-0.00009605,0.00021874,-0.00036173,0.00015617,-0.00080576,0.0000
 3142,-0.00004392,-0.00284742,-0.00281940,0.00336325,-0.05783611,0.0709
 9385,-0.07810431,-0.00320357,0.00715162,0.00110156,0.00533569,0.001384
 29,-0.00432557,0.00196032,-0.00091845,-0.00183022,0.00000348,0.0000115
 3,0.00000978,-0.00001795,0.00000669,-0.00001452,-0.00000463,-0.0000028
 2,-0.00000257,0.00000626,-0.00001881,0.00002045,0.00002114,0.00005180,
 0.00006262,-0.00003054,0.00006293,0.00000738,-0.00037435,-0.00007149,-
 0.00016418,0.00003842,-0.00007512,0.00044521,-0.00010674,0.00004656,0.
 00011876,0.05728479,-0.00002416,-0.00000713,-0.00000688,-0.00016676,0.
 00010689,-0.00006885,0.00003541,-0.00036276,-0.00019220,0.00035349,0.0
 0095619,0.00163615,0.01029829,-0.01752385,0.02290333,0.06778385,-0.193
 81155,0.12747087,-0.00204786,0.00790746,-0.00269134,-0.00046545,0.0018
 7916,-0.00222381,-0.00088977,-0.00465664,-0.00393874,0.00000853,0.0000
 0903,0.00001098,-0.00001010,-0.00000137,-0.00001084,0.00000631,0.00000
 107,-0.00000607,0.00000570,-0.00001398,-0.00001283,0.00003627,0.000051
 17,0.00007296,0.00006308,0.00013360,0.00000595,-0.00042226,0.00007139,
 -0.00004977,0.00008931,0.00000337,-0.00066081,0.00003529,0.00020175,-0
 .00024271,-0.07540412,0.20559249,-0.00000626,0.00002023,0.00001518,0.0
 0011306,-0.00011556,0.00004511,-0.00027163,0.00017858,0.00000272,0.000
 26916,0.00046101,0.00052353,0.00641432,-0.01127726,0.00900858,-0.07888
 634,0.13643090,-0.18369045,-0.00096692,0.02007378,-0.00073952,-0.00479
 192,0.00220441,-0.00386537,-0.00178987,-0.00391540,-0.00297590,0.00001
 055,-0.00000283,-0.00000079,0.00000583,-0.00000622,0.00001097,0.000006
 04,0.00000751,-0.00000223,0.00000085,0.00000139,-0.00003207,-0.0000088
 4,-0.00002503,-0.00005063,0.00001416,0.00001301,0.00000013,0.00015300,
 -0.00019834,0.00013143,0.00011719,0.00022437,-0.00005202,0.00011963,0.
 00014077,-0.00000091,0.07933958,-0.14351042,0.18097333,0.00000709,0.00
 000140,0.00001202,0.00005036,-0.00002261,0.00002479,0.00003205,0.00022
 353,0.00020710,0.00173646,-0.00053489,-0.00044874,0.00383240,0.0005467
 2,-0.00398633,-0.00144332,-0.00929704,-0.00136697,-0.04013151,-0.03699
 259,-0.03732489,-0.00290247,0.00651325,0.00780060,0.00430040,0.0023811
 5,-0.00253556,0.00000094,0.00000015,0.,-0.00000438,0.00000258,-0.00000
 184,-0.00000381,-0.00000284,0.00000096,0.00000317,-0.00000191,0.000006
 80,0.00000727,0.00000800,-0.00000401,-0.00003912,-0.00001128,0.0000080
 6,-0.00003985,-0.00000691,-0.00000956,-0.00001880,-0.00014337,0.000018
 04,-0.00024063,-0.00020599,-0.00039865,-0.00138188,0.00005195,0.000562
 40,0.03501623,0.00000845,-0.00000799,-0.00000982,-0.00000625,0.0000027
 2,0.00002592,-0.00000372,-0.00000436,-0.00000895,0.00014445,0.00039863
 ,-0.00012996,0.00085145,0.00115319,0.00115292,0.00086890,0.00449970,0.
 00345200,-0.03595010,-0.24658061,-0.13540562,-0.00445961,-0.02167710,-
 0.01428966,0.00207758,-0.00465622,0.00272390,-0.00000913,-0.00000202,-
 0.00000447,-0.00000229,0.00000403,0.00000018,-0.00000015,-0.00000105,0
 .00000194,-0.00000014,0.00000060,-0.00000299,-0.00000008,0.00000016,0.
 00000017,0.00000710,-0.00000309,-0.00000104,-0.00000244,0.00000591,-0.
 00000687,-0.00005615,-0.00001983,-0.00006331,-0.00003420,0.00013388,0.
 00005828,-0.00032297,-0.00030286,-0.00049091,0.03716804,0.26752973,0.0
 0001457,-0.00001368,-0.00003806,-0.00009335,0.00002358,0.00003947,0.00
 012389,-0.00017873,-0.00015986,-0.00001749,-0.00094985,0.00106222,-0.0
 0423184,0.00014753,-0.00427543,0.00070961,-0.02149606,-0.00456846,-0.0
 3713699,-0.13716111,-0.14862200,0.00553186,0.01145321,0.01033026,-0.00
 252565,0.00341290,0.00034733,-0.00002167,-0.00000348,-0.00000685,-0.00
 000716,0.00000560,0.00000172,-0.00000188,-0.00000002,0.00000350,0.0000
 0359,0.00000109,-0.00000486,-0.00000247,0.00001106,0.00000640,-0.00001
 205,-0.00000246,0.00000355,0.00001071,0.00003299,0.00001307,0.00001050
 ,0.00007563,0.00002443,-0.00011452,-0.00021853,-0.00030774,0.00048826,
 0.00043093,-0.00034310,0.03746562,0.14411245,0.14559823,-0.00000116,0.
 00000122,-0.00002151,-0.00008565,-0.00004925,0.00002456,0.00000443,0.0
 0028902,-0.00024410,-0.00106372,0.00025172,0.00109746,-0.00274964,0.01
 235808,0.00154539,0.00110749,-0.00006749,-0.00310938,0.00549165,-0.000
 75450,-0.00322610,-0.00305466,-0.00930177,0.00381303,-0.03278921,0.034
 22576,-0.01259660,0.00000023,-0.00000075,0.00000946,0.00000464,-0.0000
 0516,0.00000101,-0.00001550,-0.00000798,0.00000136,0.00001830,0.000002
 99,0.00004883,0.00000997,-0.00000462,-0.00002828,-0.00021555,-0.000023
 60,0.00001741,-0.00002549,-0.00008382,0.00006905,0.00012847,-0.0003598
 0,-0.00000535,0.00019959,0.00002430,-0.00020094,0.00183784,0.00066300,
 -0.00040397,0.00121941,-0.00027877,-0.00019354,0.02997857,0.00000687,0
 .00000650,0.00001077,0.00009386,0.00003565,-0.00000529,0.00002940,0.00
 015289,0.00027964,-0.00033514,-0.00028573,-0.00062450,-0.00014272,-0.0
 1072375,-0.00264497,0.00089375,0.00140104,0.00185731,-0.00068349,-0.00
 015481,-0.00325716,0.00062449,-0.01498156,-0.00058274,0.03586021,-0.34
 073046,0.00936538,0.00000134,-0.00000092,-0.00000463,-0.00000460,0.000
 00212,0.00000033,0.00000380,0.00000322,0.00000157,-0.00000661,-0.00000
 819,-0.00002601,0.00000346,0.00001377,0.00000900,0.00008189,0.00001107
 ,-0.00002303,-0.00012313,0.00001117,-0.00002670,0.00002831,0.00020757,
 0.00017601,0.00007751,0.00054213,0.00060147,0.00014669,-0.00023342,-0.
 00021400,0.00032267,-0.00047341,0.00031697,-0.03687857,0.36520513,-0.0
 0001087,-0.00001089,0.00001020,-0.00002141,0.00001731,-0.00003082,-0.0
 0009694,-0.00024051,-0.00007405,0.00086887,0.00197417,0.00192236,-0.00
 233339,0.02867476,-0.00030671,-0.00285308,-0.00024419,-0.00490373,-0.0
 0322489,-0.00358049,-0.00178394,0.00608336,-0.02482781,0.00338111,-0.0
 1166687,0.00450540,-0.05225195,0.00000614,0.00000380,0.00000383,0.0000
 0701,-0.00000245,-0.00000036,0.00000293,0.00000337,-0.00000307,0.00000
 214,-0.00000221,-0.00000223,-0.00000712,-0.00002370,-0.00001375,0.0000
 3576,0.00003430,0.00002068,0.00011387,-0.00001870,0.00001459,0.0000949
 5,-0.00022559,0.00001326,0.00016080,-0.00079708,-0.00020188,-0.0005336
 6,0.00108410,0.00104203,-0.00002982,-0.00111415,0.00089620,0.01340220,
 -0.00520944,0.05226823\\-0.00001020,0.00000036,-0.00000039,0.00000547,
 0.00000003,-0.00000059,0.00000623,0.00000564,0.00001065,-0.00001966,-0
 .00001179,-0.00003662,0.00000588,0.00001854,0.00004748,0.00000673,0.00
 000547,-0.00003187,0.00000385,-0.00004157,0.00001418,-0.00000031,0.000
 02911,0.00001128,-0.00000468,-0.00001567,-0.00001915,0.00000090,0.0000
 0016,-0.00000021,0.00000135,0.00000011,-0.00000042,0.00000102,0.000000
 75,-0.00000022,0.00000078,-0.00000142,-0.00000056,0.00000045,-0.000000
 34,-0.00000119,-0.00000009,-0.00000091,-0.00000161,0.00000129,-0.00000
 091,-0.00000144,0.00000417,-0.00000033,0.00000559,0.00000402,0.0000025
 4,0.00000548,-0.00000743,0.00000453,0.00000627,0.00000082,0.00000280,-
 0.00000851,-0.00000060,0.00000290,0.00000183\\\@


 WERE I TO AWAIT PERFECTION, MY BOOK WOULD NEVER BE FINISHED.
                                    -- HISTORY OF CHINESE WRITING

                                       TAI T'UNG, 13TH CENTURY
 Job cpu time:       0 days  1 hours 49 minutes 17.0 seconds.
 Elapsed time:       0 days  0 hours 27 minutes 21.0 seconds.
 File lengths (MBytes):  RWF=    155 Int=      0 D2E=      0 Chk=      9 Scr=      1
 Normal termination of Gaussian 16 at Mon May 15 15:27:26 2023.
### All Done ###
