### Starting Gaussian ###
 Entering Gaussian System, Link 0=g16
 Initial command:
 /cluster/software/gaussian/gaussian-16-A.03/avx2/g16/l1.exe "/local/scratch/ks29c/Gau-23624.inp" -scrdir="/local/scratch/ks29c/"
 Entering Link 1 = /cluster/software/gaussian/gaussian-16-A.03/avx2/g16/l1.exe PID=     23625.
  
 Copyright (c) 1988,1990,1992,1993,1995,1998,2003,2009,2016,
            Gaussian, Inc.  All Rights Reserved.
  
 This is part of the Gaussian(R) 16 program.  It is based on
 the Gaussian(R) 09 system (copyright 2009, Gaussian, Inc.),
 the Gaussian(R) 03 system (copyright 2003, Gaussian, Inc.),
 the Gaussian(R) 98 system (copyright 1998, Gaussian, Inc.),
 the Gaussian(R) 94 system (copyright 1995, Gaussian, Inc.),
 the Gaussian 92(TM) system (copyright 1992, Gaussian, Inc.),
 the Gaussian 90(TM) system (copyright 1990, Gaussian, Inc.),
 the Gaussian 88(TM) system (copyright 1988, Gaussian, Inc.),
 the Gaussian 86(TM) system (copyright 1986, Carnegie Mellon
 University), and the Gaussian 82(TM) system (copyright 1983,
 Carnegie Mellon University). Gaussian is a federally registered
 trademark of Gaussian, Inc.
  
 This software contains proprietary and confidential information,
 including trade secrets, belonging to Gaussian, Inc.
  
 This software is provided under written license and may be
 used, copied, transmitted, or stored only in accord with that
 written license.
  
 The following legend is applicable only to US Government
 contracts under FAR:
  
                    RESTRICTED RIGHTS LEGEND
  
 Use, reproduction and disclosure by the US Government is
 subject to restrictions as set forth in subparagraphs (a)
 and (c) of the Commercial Computer Software - Restricted
 Rights clause in FAR 52.227-19.
  
 Gaussian, Inc.
 340 Quinnipiac St., Bldg. 40, Wallingford CT 06492
  
  
 ---------------------------------------------------------------
 Warning -- This program may not be used in any manner that
 competes with the business of Gaussian, Inc. or will provide
 assistance to any competitor of Gaussian, Inc.  The licensee
 of this program is prohibited from giving any competitor of
 Gaussian, Inc. access to this program.  By using this program,
 the user acknowledges that Gaussian, Inc. is engaged in the
 business of creating and licensing software in the field of
 computational chemistry and represents and warrants to the
 licensee that it is not a competitor of Gaussian, Inc. and that
 it will not use this program in any manner prohibited above.
 ---------------------------------------------------------------
  

 Cite this work as:
 Gaussian 16, Revision A.03,
 M. J. Frisch, G. W. Trucks, H. B. Schlegel, G. E. Scuseria, 
 M. A. Robb, J. R. Cheeseman, G. Scalmani, V. Barone, 
 G. A. Petersson, H. Nakatsuji, X. Li, M. Caricato, A. V. Marenich, 
 J. Bloino, B. G. Janesko, R. Gomperts, B. Mennucci, H. P. Hratchian, 
 J. V. Ortiz, A. F. Izmaylov, J. L. Sonnenberg, D. Williams-Young, 
 F. Ding, F. Lipparini, F. Egidi, J. Goings, B. Peng, A. Petrone, 
 T. Henderson, D. Ranasinghe, V. G. Zakrzewski, J. Gao, N. Rega, 
 G. Zheng, W. Liang, M. Hada, M. Ehara, K. Toyota, R. Fukuda, 
 J. Hasegawa, M. Ishida, T. Nakajima, Y. Honda, O. Kitao, H. Nakai, 
 T. Vreven, K. Throssell, J. A. Montgomery, Jr., J. E. Peralta, 
 F. Ogliaro, M. J. Bearpark, J. J. Heyd, E. N. Brothers, K. N. Kudin, 
 V. N. Staroverov, T. A. Keith, R. Kobayashi, J. Normand, 
 K. Raghavachari, A. P. Rendell, J. C. Burant, S. S. Iyengar, 
 J. Tomasi, M. Cossi, J. M. Millam, M. Klene, C. Adamo, R. Cammi, 
 J. W. Ochterski, R. L. Martin, K. Morokuma, O. Farkas, 
 J. B. Foresman, and D. J. Fox, Gaussian, Inc., Wallingford CT, 2016.
 
 ******************************************
 Gaussian 16:  ES64L-G16RevA.03 25-Dec-2016
                15-May-2023 
 ******************************************
 %chk=CCOCqdOrCn1ccnc1[N+]qdOr[O-].chk
 %NProcShared=20
 Will use up to   20 processors via shared memory.
 -----------------------------
 # opt freq b3lyp/6-31g(2df,p)
 -----------------------------
 1/18=20,19=15,26=3,38=1/1,3;
 2/9=110,12=2,17=6,18=5,40=1/2;
 3/5=1,6=6,7=104,11=2,25=1,30=1,71=1,74=-5/1,2,3;
 4//1;
 5/5=2,38=5/2;
 6/7=2,8=2,9=2,10=2,28=1/1;
 7//1,2,3,16;
 1/18=20,19=15,26=3/3(2);
 2/9=110/2;
 99//99;
 2/9=110/2;
 3/5=1,6=6,7=104,11=2,25=1,30=1,71=1,74=-5/1,2,3;
 4/5=5,16=3,69=1/1;
 5/5=2,38=5/2;
 7//1,2,3,16;
 1/18=20,19=15,26=3/3(-5);
 2/9=110/2;
 6/7=2,8=2,9=2,10=2,19=2,28=1/1;
 99/9=1/99;
 -------------------
 Title Card Required
 -------------------
 Symbolic Z-matrix:
 Charge =  0 Multiplicity = 1
 C                     1.11971  -0.03004   0.01922 
 C                     2.63578  -0.01328   0.03526 
 O                     3.10166   0.67736   1.20935 
 C                     4.46006   0.78233   1.25585 
 O                     5.2115    0.38215   0.36962 
 C                     4.93828   1.44071   2.53454 
 N                     6.39736   1.42331   2.62404 
 C                     7.2064    2.53809   2.64049 
 C                     8.49631   2.05492   2.65207 
 N                     8.50506   0.68588   2.67065 
 C                     7.23352   0.33079   2.65155 
 N                     6.79933  -1.04721   2.6711 
 O                     7.6688   -1.92357   2.60294 
 O                     5.58348  -1.26194   2.79666 
 H                     0.74772  -0.54214  -0.87422 
 H                     0.7221    0.98944   0.02914 
 H                     0.72714  -0.5409    0.90379 
 H                     2.99912   0.49853  -0.86378 
 H                     3.01092  -1.04401   0.043 
 H                     4.56004   0.93212   3.42734 
 H                     4.6105    2.48546   2.55428 
 H                     6.82489   3.5509    2.62194 
 H                     9.42121   2.6203    2.64788 
 

 GradGradGradGradGradGradGradGradGradGradGradGradGradGradGradGradGradGrad
 Berny optimization.
 Initialization pass.
                           ----------------------------
                           !    Initial Parameters    !
                           ! (Angstroms and Degrees)  !
 --------------------------                            --------------------------
 ! Name  Definition              Value          Derivative Info.                !
 --------------------------------------------------------------------------------
 ! R1    R(1,2)                  1.5162         estimate D2E/DX2                !
 ! R2    R(1,15)                 1.0949         estimate D2E/DX2                !
 ! R3    R(1,16)                 1.0943         estimate D2E/DX2                !
 ! R4    R(1,17)                 1.0943         estimate D2E/DX2                !
 ! R5    R(2,3)                  1.4396         estimate D2E/DX2                !
 ! R6    R(2,18)                 1.0965         estimate D2E/DX2                !
 ! R7    R(2,19)                 1.0969         estimate D2E/DX2                !
 ! R8    R(3,4)                  1.3632         estimate D2E/DX2                !
 ! R9    R(4,5)                  1.2289         estimate D2E/DX2                !
 ! R10   R(4,6)                  1.5157         estimate D2E/DX2                !
 ! R11   R(6,7)                  1.4619         estimate D2E/DX2                !
 ! R12   R(6,20)                 1.0949         estimate D2E/DX2                !
 ! R13   R(6,21)                 1.0951         estimate D2E/DX2                !
 ! R14   R(7,8)                  1.3775         estimate D2E/DX2                !
 ! R15   R(7,11)                 1.3761         estimate D2E/DX2                !
 ! R16   R(8,9)                  1.3775         estimate D2E/DX2                !
 ! R17   R(8,22)                 1.0824         estimate D2E/DX2                !
 ! R18   R(9,10)                 1.3692         estimate D2E/DX2                !
 ! R19   R(9,23)                 1.084          estimate D2E/DX2                !
 ! R20   R(10,11)                1.3203         estimate D2E/DX2                !
 ! R21   R(11,12)                1.4449         estimate D2E/DX2                !
 ! R22   R(12,13)                1.2364         estimate D2E/DX2                !
 ! R23   R(12,14)                1.241          estimate D2E/DX2                !
 ! A1    A(2,1,15)             110.7017         estimate D2E/DX2                !
 ! A2    A(2,1,16)             110.6651         estimate D2E/DX2                !
 ! A3    A(2,1,17)             110.8118         estimate D2E/DX2                !
 ! A4    A(15,1,16)            108.6432         estimate D2E/DX2                !
 ! A5    A(15,1,17)            108.6246         estimate D2E/DX2                !
 ! A6    A(16,1,17)            107.2914         estimate D2E/DX2                !
 ! A7    A(1,2,3)              109.7249         estimate D2E/DX2                !
 ! A8    A(1,2,18)             109.1365         estimate D2E/DX2                !
 ! A9    A(1,2,19)             109.3688         estimate D2E/DX2                !
 ! A10   A(3,2,18)             109.727          estimate D2E/DX2                !
 ! A11   A(3,2,19)             109.534          estimate D2E/DX2                !
 ! A12   A(18,2,19)            109.3342         estimate D2E/DX2                !
 ! A13   A(2,3,4)              112.7817         estimate D2E/DX2                !
 ! A14   A(3,4,5)              124.0299         estimate D2E/DX2                !
 ! A15   A(3,4,6)              112.1248         estimate D2E/DX2                !
 ! A16   A(5,4,6)              123.8436         estimate D2E/DX2                !
 ! A17   A(4,6,7)              111.1853         estimate D2E/DX2                !
 ! A18   A(4,6,20)             112.1575         estimate D2E/DX2                !
 ! A19   A(4,6,21)             109.5829         estimate D2E/DX2                !
 ! A20   A(7,6,20)             106.818          estimate D2E/DX2                !
 ! A21   A(7,6,21)             107.9973         estimate D2E/DX2                !
 ! A22   A(20,6,21)            108.9679         estimate D2E/DX2                !
 ! A23   A(6,7,8)              125.259          estimate D2E/DX2                !
 ! A24   A(6,7,11)             128.1077         estimate D2E/DX2                !
 ! A25   A(8,7,11)             106.5826         estimate D2E/DX2                !
 ! A26   A(7,8,9)              105.4394         estimate D2E/DX2                !
 ! A27   A(7,8,22)             123.3672         estimate D2E/DX2                !
 ! A28   A(9,8,22)             131.1772         estimate D2E/DX2                !
 ! A29   A(8,9,10)             110.9052         estimate D2E/DX2                !
 ! A30   A(8,9,23)             128.024          estimate D2E/DX2                !
 ! A31   A(10,9,23)            121.0708         estimate D2E/DX2                !
 ! A32   A(9,10,11)            105.222          estimate D2E/DX2                !
 ! A33   A(7,11,10)            111.8366         estimate D2E/DX2                !
 ! A34   A(7,11,12)            125.0896         estimate D2E/DX2                !
 ! A35   A(10,11,12)           123.0712         estimate D2E/DX2                !
 ! A36   A(11,12,13)           117.6403         estimate D2E/DX2                !
 ! A37   A(11,12,14)           117.4373         estimate D2E/DX2                !
 ! A38   A(13,12,14)           124.8831         estimate D2E/DX2                !
 ! D1    D(15,1,2,3)           179.3467         estimate D2E/DX2                !
 ! D2    D(15,1,2,18)           59.084          estimate D2E/DX2                !
 ! D3    D(15,1,2,19)          -60.4837         estimate D2E/DX2                !
 ! D4    D(16,1,2,3)            58.8311         estimate D2E/DX2                !
 ! D5    D(16,1,2,18)          -61.4316         estimate D2E/DX2                !
 ! D6    D(16,1,2,19)          179.0007         estimate D2E/DX2                !
 ! D7    D(17,1,2,3)           -60.0639         estimate D2E/DX2                !
 ! D8    D(17,1,2,18)          179.6734         estimate D2E/DX2                !
 ! D9    D(17,1,2,19)           60.1057         estimate D2E/DX2                !
 ! D10   D(1,2,3,4)           -177.2023         estimate D2E/DX2                !
 ! D11   D(18,2,3,4)           -57.2992         estimate D2E/DX2                !
 ! D12   D(19,2,3,4)            62.7287         estimate D2E/DX2                !
 ! D13   D(2,3,4,5)              2.8006         estimate D2E/DX2                !
 ! D14   D(2,3,4,6)           -176.7305         estimate D2E/DX2                !
 ! D15   D(3,4,6,7)            174.3568         estimate D2E/DX2                !
 ! D16   D(3,4,6,20)            54.8267         estimate D2E/DX2                !
 ! D17   D(3,4,6,21)           -66.3295         estimate D2E/DX2                !
 ! D18   D(5,4,6,7)             -5.1753         estimate D2E/DX2                !
 ! D19   D(5,4,6,20)          -124.7054         estimate D2E/DX2                !
 ! D20   D(5,4,6,21)           114.1384         estimate D2E/DX2                !
 ! D21   D(4,6,7,8)            116.3809         estimate D2E/DX2                !
 ! D22   D(4,6,7,11)           -60.6759         estimate D2E/DX2                !
 ! D23   D(20,6,7,8)          -120.9549         estimate D2E/DX2                !
 ! D24   D(20,6,7,11)           61.9883         estimate D2E/DX2                !
 ! D25   D(21,6,7,8)            -3.8754         estimate D2E/DX2                !
 ! D26   D(21,6,7,11)          179.0678         estimate D2E/DX2                !
 ! D27   D(6,7,8,9)           -176.4956         estimate D2E/DX2                !
 ! D28   D(6,7,8,22)             2.1885         estimate D2E/DX2                !
 ! D29   D(11,7,8,9)             1.0884         estimate D2E/DX2                !
 ! D30   D(11,7,8,22)          179.7725         estimate D2E/DX2                !
 ! D31   D(6,7,11,10)          176.8715         estimate D2E/DX2                !
 ! D32   D(6,7,11,12)           -3.7052         estimate D2E/DX2                !
 ! D33   D(8,7,11,10)           -0.6213         estimate D2E/DX2                !
 ! D34   D(8,7,11,12)          178.802          estimate D2E/DX2                !
 ! D35   D(7,8,9,10)            -1.2252         estimate D2E/DX2                !
 ! D36   D(7,8,9,23)           178.7654         estimate D2E/DX2                !
 ! D37   D(22,8,9,10)         -179.7651         estimate D2E/DX2                !
 ! D38   D(22,8,9,23)            0.2255         estimate D2E/DX2                !
 ! D39   D(8,9,10,11)            0.8521         estimate D2E/DX2                !
 ! D40   D(23,9,10,11)        -179.1392         estimate D2E/DX2                !
 ! D41   D(9,10,11,7)           -0.1295         estimate D2E/DX2                !
 ! D42   D(9,10,11,12)        -179.5663         estimate D2E/DX2                !
 ! D43   D(7,11,12,13)         175.1696         estimate D2E/DX2                !
 ! D44   D(7,11,12,14)          -6.9967         estimate D2E/DX2                !
 ! D45   D(10,11,12,13)         -5.4693         estimate D2E/DX2                !
 ! D46   D(10,11,12,14)        172.3644         estimate D2E/DX2                !
 --------------------------------------------------------------------------------
 Trust Radius=3.00D-01 FncErr=1.00D-07 GrdErr=1.00D-06 EigMax=2.50D+02 EigMin=1.00D-04
 Number of steps in this run=    117 maximum allowed number of steps=    138.
 GradGradGradGradGradGradGradGradGradGradGradGradGradGradGradGradGradGrad

                          Input orientation:                          
 ---------------------------------------------------------------------
 Center     Atomic      Atomic             Coordinates (Angstroms)
 Number     Number       Type             X           Y           Z
 ---------------------------------------------------------------------
      1          6           0        1.119710   -0.030040    0.019220
      2          6           0        2.635780   -0.013280    0.035260
      3          8           0        3.101660    0.677360    1.209350
      4          6           0        4.460060    0.782330    1.255850
      5          8           0        5.211500    0.382150    0.369620
      6          6           0        4.938280    1.440710    2.534540
      7          7           0        6.397360    1.423310    2.624040
      8          6           0        7.206400    2.538090    2.640490
      9          6           0        8.496310    2.054920    2.652070
     10          7           0        8.505060    0.685880    2.670650
     11          6           0        7.233520    0.330790    2.651550
     12          7           0        6.799330   -1.047210    2.671100
     13          8           0        7.668800   -1.923570    2.602940
     14          8           0        5.583480   -1.261940    2.796660
     15          1           0        0.747720   -0.542140   -0.874220
     16          1           0        0.722100    0.989440    0.029140
     17          1           0        0.727140   -0.540900    0.903790
     18          1           0        2.999120    0.498530   -0.863780
     19          1           0        3.010920   -1.044010    0.043000
     20          1           0        4.560040    0.932120    3.427340
     21          1           0        4.610500    2.485460    2.554280
     22          1           0        6.824890    3.550900    2.621940
     23          1           0        9.421210    2.620300    2.647880
 ---------------------------------------------------------------------
                    Distance matrix (angstroms):
                    1          2          3          4          5
     1  C    0.000000
     2  C    1.516247   0.000000
     3  O    2.417633   1.439623   0.000000
     4  C    3.653373   2.334702   1.363243   0.000000
     5  O    4.127399   2.627260   2.289917   1.228906   0.000000
     6  C    4.803272   3.696213   2.389980   1.515654   2.425299
     7  N    6.062252   4.786967   3.663254   2.456813   2.751852
     8  C    7.107330   5.846989   4.728569   3.541512   3.712756
     9  C    8.105133   6.743216   5.751640   4.456482   4.335633
    10  N    7.879468   6.471673   5.597517   4.286372   4.029209
    11  C    6.666186   5.301186   4.390025   3.137507   3.049329
    12  N    6.350211   5.035058   4.334007   3.289731   3.140236
    13  O    7.290517   5.964351   5.437435   4.408238   4.042572
    14  O    5.399722   4.227696   3.527020   2.795569   2.954983
    15  H    1.094924   2.161392   3.371866   4.480278   4.725122
    16  H    1.094318   2.160476   2.674434   3.939550   4.543065
    17  H    1.094328   2.162321   2.686237   3.976126   4.609430
    18  H    2.142722   1.096466   2.083354   2.589927   2.535635
    19  H    2.146014   1.096902   2.081279   2.628028   2.642568
    20  H    4.937297   4.012825   2.666694   2.178945   3.174353
    21  H    4.993985   4.060626   2.711948   2.146906   3.091578
    22  H    7.221244   6.078070   4.910711   3.888908   4.209151
    23  H    9.102146   7.733278   6.766173   5.470730   5.284074
                    6          7          8          9         10
     6  C    0.000000
     7  N    1.461926   0.000000
     8  C    2.521872   1.377516   0.000000
     9  C    3.612568   2.192101   1.377481   0.000000
    10  N    3.648317   2.233467   2.262324   1.369194   0.000000
    11  C    2.552203   1.376052   2.207494   2.137116   1.320329
    12  N    3.109968   2.503450   3.608465   3.536003   2.431690
    13  O    4.333451   3.580309   4.485714   4.063935   2.741012
    14  O    2.790933   2.811186   4.135032   4.416678   3.513618
    15  H    5.754314   6.929592   7.972174   8.900567   8.616871
    16  H    4.925124   6.255424   7.159861   8.273654   8.224609
    17  H    4.931513   6.242498   7.380861   8.375844   8.069871
    18  H    4.024503   4.956626   5.843023   6.708401   6.545431
    19  H    4.012022   4.921119   6.097577   6.819099   6.331085
    20  H    1.094907   2.064535   3.193978   4.166047   4.024475
    21  H    1.095140   2.079879   2.597864   3.910812   4.291809
    22  H    2.831932   2.170121   1.082441   2.243325   3.321699
    23  H    4.636911   3.252233   2.216348   1.084026   2.140521
                   11         12         13         14         15
    11  C    0.000000
    12  N    1.444918   0.000000
    13  O    2.296513   1.236378   0.000000
    14  O    2.297929   1.241034   2.196324   0.000000
    15  H    7.433617   7.031812   7.867677   6.113759   0.000000
    16  H    7.050492   6.932577   7.960321   6.030000   1.778329
    17  H    6.793194   6.344385   7.279116   5.261834   1.778130
    18  H    5.505981   5.415375   6.300050   4.814249   2.480303
    19  H    5.150239   4.610745   5.387278   3.774679   2.493038
    20  H    2.847972   3.082867   4.301045   2.501817   5.933856
    21  H    3.395924   4.157449   5.366108   3.879233   5.986822
    22  H    3.246069   4.598444   5.539167   4.973435   8.118381
    23  H    3.166679   4.508373   4.870289   5.460961   9.881075
                   16         17         18         19         20
    16  H    0.000000
    17  H    1.762662   0.000000
    18  H    2.494618   3.060492   0.000000
    19  H    3.061668   2.491933   1.789363   0.000000
    20  H    5.126483   4.819670   4.586740   4.214098   0.000000
    21  H    4.871762   5.192635   4.269376   4.617612   1.782595
    22  H    7.108286   7.541712   6.008637   6.504652   3.554747
    23  H    9.229952   9.413920   7.620820   7.829712   5.204660
                   21         22         23
    21  H    0.000000
    22  H    2.458305   0.000000
    23  H    4.813509   2.758182   0.000000
 Stoichiometry    C7H9N3O4
 Framework group  C1[X(C7H9N3O4)]
 Deg. of freedom    63
 Full point group                 C1      NOp   1
 Largest Abelian subgroup         C1      NOp   1
 Largest concise Abelian subgroup C1      NOp   1
                         Standard orientation:                         
 ---------------------------------------------------------------------
 Center     Atomic      Atomic             Coordinates (Angstroms)
 Number     Number       Type             X           Y           Z
 ---------------------------------------------------------------------
      1          6           0       -4.791334    0.036902   -0.053251
      2          6           0       -3.395614    0.122330    0.532986
      3          8           0       -2.449594   -0.469881   -0.376325
      4          6           0       -1.178905   -0.481181    0.117286
      5          8           0       -0.872988   -0.081179    1.238278
      6          6           0       -0.183104   -1.034663   -0.882337
      7          7           0        1.186510   -0.914960   -0.385289
      8          6           0        2.026376   -1.970619   -0.106437
      9          6           0        3.171717   -1.402487    0.406278
     10          7           0        3.073210   -0.036981    0.425815
     11          6           0        1.872031    0.230811   -0.052436
     12          7           0        1.367634    1.575718   -0.209268
     13          8           0        2.063974    2.503091    0.219360
     14          8           0        0.286043    1.715370   -0.801571
     15          1           0       -5.526099    0.472985    0.631446
     16          1           0       -5.066690   -1.004754   -0.244730
     17          1           0       -4.845096    0.568391   -1.008334
     18          1           0       -3.374229   -0.412855    1.489730
     19          1           0       -3.134815    1.174667    0.699619
     20          1           0       -0.220318   -0.504025   -1.839342
     21          1           0       -0.388563   -2.096290   -1.055739
     22          1           0        1.754001   -3.006124   -0.265243
     23          1           0        4.063854   -1.904210    0.763316
 ---------------------------------------------------------------------
 Rotational constants (GHZ):           1.3593502           0.4258448           0.3550343
 Standard basis: 6-31G(2df,p) (6D, 7F)
 There are   479 symmetry adapted cartesian basis functions of A   symmetry.
 There are   437 symmetry adapted basis functions of A   symmetry.
   437 basis functions,   679 primitive gaussians,   479 cartesian basis functions
    52 alpha electrons       52 beta electrons
       nuclear repulsion energy       922.6015485561 Hartrees.
 NAtoms=   23 NActive=   23 NUniq=   23 SFac= 1.00D+00 NAtFMM=   60 NAOKFM=F Big=F
 Integral buffers will be    131072 words long.
 Raffenetti 2 integral format.
 Two-electron integral symmetry is turned on.
 One-electron integrals computed using PRISM.
 PrsmSu:  requested number of processors reduced to:  13 ShMem   1 Linda.
 NBasis=   437 RedAO= T EigKep=  1.43D-04  NBF=   437
 NBsUse=   437 1.00D-06 EigRej= -1.00D+00 NBFU=   437
 ExpMin= 1.61D-01 ExpMax= 5.48D+03 ExpMxC= 8.25D+02 IAcc=3 IRadAn=         5 AccDes= 0.00D+00
 Harris functional with IExCor=  402 and IRadAn=       5 diagonalized for initial guess.
 HarFok:  IExCor=  402 AccDes= 0.00D+00 IRadAn=         5 IDoV= 1 UseB2=F ITyADJ=14
 ICtDFT=  3500011 ScaDFX=  1.000000  1.000000  1.000000  1.000000
 FoFCou: FMM=F IPFlag=           0 FMFlag=      100000 FMFlg1=           0
         NFxFlg=           0 DoJE=T BraDBF=F KetDBF=T FulRan=T
         wScrn=  0.000000 ICntrl=       500 IOpCl=  0 I1Cent=   200000004 NGrid=           0
         NMat0=    1 NMatS0=      1 NMatT0=    0 NMatD0=    1 NMtDS0=    0 NMtDT0=    0
 Petite list used in FoFCou.
 Requested convergence on RMS density matrix=1.00D-08 within 128 cycles.
 Requested convergence on MAX density matrix=1.00D-06.
 Requested convergence on             energy=1.00D-06.
 No special actions if energy rises.
 Integral accuracy reduced to 1.0D-05 until final iterations.
 Initial convergence to 1.0D-05 achieved.  Increase integral accuracy.
 SCF Done:  E(RB3LYP) =  -737.258462112     A.U. after   15 cycles
            NFock= 15  Conv=0.83D-08     -V/T= 2.0071

 **********************************************************************

            Population analysis using the SCF density.

 **********************************************************************

 Orbital symmetries:
       Occupied  (A) (A) (A) (A) (A) (A) (A) (A) (A) (A) (A) (A)
                 (A) (A) (A) (A) (A) (A) (A) (A) (A) (A) (A) (A)
                 (A) (A) (A) (A) (A) (A) (A) (A) (A) (A) (A) (A)
                 (A) (A) (A) (A) (A) (A) (A) (A) (A) (A) (A) (A)
                 (A) (A) (A) (A)
       Virtual   (A) (A) (A) (A) (A) (A) (A) (A) (A) (A) (A) (A)
                 (A) (A) (A) (A) (A) (A) (A) (A) (A) (A) (A) (A)
                 (A) (A) (A) (A) (A) (A) (A) (A) (A) (A) (A) (A)
                 (A) (A) (A) (A) (A) (A) (A) (A) (A) (A) (A) (A)
                 (A) (A) (A) (A) (A) (A) (A) (A) (A) (A) (A) (A)
                 (A) (A) (A) (A) (A) (A) (A) (A) (A) (A) (A) (A)
                 (A) (A) (A) (A) (A) (A) (A) (A) (A) (A) (A) (A)
                 (A) (A) (A) (A) (A) (A) (A) (A) (A) (A) (A) (A)
                 (A) (A) (A) (A) (A) (A) (A) (A) (A) (A) (A) (A)
                 (A) (A) (A) (A) (A) (A) (A) (A) (A) (A) (A) (A)
                 (A) (A) (A) (A) (A) (A) (A) (A) (A) (A) (A) (A)
                 (A) (A) (A) (A) (A) (A) (A) (A) (A) (A) (A) (A)
                 (A) (A) (A) (A) (A) (A) (A) (A) (A) (A) (A) (A)
                 (A) (A) (A) (A) (A) (A) (A) (A) (A) (A) (A) (A)
                 (A) (A) (A) (A) (A) (A) (A) (A) (A) (A) (A) (A)
                 (A) (A) (A) (A) (A) (A) (A) (A) (A) (A) (A) (A)
                 (A) (A) (A) (A) (A) (A) (A) (A) (A) (A) (A) (A)
                 (A) (A) (A) (A) (A) (A) (A) (A) (A) (A) (A) (A)
                 (A) (A) (A) (A) (A) (A) (A) (A) (A) (A) (A) (A)
                 (A) (A) (A) (A) (A) (A) (A) (A) (A) (A) (A) (A)
                 (A) (A) (A) (A) (A) (A) (A) (A) (A) (A) (A) (A)
                 (A) (A) (A) (A) (A) (A) (A) (A) (A) (A) (A) (A)
                 (A) (A) (A) (A) (A) (A) (A) (A) (A) (A) (A) (A)
                 (A) (A) (A) (A) (A) (A) (A) (A) (A) (A) (A) (A)
                 (A) (A) (A) (A) (A) (A) (A) (A) (A) (A) (A) (A)
                 (A) (A) (A) (A) (A) (A) (A) (A) (A) (A) (A) (A)
                 (A) (A) (A) (A) (A) (A) (A) (A) (A) (A) (A) (A)
                 (A) (A) (A) (A) (A) (A) (A) (A) (A) (A) (A) (A)
                 (A) (A) (A) (A) (A) (A) (A) (A) (A) (A) (A) (A)
                 (A) (A) (A) (A) (A) (A) (A) (A) (A) (A) (A) (A)
                 (A) (A) (A) (A) (A) (A) (A) (A) (A) (A) (A) (A)
                 (A) (A) (A) (A) (A) (A) (A) (A) (A) (A) (A) (A)
                 (A)
 The electronic state is 1-A.
 Alpha  occ. eigenvalues --  -19.20300 -19.17381 -19.17157 -19.14624 -14.56952
 Alpha  occ. eigenvalues --  -14.42841 -14.34174 -10.33294 -10.29568 -10.27094
 Alpha  occ. eigenvalues --  -10.24991 -10.24615 -10.22490 -10.19223  -1.21754
 Alpha  occ. eigenvalues --   -1.11247  -1.05178  -1.04417  -1.02290  -0.91826
 Alpha  occ. eigenvalues --   -0.81499  -0.79728  -0.76364  -0.70782  -0.65765
 Alpha  occ. eigenvalues --   -0.62971  -0.59634  -0.57432  -0.55288  -0.54390
 Alpha  occ. eigenvalues --   -0.52368  -0.51420  -0.50963  -0.50256  -0.47968
 Alpha  occ. eigenvalues --   -0.47407  -0.45830  -0.44425  -0.43359  -0.41155
 Alpha  occ. eigenvalues --   -0.40933  -0.40142  -0.36541  -0.36022  -0.31706
 Alpha  occ. eigenvalues --   -0.31026  -0.30730  -0.30312  -0.30093  -0.29077
 Alpha  occ. eigenvalues --   -0.28623  -0.25922
 Alpha virt. eigenvalues --   -0.08893  -0.01377   0.01805   0.05158   0.07406
 Alpha virt. eigenvalues --    0.09041   0.09811   0.10650   0.12450   0.13761
 Alpha virt. eigenvalues --    0.14547   0.14784   0.15099   0.16675   0.17786
 Alpha virt. eigenvalues --    0.18348   0.20015   0.21545   0.22400   0.23129
 Alpha virt. eigenvalues --    0.24389   0.26314   0.30196   0.31442   0.32057
 Alpha virt. eigenvalues --    0.36400   0.36906   0.40084   0.40569   0.41630
 Alpha virt. eigenvalues --    0.43374   0.45696   0.46280   0.47933   0.49644
 Alpha virt. eigenvalues --    0.50076   0.50264   0.51218   0.51683   0.53349
 Alpha virt. eigenvalues --    0.54374   0.54554   0.56539   0.57616   0.58090
 Alpha virt. eigenvalues --    0.59650   0.60385   0.62124   0.62416   0.62758
 Alpha virt. eigenvalues --    0.64365   0.67024   0.67650   0.68810   0.69320
 Alpha virt. eigenvalues --    0.69611   0.70320   0.71663   0.72268   0.73268
 Alpha virt. eigenvalues --    0.73556   0.75125   0.76385   0.77802   0.78041
 Alpha virt. eigenvalues --    0.78837   0.79387   0.80774   0.81454   0.82567
 Alpha virt. eigenvalues --    0.83195   0.84617   0.85943   0.86726   0.87583
 Alpha virt. eigenvalues --    0.87676   0.89296   0.91556   0.93171   0.93393
 Alpha virt. eigenvalues --    0.94552   0.96110   0.96611   0.97676   0.99257
 Alpha virt. eigenvalues --    0.99798   1.02027   1.03457   1.04139   1.05134
 Alpha virt. eigenvalues --    1.06040   1.09763   1.10901   1.12872   1.13054
 Alpha virt. eigenvalues --    1.14665   1.15181   1.18867   1.19568   1.20437
 Alpha virt. eigenvalues --    1.21062   1.23407   1.24849   1.27804   1.28343
 Alpha virt. eigenvalues --    1.29804   1.31690   1.32687   1.33896   1.34795
 Alpha virt. eigenvalues --    1.36492   1.37628   1.38582   1.40231   1.42023
 Alpha virt. eigenvalues --    1.42849   1.44703   1.45203   1.47306   1.47642
 Alpha virt. eigenvalues --    1.49742   1.50356   1.52482   1.53353   1.54737
 Alpha virt. eigenvalues --    1.56130   1.56684   1.59085   1.60453   1.61265
 Alpha virt. eigenvalues --    1.62613   1.64183   1.65582   1.67836   1.69311
 Alpha virt. eigenvalues --    1.71511   1.71790   1.72692   1.74437   1.76493
 Alpha virt. eigenvalues --    1.77749   1.80417   1.81717   1.83801   1.85813
 Alpha virt. eigenvalues --    1.86792   1.88296   1.90992   1.93988   1.94081
 Alpha virt. eigenvalues --    1.98601   1.99965   2.03649   2.06749   2.09685
 Alpha virt. eigenvalues --    2.12621   2.15631   2.16048   2.18492   2.20041
 Alpha virt. eigenvalues --    2.22981   2.24288   2.26271   2.26618   2.29804
 Alpha virt. eigenvalues --    2.31288   2.33014   2.35353   2.38762   2.43564
 Alpha virt. eigenvalues --    2.48900   2.50348   2.56849   2.57382   2.61709
 Alpha virt. eigenvalues --    2.65925   2.67540   2.70057   2.72498   2.75765
 Alpha virt. eigenvalues --    2.76182   2.77329   2.78240   2.80893   2.85287
 Alpha virt. eigenvalues --    2.86031   2.87628   2.88428   2.89463   2.92699
 Alpha virt. eigenvalues --    2.94849   2.95392   2.96794   2.97427   3.00503
 Alpha virt. eigenvalues --    3.01919   3.03474   3.04615   3.07394   3.10965
 Alpha virt. eigenvalues --    3.11981   3.12361   3.14347   3.16907   3.19225
 Alpha virt. eigenvalues --    3.20936   3.21254   3.23643   3.25843   3.27101
 Alpha virt. eigenvalues --    3.28209   3.31626   3.34610   3.34936   3.37985
 Alpha virt. eigenvalues --    3.38852   3.39824   3.43313   3.46730   3.48252
 Alpha virt. eigenvalues --    3.51334   3.52255   3.53499   3.55789   3.58702
 Alpha virt. eigenvalues --    3.60455   3.61175   3.62366   3.63426   3.64862
 Alpha virt. eigenvalues --    3.66065   3.69502   3.71137   3.72858   3.73443
 Alpha virt. eigenvalues --    3.79726   3.81123   3.83680   3.86046   3.87783
 Alpha virt. eigenvalues --    3.92060   3.93662   3.96724   3.99419   4.01075
 Alpha virt. eigenvalues --    4.02994   4.03740   4.05754   4.07128   4.08760
 Alpha virt. eigenvalues --    4.10705   4.13474   4.13860   4.16364   4.17171
 Alpha virt. eigenvalues --    4.18493   4.19911   4.21636   4.23217   4.23444
 Alpha virt. eigenvalues --    4.25686   4.27717   4.29318   4.30473   4.32425
 Alpha virt. eigenvalues --    4.33684   4.35171   4.35831   4.37986   4.38689
 Alpha virt. eigenvalues --    4.40235   4.40964   4.41732   4.43412   4.44228
 Alpha virt. eigenvalues --    4.45230   4.46197   4.47856   4.48278   4.48730
 Alpha virt. eigenvalues --    4.50601   4.51826   4.51939   4.53271   4.55228
 Alpha virt. eigenvalues --    4.56291   4.56804   4.58884   4.59155   4.60599
 Alpha virt. eigenvalues --    4.61239   4.62500   4.63365   4.63868   4.65520
 Alpha virt. eigenvalues --    4.67488   4.69115   4.70141   4.71091   4.73118
 Alpha virt. eigenvalues --    4.74675   4.76319   4.76656   4.77768   4.81201
 Alpha virt. eigenvalues --    4.82531   4.83900   4.85300   4.86387   4.88511
 Alpha virt. eigenvalues --    4.89476   4.93929   4.95523   4.98393   5.01391
 Alpha virt. eigenvalues --    5.03556   5.04263   5.06024   5.06411   5.08154
 Alpha virt. eigenvalues --    5.08765   5.10556   5.13597   5.15804   5.17091
 Alpha virt. eigenvalues --    5.20187   5.20525   5.24377   5.26694   5.29616
 Alpha virt. eigenvalues --    5.31030   5.32915   5.38462   5.40329   5.44456
 Alpha virt. eigenvalues --    5.48751   5.50093   5.52688   5.54156   5.57262
 Alpha virt. eigenvalues --    5.58570   5.61809   5.67381   5.68747   5.71281
 Alpha virt. eigenvalues --    5.78498   5.80843   5.83004   5.87399   5.90548
 Alpha virt. eigenvalues --    5.96258   5.97301   6.04997   6.07569   6.10076
 Alpha virt. eigenvalues --    6.14007   6.20245   6.22909   6.33678   6.34745
 Alpha virt. eigenvalues --    6.43339   6.60823   6.70241   6.76012   6.85216
 Alpha virt. eigenvalues --    6.95449   7.08391   7.13489  10.13441  10.88060
 Alpha virt. eigenvalues --   11.04141  11.25739  11.27720  11.33732  11.37674
 Alpha virt. eigenvalues --   11.47215  11.84992  12.20967  12.95354  13.10066
 Alpha virt. eigenvalues --   13.31174  13.53643  17.03209  18.96656  25.81602
          Condensed to atoms (all electrons):
               1          2          3          4          5          6
     1  C    4.984151   0.397289  -0.027338   0.003172   0.001253   0.000071
     2  C    0.397289   4.703477   0.314133  -0.061340   0.000996   0.005610
     3  O   -0.027338   0.314133   7.698948   0.409287  -0.046839  -0.047224
     4  C    0.003172  -0.061340   0.409287   4.217359   0.703786   0.292265
     5  O    0.001253   0.000996  -0.046839   0.703786   7.735574  -0.049773
     6  C    0.000071   0.005610  -0.047224   0.292265  -0.049773   5.182477
     7  N    0.000000  -0.000142   0.000568  -0.042021  -0.009041   0.352395
     8  C   -0.000000  -0.000003  -0.000001   0.001672   0.002225  -0.051638
     9  C    0.000000   0.000000   0.000000  -0.000231  -0.000235   0.004828
    10  N    0.000000   0.000000  -0.000001  -0.000450  -0.000476   0.007095
    11  C   -0.000000  -0.000030   0.000105   0.003784   0.016738  -0.068421
    12  N    0.000000   0.000010  -0.000041   0.001264  -0.001305  -0.001540
    13  O   -0.000000  -0.000000  -0.000000  -0.000190  -0.000035   0.000275
    14  O   -0.000002  -0.000196  -0.000948   0.004809  -0.003506   0.006945
    15  H    0.374883  -0.023302   0.001963  -0.000063   0.000018   0.000005
    16  H    0.373345  -0.023900   0.000817   0.000230  -0.000013  -0.000002
    17  H    0.374091  -0.022287   0.000654   0.000074  -0.000014  -0.000001
    18  H   -0.041025   0.373843  -0.026764  -0.000156   0.006209   0.000365
    19  H   -0.039272   0.376492  -0.026266   0.000372   0.004649   0.000114
    20  H   -0.000018  -0.000102   0.002004  -0.016638   0.000172   0.344224
    21  H   -0.000004  -0.000133   0.000183  -0.013615   0.000314   0.343266
    22  H   -0.000000  -0.000000   0.000000   0.000172   0.000049  -0.001531
    23  H    0.000000   0.000000  -0.000000  -0.000000  -0.000001  -0.000068
               7          8          9         10         11         12
     1  C    0.000000  -0.000000   0.000000   0.000000  -0.000000   0.000000
     2  C   -0.000142  -0.000003   0.000000   0.000000  -0.000030   0.000010
     3  O    0.000568  -0.000001   0.000000  -0.000001   0.000105  -0.000041
     4  C   -0.042021   0.001672  -0.000231  -0.000450   0.003784   0.001264
     5  O   -0.009041   0.002225  -0.000235  -0.000476   0.016738  -0.001305
     6  C    0.352395  -0.051638   0.004828   0.007095  -0.068421  -0.001540
     7  N    6.050393   0.446348  -0.019783  -0.064005   0.408522  -0.010013
     8  C    0.446348   4.929684   0.559477  -0.027328  -0.070342   0.001674
     9  C   -0.019783   0.559477   4.794400   0.514416  -0.121717  -0.002929
    10  N   -0.064005  -0.027328   0.514416   6.364205   0.504847  -0.004801
    11  C    0.408522  -0.070342  -0.121717   0.504847   4.731344   0.288713
    12  N   -0.010013   0.001674  -0.002929  -0.004801   0.288713   5.362420
    13  O    0.001035  -0.000248   0.000903  -0.000376  -0.088909   0.514558
    14  O   -0.010647  -0.000402   0.000120   0.001052  -0.087782   0.477321
    15  H   -0.000000  -0.000000   0.000000   0.000000  -0.000000   0.000000
    16  H    0.000000  -0.000000  -0.000000   0.000000   0.000000   0.000000
    17  H    0.000000   0.000000   0.000000  -0.000000   0.000000  -0.000000
    18  H    0.000013   0.000000   0.000000   0.000000  -0.000002  -0.000001
    19  H    0.000017   0.000000  -0.000000   0.000000   0.000009   0.000019
    20  H   -0.018864   0.003836  -0.000395   0.000080  -0.001454   0.000030
    21  H   -0.018263  -0.007530   0.000266  -0.000200   0.004307  -0.000027
    22  H   -0.025447   0.361752  -0.025549   0.004405   0.003625   0.000031
    23  H    0.002344  -0.040113   0.377195  -0.021026   0.003949  -0.000030
              13         14         15         16         17         18
     1  C   -0.000000  -0.000002   0.374883   0.373345   0.374091  -0.041025
     2  C   -0.000000  -0.000196  -0.023302  -0.023900  -0.022287   0.373843
     3  O   -0.000000  -0.000948   0.001963   0.000817   0.000654  -0.026764
     4  C   -0.000190   0.004809  -0.000063   0.000230   0.000074  -0.000156
     5  O   -0.000035  -0.003506   0.000018  -0.000013  -0.000014   0.006209
     6  C    0.000275   0.006945   0.000005  -0.000002  -0.000001   0.000365
     7  N    0.001035  -0.010647  -0.000000   0.000000   0.000000   0.000013
     8  C   -0.000248  -0.000402  -0.000000  -0.000000   0.000000   0.000000
     9  C    0.000903   0.000120   0.000000  -0.000000   0.000000   0.000000
    10  N   -0.000376   0.001052   0.000000   0.000000  -0.000000   0.000000
    11  C   -0.088909  -0.087782  -0.000000   0.000000   0.000000  -0.000002
    12  N    0.514558   0.477321   0.000000   0.000000  -0.000000  -0.000001
    13  O    7.969114  -0.060726   0.000000   0.000000   0.000000   0.000000
    14  O   -0.060726   8.061816  -0.000000   0.000000  -0.000000   0.000003
    15  H    0.000000  -0.000000   0.571727  -0.027949  -0.027984  -0.000207
    16  H    0.000000   0.000000  -0.027949   0.583151  -0.032904  -0.005416
    17  H    0.000000  -0.000000  -0.027984  -0.032904   0.575592   0.005365
    18  H    0.000000   0.000003  -0.000207  -0.005416   0.005365   0.605264
    19  H   -0.000000   0.000242   0.000120   0.005369  -0.005396  -0.044470
    20  H    0.000032   0.009949  -0.000000   0.000002   0.000001   0.000003
    21  H    0.000003   0.000715  -0.000000  -0.000001   0.000001  -0.000008
    22  H    0.000000  -0.000001  -0.000000   0.000000   0.000000   0.000000
    23  H    0.000010   0.000001   0.000000  -0.000000  -0.000000  -0.000000
              19         20         21         22         23
     1  C   -0.039272  -0.000018  -0.000004  -0.000000   0.000000
     2  C    0.376492  -0.000102  -0.000133  -0.000000   0.000000
     3  O   -0.026266   0.002004   0.000183   0.000000  -0.000000
     4  C    0.000372  -0.016638  -0.013615   0.000172  -0.000000
     5  O    0.004649   0.000172   0.000314   0.000049  -0.000001
     6  C    0.000114   0.344224   0.343266  -0.001531  -0.000068
     7  N    0.000017  -0.018864  -0.018263  -0.025447   0.002344
     8  C    0.000000   0.003836  -0.007530   0.361752  -0.040113
     9  C   -0.000000  -0.000395   0.000266  -0.025549   0.377195
    10  N    0.000000   0.000080  -0.000200   0.004405  -0.021026
    11  C    0.000009  -0.001454   0.004307   0.003625   0.003949
    12  N    0.000019   0.000030  -0.000027   0.000031  -0.000030
    13  O   -0.000000   0.000032   0.000003   0.000000   0.000010
    14  O    0.000242   0.009949   0.000715  -0.000001   0.000001
    15  H    0.000120  -0.000000  -0.000000  -0.000000   0.000000
    16  H    0.005369   0.000002  -0.000001   0.000000  -0.000000
    17  H   -0.005396   0.000001   0.000001   0.000000  -0.000000
    18  H   -0.044470   0.000003  -0.000008   0.000000  -0.000000
    19  H    0.592504  -0.000011  -0.000003   0.000000   0.000000
    20  H   -0.000011   0.521550  -0.026459   0.000118   0.000003
    21  H   -0.000003  -0.026459   0.562043   0.002727  -0.000005
    22  H    0.000000   0.000118   0.002727   0.523042   0.001163
    23  H    0.000000   0.000003  -0.000005   0.001163   0.543936
 Mulliken charges:
               1
     1  C   -0.400599
     2  C   -0.040416
     3  O   -0.253240
     4  C    0.496458
     5  O   -0.360746
     6  C   -0.319738
     7  N   -0.043411
     8  C   -0.109065
     9  C   -0.080767
    10  N   -0.277436
    11  C    0.472714
    12  N    0.374646
    13  O   -0.335446
    14  O   -0.398762
    15  H    0.130789
    16  H    0.127271
    17  H    0.132807
    18  H    0.126984
    19  H    0.135510
    20  H    0.181938
    21  H    0.152424
    22  H    0.155444
    23  H    0.132642
 Sum of Mulliken charges =  -0.00000
 Mulliken charges with hydrogens summed into heavy atoms:
               1
     1  C   -0.009732
     2  C    0.222078
     3  O   -0.253240
     4  C    0.496458
     5  O   -0.360746
     6  C    0.014623
     7  N   -0.043411
     8  C    0.046379
     9  C    0.051875
    10  N   -0.277436
    11  C    0.472714
    12  N    0.374646
    13  O   -0.335446
    14  O   -0.398762
 Electronic spatial extent (au):  <R**2>=           3105.5619
 Charge=             -0.0000 electrons
 Dipole moment (field-independent basis, Debye):
    X=             -3.1539    Y=             -5.4401    Z=             -1.8574  Tot=              6.5568
 Quadrupole moment (field-independent basis, Debye-Ang):
   XX=            -75.0470   YY=            -78.0823   ZZ=            -80.6471
   XY=            -10.0683   XZ=             -3.4590   YZ=              0.8601
 Traceless Quadrupole moment (field-independent basis, Debye-Ang):
   XX=              2.8785   YY=             -0.1568   ZZ=             -2.7216
   XY=            -10.0683   XZ=             -3.4590   YZ=              0.8601
 Octapole moment (field-independent basis, Debye-Ang**2):
  XXX=            -62.4884  YYY=            -25.2675  ZZZ=             -6.2766  XYY=             -2.8077
  XXY=            -16.9275  XXZ=              8.2464  XZZ=             -1.8498  YZZ=              4.7176
  YYZ=             -0.4809  XYZ=             -5.5729
 Hexadecapole moment (field-independent basis, Debye-Ang**3):
 XXXX=          -2843.2893 YYYY=           -766.6084 ZZZZ=           -233.0786 XXXY=            -90.9346
 XXXZ=            -40.2901 YYYX=            -32.0766 YYYZ=              6.1479 ZZZX=             -0.5713
 ZZZY=             -1.9868 XXYY=           -609.4570 XXZZ=           -533.7253 YYZZ=           -169.0622
 XXYZ=            -26.4722 YYXZ=             -1.6452 ZZXY=             10.2518
 N-N= 9.226015485561D+02 E-N=-3.568720988162D+03  KE= 7.320448291935D+02
 PrsmSu:  requested number of processors reduced to:  13 ShMem   1 Linda.
 Calling FoFJK, ICntrl=      2127 FMM=F ISym2X=0 I1Cent= 0 IOpClX= 0 NMat=1 NMatS=1 NMatT=0.
 ***** Axes restored to original set *****
 -------------------------------------------------------------------
 Center     Atomic                   Forces (Hartrees/Bohr)
 Number     Number              X              Y              Z
 -------------------------------------------------------------------
      1        6          -0.003044781    0.004655594    0.008962202
      2        6          -0.009606504   -0.005686447   -0.011443523
      3        8           0.023161548    0.002851182    0.002486011
      4        6           0.006894775   -0.021292883   -0.033680369
      5        8          -0.025728135    0.016926528    0.029793135
      6        6           0.006568085    0.001901074    0.009692298
      7        7          -0.009019702    0.001193065    0.000137526
      8        6           0.001792326   -0.010335633   -0.004262514
      9        6           0.004070448   -0.006178379    0.001975766
     10        7          -0.005720900    0.002975546   -0.001161265
     11        6           0.013378362    0.012516936   -0.002265497
     12        7           0.007446502   -0.016124229    0.003536321
     13        8          -0.017821419    0.019712613    0.000100149
     14        8           0.009886593    0.003234690   -0.000592999
     15        1           0.002274613    0.000381060    0.000726974
     16        1          -0.000728425    0.000064113   -0.001447821
     17        1          -0.000588134   -0.001113040   -0.000709881
     18        1           0.004398957   -0.002182719    0.003140940
     19        1           0.004434231    0.003969580   -0.000104809
     20        1          -0.006884442    0.000436131   -0.006339367
     21        1           0.000059864   -0.001475060    0.000638565
     22        1          -0.002202201   -0.004661140   -0.000286046
     23        1          -0.003021661   -0.001768582    0.001104205
 -------------------------------------------------------------------
 Cartesian Forces:  Max     0.033680369 RMS     0.009732820

 GradGradGradGradGradGradGradGradGradGradGradGradGradGradGradGradGradGrad
 Berny optimization.
 FormGI is forming the generalized inverse of G from B-inverse, IUseBI=4.
 Internal  Forces:  Max     0.042729352 RMS     0.006546216
 Search for a local minimum.
 Step number   1 out of a maximum of  117
 All quantities printed in internal units (Hartrees-Bohrs-Radians)
 Mixed Optimization -- RFO/linear search
 Second derivative matrix not updated -- first step.
 ITU=  0
     Eigenvalues ---    0.00551   0.00559   0.00873   0.00965   0.01098
     Eigenvalues ---    0.01108   0.01168   0.01492   0.01761   0.02083
     Eigenvalues ---    0.02178   0.02186   0.02303   0.02378   0.05203
     Eigenvalues ---    0.05269   0.05665   0.05728   0.06034   0.06526
     Eigenvalues ---    0.09767   0.11205   0.13113   0.13715   0.15992
     Eigenvalues ---    0.16000   0.16000   0.16000   0.16000   0.22034
     Eigenvalues ---    0.22074   0.22691   0.24760   0.24960   0.24999
     Eigenvalues ---    0.24999   0.25000   0.25000   0.25000   0.25000
     Eigenvalues ---    0.30731   0.30789   0.34027   0.34076   0.34225
     Eigenvalues ---    0.34250   0.34252   0.34317   0.34318   0.35512
     Eigenvalues ---    0.35701   0.36724   0.38919   0.39637   0.43655
     Eigenvalues ---    0.45851   0.49677   0.50582   0.52297   0.59391
     Eigenvalues ---    0.86639   0.88480   0.91544
 RFO step:  Lambda=-1.23407540D-02 EMin= 5.51024499D-03
 Linear search not attempted -- first point.
 Iteration  1 RMS(Cart)=  0.14266617 RMS(Int)=  0.00474821
 Iteration  2 RMS(Cart)=  0.00988246 RMS(Int)=  0.00044067
 Iteration  3 RMS(Cart)=  0.00003982 RMS(Int)=  0.00044030
 Iteration  4 RMS(Cart)=  0.00000001 RMS(Int)=  0.00044030
 Variable       Old X    -DE/DX   Delta X   Delta X   Delta X     New X
                                 (Linear)    (Quad)   (Total)
    R1        2.86529   0.00196   0.00000   0.00614   0.00614   2.87143
    R2        2.06911  -0.00154   0.00000  -0.00435  -0.00435   2.06475
    R3        2.06796   0.00031   0.00000   0.00088   0.00088   2.06884
    R4        2.06798   0.00016   0.00000   0.00044   0.00044   2.06842
    R5        2.72049   0.00160   0.00000   0.00391   0.00391   2.72440
    R6        2.07202  -0.00214   0.00000  -0.00605  -0.00605   2.06597
    R7        2.07284  -0.00221   0.00000  -0.00628  -0.00628   2.06656
    R8        2.57616  -0.02051   0.00000  -0.03831  -0.03831   2.53784
    R9        2.32230  -0.04273   0.00000  -0.04606  -0.04606   2.27624
   R10        2.86417   0.00208   0.00000   0.00649   0.00649   2.87066
   R11        2.76264  -0.00132   0.00000  -0.00348  -0.00348   2.75916
   R12        2.06907  -0.00299   0.00000  -0.00844  -0.00844   2.06064
   R13        2.06951  -0.00141   0.00000  -0.00399  -0.00399   2.06553
   R14        2.60313  -0.00982   0.00000  -0.01919  -0.01919   2.58393
   R15        2.60036  -0.00532   0.00000  -0.01077  -0.01063   2.58973
   R16        2.60306   0.00038   0.00000   0.00118   0.00105   2.60411
   R17        2.04552  -0.00358   0.00000  -0.00969  -0.00969   2.03582
   R18        2.58740  -0.01027   0.00000  -0.01949  -0.01957   2.56783
   R19        2.04851  -0.00350   0.00000  -0.00954  -0.00954   2.03897
   R20        2.49506  -0.00766   0.00000  -0.01243  -0.01234   2.48272
   R21        2.73050  -0.00632   0.00000  -0.01574  -0.01574   2.71476
   R22        2.33642  -0.02651   0.00000  -0.02955  -0.02955   2.30687
   R23        2.34521  -0.01031   0.00000  -0.01173  -0.01173   2.33349
    A1        1.93211  -0.00352   0.00000  -0.02584  -0.02583   1.90628
    A2        1.93147   0.00155   0.00000   0.01174   0.01162   1.94309
    A3        1.93403   0.00141   0.00000   0.01084   0.01071   1.94474
    A4        1.89618   0.00028   0.00000  -0.00347  -0.00345   1.89273
    A5        1.89586   0.00034   0.00000  -0.00319  -0.00318   1.89268
    A6        1.87259   0.00002   0.00000   0.01058   0.01033   1.88292
    A7        1.91506  -0.00843   0.00000  -0.03601  -0.03552   1.87954
    A8        1.90479   0.00674   0.00000   0.04644   0.04583   1.95062
    A9        1.90885   0.00646   0.00000   0.04224   0.04154   1.95038
   A10        1.91510  -0.00004   0.00000  -0.01208  -0.01157   1.90352
   A11        1.91173  -0.00043   0.00000  -0.01819  -0.01773   1.89400
   A12        1.90824  -0.00424   0.00000  -0.02197  -0.02354   1.88470
   A13        1.96841   0.01321   0.00000   0.05035   0.05035   2.01876
   A14        2.16473   0.00617   0.00000   0.02376   0.02215   2.18688
   A15        1.95695  -0.01071   0.00000  -0.04059  -0.04219   1.91476
   A16        2.16148   0.00456   0.00000   0.01760   0.01602   2.17750
   A17        1.94055   0.00242   0.00000   0.01471   0.01460   1.95515
   A18        1.95752  -0.00534   0.00000  -0.03240  -0.03348   1.92404
   A19        1.91258  -0.00151   0.00000  -0.02361  -0.02394   1.88865
   A20        1.86433   0.00641   0.00000   0.06406   0.06417   1.92850
   A21        1.88491  -0.00136   0.00000  -0.00847  -0.00832   1.87659
   A22        1.90185  -0.00039   0.00000  -0.01228  -0.01318   1.88867
   A23        2.18618   0.00061   0.00000   0.00241   0.00236   2.18854
   A24        2.23590   0.00800   0.00000   0.03063   0.03055   2.26646
   A25        1.86022  -0.00861   0.00000  -0.03348  -0.03340   1.82681
   A26        1.84026   0.00514   0.00000   0.02325   0.02301   1.86327
   A27        2.15316  -0.00635   0.00000  -0.03333  -0.03333   2.11983
   A28        2.28947   0.00122   0.00000   0.01061   0.01061   2.30008
   A29        1.93566  -0.00194   0.00000  -0.00743  -0.00765   1.92801
   A30        2.23444   0.00092   0.00000   0.00340   0.00351   2.23795
   A31        2.11308   0.00102   0.00000   0.00402   0.00412   2.11720
   A32        1.83647  -0.00361   0.00000  -0.01459  -0.01464   1.82183
   A33        1.95192   0.00904   0.00000   0.03302   0.03281   1.98473
   A34        2.18323  -0.00813   0.00000  -0.03045  -0.03083   2.15240
   A35        2.14800  -0.00093   0.00000  -0.00300  -0.00340   2.14459
   A36        2.05321  -0.00084   0.00000  -0.00281  -0.00303   2.05019
   A37        2.04967  -0.00130   0.00000  -0.00456  -0.00477   2.04489
   A38        2.17962   0.00218   0.00000   0.00870   0.00848   2.18810
    D1        3.13019   0.00027   0.00000   0.00559   0.00559   3.13578
    D2        1.03121   0.00131   0.00000   0.01371   0.01425   1.04546
    D3       -1.05564  -0.00144   0.00000  -0.01274  -0.01329  -1.06893
    D4        1.02680   0.00122   0.00000   0.01927   0.01934   1.04614
    D5       -1.07218   0.00226   0.00000   0.02739   0.02800  -1.04418
    D6        3.12415  -0.00049   0.00000   0.00094   0.00046   3.12462
    D7       -1.04831  -0.00071   0.00000  -0.00841  -0.00848  -1.05679
    D8        3.13589   0.00034   0.00000  -0.00029   0.00018   3.13608
    D9        1.04904  -0.00242   0.00000  -0.02674  -0.02735   1.02169
   D10       -3.09276  -0.00047   0.00000  -0.01461  -0.01454  -3.10731
   D11       -1.00006   0.00256   0.00000   0.01270   0.01270  -0.98736
   D12        1.09482  -0.00294   0.00000  -0.03301  -0.03307   1.06175
   D13        0.04888   0.00056   0.00000   0.03451   0.03465   0.08352
   D14       -3.08453  -0.00165   0.00000  -0.06641  -0.06654   3.13211
   D15        3.04310   0.00286   0.00000   0.04009   0.03978   3.08288
   D16        0.95691  -0.00335   0.00000  -0.02973  -0.02918   0.92773
   D17       -1.15767   0.00172   0.00000   0.02357   0.02306  -1.13461
   D18       -0.09033   0.00064   0.00000  -0.06065  -0.06078  -0.15111
   D19       -2.17652  -0.00557   0.00000  -0.13047  -0.12974  -2.30626
   D20        1.99209  -0.00050   0.00000  -0.07717  -0.07750   1.91459
   D21        2.03123  -0.00232   0.00000  -0.11200  -0.11251   1.91872
   D22       -1.05899  -0.00183   0.00000  -0.09841  -0.09876  -1.15775
   D23       -2.11106  -0.00325   0.00000  -0.10109  -0.10077  -2.21183
   D24        1.08190  -0.00275   0.00000  -0.08750  -0.08701   0.99489
   D25       -0.06764  -0.00105   0.00000  -0.08642  -0.08648  -0.15412
   D26        3.12532  -0.00056   0.00000  -0.07283  -0.07272   3.05260
   D27       -3.08043  -0.00077   0.00000  -0.01595  -0.01608  -3.09651
   D28        0.03820   0.00003   0.00000   0.00614   0.00580   0.04400
   D29        0.01900  -0.00080   0.00000  -0.02567  -0.02558  -0.00658
   D30        3.13762  -0.00000   0.00000  -0.00359  -0.00370   3.13393
   D31        3.08699  -0.00018   0.00000  -0.00292  -0.00299   3.08400
   D32       -0.06467  -0.00157   0.00000  -0.04956  -0.04964  -0.11431
   D33       -0.01084   0.00011   0.00000   0.00814   0.00812  -0.00272
   D34        3.12068  -0.00128   0.00000  -0.03850  -0.03853   3.08215
   D35       -0.02138   0.00112   0.00000   0.03481   0.03503   0.01365
   D36        3.12004   0.00084   0.00000   0.02655   0.02700  -3.13615
   D37       -3.13749   0.00036   0.00000   0.01109   0.01079  -3.12670
   D38        0.00393   0.00008   0.00000   0.00284   0.00275   0.00669
   D39        0.01487  -0.00116   0.00000  -0.03031  -0.02972  -0.01485
   D40       -3.12657  -0.00091   0.00000  -0.02271  -0.02233   3.13429
   D41       -0.00226   0.00061   0.00000   0.01320   0.01308   0.01083
   D42       -3.13402   0.00202   0.00000   0.05893   0.05969  -3.07434
   D43        3.05729  -0.00057   0.00000  -0.03050  -0.03090   3.02638
   D44       -0.12212   0.00030   0.00000   0.00626   0.00585  -0.11626
   D45       -0.09546  -0.00206   0.00000  -0.08200  -0.08159  -0.17705
   D46        3.00833  -0.00120   0.00000  -0.04524  -0.04484   2.96349
         Item               Value     Threshold  Converged?
 Maximum Force            0.042729     0.000450     NO 
 RMS     Force            0.006546     0.000300     NO 
 Maximum Displacement     0.426669     0.001800     NO 
 RMS     Displacement     0.142019     0.001200     NO 
 Predicted change in Energy=-7.061957D-03
 GradGradGradGradGradGradGradGradGradGradGradGradGradGradGradGradGradGrad

                          Input orientation:                          
 ---------------------------------------------------------------------
 Center     Atomic      Atomic             Coordinates (Angstroms)
 Number     Number       Type             X           Y           Z
 ---------------------------------------------------------------------
      1          6           0        1.083839    0.062898    0.075493
      2          6           0        2.596801    0.030024   -0.061398
      3          8           0        3.157750    0.596896    1.139628
      4          6           0        4.497519    0.684084    1.170965
      5          8           0        5.234550    0.407268    0.259339
      6          6           0        4.939657    1.308934    2.483100
      7          7           0        6.393927    1.356093    2.604438
      8          6           0        7.156066    2.490448    2.559109
      9          6           0        8.471184    2.089519    2.652407
     10          7           0        8.550283    0.735645    2.737287
     11          6           0        7.299731    0.333580    2.714219
     12          7           0        6.920578   -1.043904    2.864452
     13          8           0        7.809595   -1.879715    2.828724
     14          8           0        5.719454   -1.284206    3.020517
     15          1           0        0.631844   -0.356788   -0.826385
     16          1           0        0.717606    1.086792    0.202222
     17          1           0        0.747433   -0.523372    0.936412
     18          1           0        2.938511    0.609534   -0.923158
     19          1           0        2.971628   -0.991418   -0.171279
     20          1           0        4.503703    0.768666    3.324004
     21          1           0        4.573512    2.338417    2.511704
     22          1           0        6.707799    3.465569    2.465329
     23          1           0        9.357922    2.704239    2.655581
 ---------------------------------------------------------------------
                    Distance matrix (angstroms):
                    1          2          3          4          5
     1  C    0.000000
     2  C    1.519497   0.000000
     3  O    2.391369   1.441691   0.000000
     4  C    3.638563   2.357805   1.342968   0.000000
     5  O    4.169028   2.683823   2.263618   1.204534   0.000000
     6  C    4.713439   3.687690   2.342457   1.519086   2.417659
     7  N    6.022038   4.825278   3.632476   2.470385   2.782788
     8  C    6.995233   5.805828   4.646180   3.501109   3.649767
     9  C    8.082112   6.790775   5.722674   4.467654   4.362630
    10  N    7.955219   6.616229   5.625937   4.345218   4.152365
    11  C    6.758214   5.469346   4.438995   3.218210   3.208868
    12  N    6.562836   5.330007   4.452652   3.424188   3.425669
    13  O    7.522620   6.258845   5.534104   4.504562   4.296846
    14  O    5.654801   4.579997   3.693049   2.964479   3.274190
    15  H    1.092621   2.143801   3.339899   4.473954   4.790353
    16  H    1.094781   2.172010   2.659517   3.922802   4.568129
    17  H    1.094561   2.173025   2.665695   3.946658   4.632358
    18  H    2.176217   1.093264   2.074442   2.611783   2.590561
    19  H    2.176287   1.093579   2.067815   2.633870   2.694916
    20  H    4.769319   3.955100   2.571496   2.154709   3.171264
    21  H    4.826067   3.982074   2.630564   2.130768   3.039647
    22  H    6.994170   5.923481   4.752854   3.781187   4.048464
    23  H    9.060573   7.761840   6.721691   5.468878   5.293415
                    6          7          8          9         10
     6  C    0.000000
     7  N    1.460085   0.000000
     8  C    2.512812   1.367359   0.000000
     9  C    3.620727   2.203455   1.378036   0.000000
    10  N    3.664682   2.247772   2.248315   1.358836   0.000000
    11  C    2.564114   1.370426   2.167205   2.111740   1.313799
    12  N    3.099246   2.470821   3.555325   3.502525   2.416383
    13  O    4.303891   3.539050   4.426976   4.027854   2.719758
    14  O    2.760666   2.756667   4.065066   4.369159   3.489070
    15  H    5.681951   6.921423   7.882499   8.918613   8.751848
    16  H    4.803901   6.169585   6.998495   8.193097   8.240187
    17  H    4.829527   6.180420   7.265455   8.332357   8.106339
    18  H    4.012024   4.994115   5.783752   6.751703   6.701249
    19  H    4.026225   4.992749   6.089986   6.907278   6.524101
    20  H    1.090443   2.106132   3.253403   4.235163   4.089026
    21  H    1.093031   2.070621   2.587460   3.908145   4.293539
    22  H    2.788857   2.137231   1.077311   2.244557   3.304723
    23  H    4.636561   3.256591   2.214313   1.078979   2.129394
                   11         12         13         14         15
    11  C    0.000000
    12  N    1.436590   0.000000
    13  O    2.274147   1.220741   0.000000
    14  O    2.282176   1.234828   2.181767   0.000000
    15  H    7.581108   7.324109   8.197514   6.445350   0.000000
    16  H    7.085324   7.078432   8.123729   6.211513   1.774630
    17  H    6.843067   6.488144   7.436037   5.444571   1.774420
    18  H    5.685675   5.739051   6.633283   5.183866   2.502769
    19  H    5.367885   4.981227   5.761511   4.221828   2.511276
    20  H    2.894635   3.055795   4.264756   2.405086   5.786507
    21  H    3.390082   4.131979   5.325915   3.833467   5.826123
    22  H    3.197137   4.532099   5.469741   4.883178   7.897026
    23  H    3.140002   4.475808   4.841480   5.411037   9.881215
                   16         17         18         19         20
    16  H    0.000000
    17  H    1.769902   0.000000
    18  H    2.535088   3.089061   0.000000
    19  H    3.088540   2.528456   1.769030   0.000000
    20  H    4.917444   4.634601   4.529187   4.202637   0.000000
    21  H    4.665649   5.030930   4.178581   4.566424   1.768848
    22  H    6.831006   7.333158   5.817759   6.385563   3.587291
    23  H    9.126344   9.354867   7.642251   7.901504   5.268461
                   21         22         23
    21  H    0.000000
    22  H    2.414085   0.000000
    23  H    4.800532   2.763868   0.000000
 Stoichiometry    C7H9N3O4
 Framework group  C1[X(C7H9N3O4)]
 Deg. of freedom    63
 Full point group                 C1      NOp   1
 Largest Abelian subgroup         C1      NOp   1
 Largest concise Abelian subgroup C1      NOp   1
                         Standard orientation:                         
 ---------------------------------------------------------------------
 Center     Atomic      Atomic             Coordinates (Angstroms)
 Number     Number       Type             X           Y           Z
 ---------------------------------------------------------------------
      1          6           0       -4.828598    0.094286   -0.179942
      2          6           0       -3.508244    0.112880    0.571850
      3          8           0       -2.475399   -0.297298   -0.346549
      4          6           0       -1.237515   -0.377027    0.168088
      5          8           0       -0.954042   -0.215475    1.327591
      6          6           0       -0.264315   -0.831004   -0.906347
      7          7           0        1.112536   -0.859464   -0.421250
      8          6           0        1.849229   -1.988905   -0.194716
      9          6           0        3.063753   -1.576653    0.309232
     10          7           0        3.097703   -0.222687    0.419050
     11          6           0        1.927530    0.170647   -0.030453
     12          7           0        1.569535    1.555286   -0.166119
     13          8           0        2.319748    2.381845    0.328035
     14          8           0        0.526378    1.810768   -0.775506
     15          1           0       -5.631886    0.396291    0.496328
     16          1           0       -5.055266   -0.906319   -0.561987
     17          1           0       -4.814322    0.783439   -1.030195
     18          1           0       -3.518396   -0.569660    1.425818
     19          1           0       -3.266723    1.113190    0.941934
     20          1           0       -0.346430   -0.190215   -1.784818
     21          1           0       -0.530749   -1.849491   -1.200307
     22          1           0        1.454995   -2.969023   -0.405779
     23          1           0        3.905833   -2.184223    0.602412
 ---------------------------------------------------------------------
 Rotational constants (GHZ):           1.3631410           0.4116305           0.3477650
 Standard basis: 6-31G(2df,p) (6D, 7F)
 There are   479 symmetry adapted cartesian basis functions of A   symmetry.
 There are   437 symmetry adapted basis functions of A   symmetry.
   437 basis functions,   679 primitive gaussians,   479 cartesian basis functions
    52 alpha electrons       52 beta electrons
       nuclear repulsion energy       919.7419829259 Hartrees.
 NAtoms=   23 NActive=   23 NUniq=   23 SFac= 1.00D+00 NAtFMM=   60 NAOKFM=F Big=F
 Integral buffers will be    131072 words long.
 Raffenetti 2 integral format.
 Two-electron integral symmetry is turned on.
 One-electron integrals computed using PRISM.
 PrsmSu:  requested number of processors reduced to:  13 ShMem   1 Linda.
 NBasis=   437 RedAO= T EigKep=  1.37D-04  NBF=   437
 NBsUse=   437 1.00D-06 EigRej= -1.00D+00 NBFU=   437
 Initial guess from the checkpoint file:  "CCOCqdOrCn1ccnc1[N+]qdOr[O-].chk"
 B after Tr=     0.000000    0.000000   -0.000000
         Rot=    0.999260   -0.032361    0.002656    0.020639 Ang=  -4.41 deg.
 ExpMin= 1.61D-01 ExpMax= 5.48D+03 ExpMxC= 8.25D+02 IAcc=2 IRadAn=         4 AccDes= 0.00D+00
 Harris functional with IExCor=  402 and IRadAn=       4 diagonalized for initial guess.
 HarFok:  IExCor=  402 AccDes= 0.00D+00 IRadAn=         4 IDoV= 1 UseB2=F ITyADJ=14
 ICtDFT=  3500011 ScaDFX=  1.000000  1.000000  1.000000  1.000000
 FoFCou: FMM=F IPFlag=           0 FMFlag=      100000 FMFlg1=           0
         NFxFlg=           0 DoJE=T BraDBF=F KetDBF=T FulRan=T
         wScrn=  0.000000 ICntrl=       500 IOpCl=  0 I1Cent=   200000004 NGrid=           0
         NMat0=    1 NMatS0=      1 NMatT0=    0 NMatD0=    1 NMtDS0=    0 NMtDT0=    0
 Petite list used in FoFCou.
 Requested convergence on RMS density matrix=1.00D-08 within 128 cycles.
 Requested convergence on MAX density matrix=1.00D-06.
 Requested convergence on             energy=1.00D-06.
 No special actions if energy rises.
 Integral accuracy reduced to 1.0D-05 until final iterations.
 Initial convergence to 1.0D-05 achieved.  Increase integral accuracy.
 SCF Done:  E(RB3LYP) =  -737.264118225     A.U. after   14 cycles
            NFock= 14  Conv=0.56D-08     -V/T= 2.0067
 PrsmSu:  requested number of processors reduced to:  13 ShMem   1 Linda.
 Calling FoFJK, ICntrl=      2127 FMM=F ISym2X=0 I1Cent= 0 IOpClX= 0 NMat=1 NMatS=1 NMatT=0.
 ***** Axes restored to original set *****
 -------------------------------------------------------------------
 Center     Atomic                   Forces (Hartrees/Bohr)
 Number     Number              X              Y              Z
 -------------------------------------------------------------------
      1        6           0.000700988    0.000460532    0.001290886
      2        6          -0.004982420   -0.000822514   -0.001120321
      3        8           0.006616772   -0.001190441    0.004623985
      4        6          -0.001738709    0.004470920   -0.011394553
      5        8          -0.002514588   -0.002450614    0.005377980
      6        6           0.004212434    0.001246662    0.006119900
      7        7          -0.002603298   -0.002195875    0.002119023
      8        6           0.000840426    0.003079659   -0.000946378
      9        6           0.000548779    0.001454704   -0.002234650
     10        7          -0.005065533   -0.000272351    0.002298125
     11        6           0.003396954   -0.001588311    0.000409261
     12        7           0.004352285   -0.005603604   -0.003803193
     13        8          -0.004612932    0.002953520    0.001383766
     14        8          -0.000929716   -0.000149821    0.000014265
     15        1          -0.000788953   -0.000223764   -0.000460027
     16        1           0.000894484   -0.000321962   -0.000765378
     17        1           0.001024909   -0.000244020   -0.000695286
     18        1           0.000860389    0.000166088   -0.000020711
     19        1           0.000534075   -0.000020164   -0.000423042
     20        1           0.000326928    0.000018089   -0.001503709
     21        1           0.000087442    0.000339277    0.000072881
     22        1          -0.000759314    0.000270438   -0.000294127
     23        1          -0.000401402    0.000623552   -0.000048698
 -------------------------------------------------------------------
 Cartesian Forces:  Max     0.011394553 RMS     0.002779284

 GradGradGradGradGradGradGradGradGradGradGradGradGradGradGradGradGradGrad
 Berny optimization.
 Using GEDIIS/GDIIS optimizer.
 FormGI is forming the generalized inverse of G from B-inverse, IUseBI=4.
 Internal  Forces:  Max     0.005421945 RMS     0.001598664
 Search for a local minimum.
 Step number   2 out of a maximum of  117
 All quantities printed in internal units (Hartrees-Bohrs-Radians)
 Mixed Optimization -- RFO/linear search
 Update second derivatives using D2CorX and points    1    2
 DE= -5.66D-03 DEPred=-7.06D-03 R= 8.01D-01
 TightC=F SS=  1.41D+00  RLast= 3.80D-01 DXNew= 5.0454D-01 1.1415D+00
 Trust test= 8.01D-01 RLast= 3.80D-01 DXMaxT set to 5.05D-01
 ITU=  1  0
 Use linear search instead of GDIIS.
     Eigenvalues ---    0.00551   0.00563   0.00889   0.01074   0.01097
     Eigenvalues ---    0.01166   0.01283   0.01480   0.01821   0.02086
     Eigenvalues ---    0.02174   0.02193   0.02313   0.02566   0.05150
     Eigenvalues ---    0.05369   0.05613   0.05727   0.05814   0.06599
     Eigenvalues ---    0.09793   0.11074   0.13069   0.13611   0.15851
     Eigenvalues ---    0.16000   0.16000   0.16000   0.16143   0.21601
     Eigenvalues ---    0.22075   0.22613   0.23402   0.24926   0.24927
     Eigenvalues ---    0.24958   0.24984   0.25000   0.25000   0.26406
     Eigenvalues ---    0.30720   0.30911   0.34019   0.34073   0.34185
     Eigenvalues ---    0.34231   0.34271   0.34318   0.34343   0.35480
     Eigenvalues ---    0.35697   0.36833   0.39211   0.39703   0.43565
     Eigenvalues ---    0.45815   0.49590   0.49984   0.51472   0.59043
     Eigenvalues ---    0.82103   0.86841   0.89904
 RFO step:  Lambda=-3.00680673D-03 EMin= 5.51013585D-03
 Quartic linear search produced a step of -0.05980.
 Iteration  1 RMS(Cart)=  0.11042869 RMS(Int)=  0.00332959
 Iteration  2 RMS(Cart)=  0.00788168 RMS(Int)=  0.00144059
 Iteration  3 RMS(Cart)=  0.00001043 RMS(Int)=  0.00144058
 Iteration  4 RMS(Cart)=  0.00000000 RMS(Int)=  0.00144058
 Variable       Old X    -DE/DX   Delta X   Delta X   Delta X     New X
                                 (Linear)    (Quad)   (Total)
    R1        2.87143  -0.00189  -0.00037  -0.00346  -0.00383   2.86760
    R2        2.06475   0.00079   0.00026   0.00054   0.00080   2.06556
    R3        2.06884  -0.00069  -0.00005  -0.00156  -0.00161   2.06723
    R4        2.06842  -0.00073  -0.00003  -0.00184  -0.00186   2.06656
    R5        2.72440   0.00291  -0.00023   0.00836   0.00813   2.73253
    R6        2.06597   0.00037   0.00036  -0.00124  -0.00088   2.06509
    R7        2.06656   0.00024   0.00038  -0.00168  -0.00130   2.06526
    R8        2.53784  -0.00476   0.00229  -0.02296  -0.02067   2.51718
    R9        2.27624  -0.00505   0.00275  -0.02252  -0.01977   2.25647
   R10        2.87066   0.00299  -0.00039   0.01155   0.01116   2.88182
   R11        2.75916  -0.00535   0.00021  -0.01499  -0.01479   2.74437
   R12        2.06064  -0.00130   0.00050  -0.00672  -0.00622   2.05442
   R13        2.06553   0.00029   0.00024  -0.00069  -0.00045   2.06508
   R14        2.58393   0.00148   0.00115  -0.00418  -0.00302   2.58092
   R15        2.58973   0.00039   0.00064  -0.00346  -0.00291   2.58682
   R16        2.60411  -0.00116  -0.00006  -0.00149  -0.00146   2.60265
   R17        2.03582   0.00059   0.00058  -0.00209  -0.00151   2.03431
   R18        2.56783   0.00283   0.00117  -0.00213  -0.00092   2.56691
   R19        2.03897   0.00003   0.00057  -0.00351  -0.00294   2.03604
   R20        2.48272  -0.00255   0.00074  -0.00879  -0.00813   2.47459
   R21        2.71476   0.00275   0.00094   0.00074   0.00168   2.71644
   R22        2.30687  -0.00542   0.00177  -0.01689  -0.01513   2.29174
   R23        2.33349   0.00094   0.00070  -0.00339  -0.00269   2.33080
    A1        1.90628   0.00101   0.00154  -0.00402  -0.00248   1.90380
    A2        1.94309  -0.00097  -0.00069  -0.00122  -0.00191   1.94118
    A3        1.94474  -0.00116  -0.00064  -0.00264  -0.00328   1.94147
    A4        1.89273  -0.00008   0.00021  -0.00204  -0.00185   1.89088
    A5        1.89268   0.00001   0.00019  -0.00137  -0.00119   1.89149
    A6        1.88292   0.00122  -0.00062   0.01139   0.01079   1.89371
    A7        1.87954   0.00015   0.00212  -0.01236  -0.01019   1.86935
    A8        1.95062   0.00070  -0.00274   0.02177   0.01898   1.96960
    A9        1.95038   0.00026  -0.00248   0.01839   0.01585   1.96624
   A10        1.90352  -0.00061   0.00069  -0.00962  -0.00889   1.89463
   A11        1.89400  -0.00007   0.00106  -0.00653  -0.00545   1.88855
   A12        1.88470  -0.00046   0.00141  -0.01286  -0.01161   1.87309
   A13        2.01876   0.00105  -0.00301   0.02273   0.01972   2.03848
   A14        2.18688   0.00153  -0.00132   0.02121   0.01126   2.19814
   A15        1.91476  -0.00237   0.00252  -0.01789  -0.02391   1.89085
   A16        2.17750   0.00115  -0.00096   0.01664   0.00717   2.18467
   A17        1.95515  -0.00131  -0.00087  -0.00139  -0.00223   1.95292
   A18        1.92404  -0.00053   0.00200  -0.02130  -0.01922   1.90482
   A19        1.88865   0.00089   0.00143  -0.00084   0.00060   1.88924
   A20        1.92850   0.00061  -0.00384   0.02302   0.01915   1.94765
   A21        1.87659   0.00033   0.00050   0.00149   0.00196   1.87855
   A22        1.88867   0.00008   0.00079  -0.00087  -0.00014   1.88853
   A23        2.18854  -0.00214  -0.00014  -0.00769  -0.00782   2.18073
   A24        2.26646  -0.00071  -0.00183   0.00817   0.00631   2.27277
   A25        1.82681   0.00282   0.00200  -0.00206  -0.00047   1.82634
   A26        1.86327  -0.00172  -0.00138   0.00270   0.00120   1.86447
   A27        2.11983   0.00027   0.00199  -0.01295  -0.01090   2.10893
   A28        2.30008   0.00145  -0.00063   0.01026   0.00968   2.30976
   A29        1.92801  -0.00070   0.00046  -0.00486  -0.00452   1.92349
   A30        2.23795  -0.00040  -0.00021  -0.00203  -0.00221   2.23573
   A31        2.11720   0.00111  -0.00025   0.00697   0.00675   2.12395
   A32        1.82183   0.00244   0.00088   0.00323   0.00375   1.82559
   A33        1.98473  -0.00282  -0.00196   0.00127  -0.00100   1.98373
   A34        2.15240  -0.00064   0.00184  -0.01356  -0.01154   2.14086
   A35        2.14459   0.00348   0.00020   0.01225   0.01264   2.15724
   A36        2.05019   0.00182   0.00018   0.00557   0.00522   2.05541
   A37        2.04489  -0.00096   0.00029  -0.00547  -0.00571   2.03918
   A38        2.18810  -0.00086  -0.00051  -0.00016  -0.00120   2.18691
    D1        3.13578  -0.00011  -0.00033   0.00289   0.00255   3.13833
    D2        1.04546   0.00013  -0.00085   0.00969   0.00888   1.05434
    D3       -1.06893   0.00005   0.00079  -0.00215  -0.00140  -1.07033
    D4        1.04614  -0.00006  -0.00116   0.00879   0.00763   1.05376
    D5       -1.04418   0.00018  -0.00167   0.01559   0.01396  -1.03023
    D6        3.12462   0.00010  -0.00003   0.00375   0.00368   3.12829
    D7       -1.05679  -0.00016   0.00051  -0.00308  -0.00257  -1.05935
    D8        3.13608   0.00008  -0.00001   0.00372   0.00376   3.13984
    D9        1.02169   0.00000   0.00164  -0.00812  -0.00652   1.01517
   D10       -3.10731  -0.00019   0.00087  -0.01244  -0.01158  -3.11889
   D11       -0.98736   0.00038  -0.00076   0.00084   0.00007  -0.98729
   D12        1.06175  -0.00055   0.00198  -0.02356  -0.02155   1.04020
   D13        0.08352  -0.00226  -0.00207  -0.13872  -0.14078  -0.05726
   D14        3.13211   0.00129   0.00398   0.09046   0.09443  -3.05664
   D15        3.08288  -0.00212  -0.00238  -0.13187  -0.13385   2.94903
   D16        0.92773  -0.00160   0.00174  -0.14509  -0.14299   0.78474
   D17       -1.13461  -0.00192  -0.00138  -0.13139  -0.13238  -1.26699
   D18       -0.15111   0.00144   0.00363   0.09611   0.09939  -0.05172
   D19       -2.30626   0.00196   0.00776   0.08290   0.09024  -2.21601
   D20        1.91459   0.00164   0.00463   0.09660   0.10085   2.01544
   D21        1.91872   0.00044   0.00673  -0.02903  -0.02226   1.89646
   D22       -1.15775   0.00106   0.00591   0.00844   0.01438  -1.14338
   D23       -2.21183  -0.00073   0.00603  -0.04076  -0.03480  -2.24663
   D24        0.99489  -0.00010   0.00520  -0.00329   0.00184   0.99673
   D25       -0.15412  -0.00010   0.00517  -0.02814  -0.02293  -0.17705
   D26        3.05260   0.00052   0.00435   0.00933   0.01370   3.06630
   D27       -3.09651   0.00004   0.00096  -0.00325  -0.00244  -3.09896
   D28        0.04400   0.00003  -0.00035   0.00607   0.00555   0.04955
   D29       -0.00658  -0.00053   0.00153  -0.03258  -0.03104  -0.03762
   D30        3.13393  -0.00053   0.00022  -0.02326  -0.02304   3.11089
   D31        3.08400   0.00061   0.00018   0.01948   0.01949   3.10349
   D32       -0.11431   0.00107   0.00297   0.01917   0.02199  -0.09231
   D33       -0.00272   0.00126  -0.00049   0.05130   0.05079   0.04806
   D34        3.08215   0.00172   0.00230   0.05099   0.05330   3.13545
   D35        0.01365  -0.00033  -0.00209   0.00628   0.00419   0.01784
   D36       -3.13615   0.00023  -0.00161   0.01895   0.01734  -3.11881
   D37       -3.12670  -0.00032  -0.00065  -0.00436  -0.00508  -3.13178
   D38        0.00669   0.00024  -0.00016   0.00831   0.00807   0.01476
   D39       -0.01485   0.00101   0.00178   0.02392   0.02569   0.01085
   D40        3.13429   0.00050   0.00134   0.01231   0.01358  -3.13532
   D41        0.01083  -0.00143  -0.00078  -0.04690  -0.04773  -0.03690
   D42       -3.07434  -0.00173  -0.00357  -0.04564  -0.04936  -3.12370
   D43        3.02638   0.00096   0.00185   0.05734   0.05918   3.08556
   D44       -0.11626  -0.00004  -0.00035   0.00149   0.00116  -0.11510
   D45       -0.17705   0.00125   0.00488   0.05654   0.06140  -0.11565
   D46        2.96349   0.00025   0.00268   0.00069   0.00338   2.96687
[...]
 74181,0.00061172,0.00125655,0.00070983,-0.00599775,-0.00079313,0.00168
 008,0.00256857,-0.00018166,-0.00304309,-0.00135202,-0.00012652,-0.0007
 9545,-0.00307751,0.00003891,0.00156152,-0.00400928,0.00097816,-0.04742
 002,-0.00733494,0.00049620,-0.09292904,-0.14670701,0.00299094,0.062710
 98,0.03138225,0.00236197,0.07664951,0.14280839,0.00003735,0.00005147,-
 0.00001911,0.00040255,-0.00014761,0.00024877,-0.00080766,0.00012911,0.
 00031317,0.00231475,-0.00111515,-0.00218272,-0.00133658,0.00253930,0.0
 0016079,0.00039915,0.00003041,-0.00083436,0.00000412,0.00048328,0.0003
 6810,-0.00041444,-0.00017933,0.00017001,0.00049041,-0.00043000,-0.0012
 4721,0.00004278,0.00117042,0.00480533,0.00176666,0.00059917,0.01799082
 ,-0.00993232,0.00465402,-0.07828460,-0.01174983,0.00043544,0.02646497,
 0.01958353,-0.00812380,0.03207760,-0.09502874,-0.04185131,-0.09070093,
 -0.00877080,-0.01152438,-0.02805384,-0.01015867,-0.00167856,0.00027631
 ,0.00194216,-0.00073696,-0.00235357,-0.00051487,0.00028230,0.00090200,
 -0.00040093,0.00001702,0.00017323,-0.00023932,-0.00013612,-0.00021290,
 0.00009182,0.00015285,-0.00003031,-0.00006822,0.00008072,-0.00000169,-
 0.00016424,-0.00005593,0.00000075,0.00017266,-0.00011698,0.00003179,0.
 00010627,-0.00016887,0.00002002,-0.00007016,0.00010611,-0.00000663,-0.
 00006304,0.00007094,-0.00002886,0.10304958,-0.04276947,-0.08355440,-0.
 08268028,-0.00030323,-0.00329945,-0.00256232,-0.00112621,0.00102332,0.
 00023075,0.00042928,0.00044674,-0.00030708,-0.00015976,-0.00008801,0.0
 0019123,0.00002476,-0.00010169,0.00005975,-0.00003992,-0.00001046,-0.0
 0001168,0.00002038,0.00002987,-0.00000437,-0.00000959,0.00001440,-0.00
 000062,-0.00003366,-0.00000708,-0.00000296,0.00003426,-0.00002608,0.00
 001057,0.00002328,-0.00002315,0.00000664,-0.00001085,0.00001541,-0.000
 00286,-0.00001442,0.00001298,-0.00001171,0.04739631,0.08704053,-0.0931
 9821,-0.08305852,-0.22782527,0.00216890,0.00240444,0.00312188,0.001797
 35,0.00045982,0.00148263,0.00057002,0.00014345,0.00072918,-0.00028736,
 0.00001504,-0.00000621,0.00021397,0.00004474,-0.00003261,-0.00001680,0
 .00002731,0.00005235,0.00001413,0.00001638,0.00000384,0.00000640,0.000
 00032,-0.00000184,-0.00001729,0.00000552,-0.00000429,0.00002275,-0.000
 02922,0.00000963,0.00010212,-0.00002259,0.00000897,-0.00004858,0.00003
 827,-0.00000517,-0.00007477,0.00000066,-0.00000438,0.10195331,0.091260
 79,0.24543530,-0.09251132,0.09621229,0.02190849,-0.01673872,0.03304536
 ,0.00761764,0.00365374,-0.00019842,0.00053668,-0.00083214,0.00007462,0
 .00082527,0.00008013,-0.00045791,-0.00077724,-0.00000773,0.00006692,-0
 .00002128,0.00003710,0.00000293,-0.00001068,-0.00002566,-0.00000900,0.
 00000017,0.00001635,-0.00002318,0.00000330,0.00002649,0.00000470,-0.00
 000340,-0.00001316,-0.00000847,0.00001492,0.00008757,0.00006791,0.0000
 1188,-0.00001746,-0.00001488,-0.00000365,-0.00005873,-0.00004322,-0.00
 004337,0.00612387,-0.01324256,-0.00188771,0.10266061,0.09869105,-0.257
 21303,-0.04630533,-0.00253341,0.00431377,0.00056961,0.00072052,0.00080
 727,0.00074557,-0.00013344,0.00012791,0.00022759,-0.00012437,-0.000075
 62,-0.00000248,0.00004628,-0.00004190,-0.00001819,0.00001864,0.0000063
 8,0.00003494,0.00000893,-0.00000275,0.00000534,-0.00000701,0.00000783,
 -0.00000175,0.00000189,-0.00000019,0.00000159,-0.00000139,0.00002382,-
 0.00000724,-0.00007523,-0.00003778,-0.00000654,0.00002541,0.00000121,0
 .00000442,0.00005465,0.00002710,0.00001959,0.00441847,-0.00992641,-0.0
 0100969,-0.10792233,0.27659396,0.02311795,-0.04553965,-0.05804609,0.00
 161289,-0.00574138,-0.00269678,0.00021293,0.00101647,0.00076622,-0.000
 55790,-0.00008342,0.00004182,0.00024204,0.00007962,-0.00015790,-0.0000
 2801,-0.00002696,0.00000997,0.00006952,0.00001309,0.00002535,-0.000028
 08,-0.00005128,0.00000195,0.00001463,-0.00001995,0.00000083,0.00005363
 ,0.00001147,0.00000256,-0.00005466,0.00004523,-0.00001383,-0.00005542,
 0.00004661,-0.00001114,0.00002690,-0.00003501,0.00000451,0.00003454,-0
 .00002411,0.00001511,0.01228280,-0.02327689,-0.00476275,-0.02663294,0.
 05136237,0.05808957,-0.05458818,-0.02614249,0.03273548,-0.00762208,-0.
 02361202,0.02889654,0.00339942,0.00142629,0.00007365,-0.00079848,0.000
 25293,0.00078447,-0.00001472,-0.00011493,-0.00084681,0.00002552,-0.000
 04205,0.00001521,0.00002419,-0.00001368,-0.00000781,0.00003363,0.00001
 733,-0.00000249,-0.00001500,0.00002689,-0.00000324,-0.00001061,-0.0000
 0791,-0.00000373,0.00002730,0.00002431,0.00000636,-0.00014595,-0.00008
 483,0.00001201,0.00005762,-0.00000131,0.00000278,0.00011461,0.00006295
 ,-0.00001211,0.00205071,0.00990389,-0.01013763,0.00189690,0.00765267,-
 0.01113497,0.06036738,-0.02729840,-0.15246444,0.12722891,-0.00115939,-
 0.00224976,0.00178167,0.00064793,0.00023486,0.00005123,-0.00054970,0.0
 0003700,0.00003234,0.00029403,-0.00012134,-0.00027765,-0.00004245,-0.0
 0003079,0.00003917,0.00003907,0.00001160,-0.00001518,-0.00000572,-0.00
 002687,-0.00000301,0.00000695,-0.00000357,0.00000005,0.00002483,0.0000
 0394,-0.00000210,-0.00002362,0.00002811,0.00000197,-0.00005836,0.00001
 687,0.00000325,0.00003082,-0.00002593,-0.00000011,0.00004463,-0.000006
 28,-0.00001854,0.00318324,0.00826968,-0.01027165,-0.00520855,-0.016769
 55,0.02223169,0.03080098,0.16093781,0.03554900,0.12707203,-0.20189511,
 0.00022307,0.00243927,-0.00523339,0.00043035,-0.00026150,0.00152970,-0
 .00041604,-0.00003647,0.00011159,0.00010665,-0.00005120,-0.00000638,-0
 .00001567,0.00005896,-0.00002670,0.00006293,0.00003816,0.00003280,-0.0
 0004119,-0.00005262,0.00000594,0.00002160,-0.00003246,0.00000302,0.000
 05573,0.00001484,0.00000458,-0.00006482,0.00002833,-0.00001255,-0.0000
 1022,0.00010135,-0.00001562,0.00001922,-0.00005183,0.00000514,0.000001
 78,-0.00005110,0.00001014,0.00503570,0.01681440,-0.01875989,-0.0018613
 2,-0.00521354,0.00582521,-0.03998870,-0.14009961,0.21715519,-0.0066059
 1,-0.02189392,0.02475480,-0.06021698,-0.03564448,0.04294953,-0.0022455
 9,0.00690030,-0.01696524,0.00509247,0.00066749,-0.00367034,-0.00094220
 ,0.00048439,0.00209626,0.00004001,-0.00079168,0.00021839,-0.00010486,-
 0.00008472,-0.00001663,-0.00000013,0.00004847,-0.00000416,-0.00002212,
 0.00001200,0.00000172,-0.00005993,-0.00000951,0.00000078,0.00003908,-0
 .00005274,-0.00000323,0.00010610,-0.00001123,-0.00000705,-0.00005587,0
 .00004252,-0.00000716,-0.00008726,0.00000273,-0.00000896,0.00108067,0.
 00011812,-0.00065977,0.00166253,0.00062764,-0.00020121,-0.00645893,-0.
 00032300,0.00073044,0.06538663,0.00027004,-0.00099578,0.00128689,-0.03
 301685,-0.16384447,0.12702022,0.00058245,0.01171944,-0.01704079,0.0005
 4319,0.00146428,0.00030030,-0.00080650,-0.00020301,-0.00097676,0.00018
 926,-0.00068513,0.00000269,-0.00001343,-0.00011370,0.00001263,0.000054
 44,0.00009283,0.00000225,-0.00004266,0.00005100,-0.00000460,-0.0000699
 7,-0.00002589,-0.00001403,0.00010091,-0.00002255,0.00002766,-0.0001170
 2,-0.00016509,0.00001806,0.00002190,0.00005006,-0.00000391,0.00008000,
 0.00010518,0.00000915,-0.00034850,-0.00000065,-0.00004645,-0.00043039,
 0.00090755,-0.00050016,-0.00052772,0.00144774,-0.00052390,0.03962138,0
 .16763374,0.00150828,0.00252312,-0.00058805,0.03928392,0.12062159,-0.1
 8524462,-0.00810807,0.00860332,-0.03669465,0.00891510,0.00087891,-0.00
 227692,-0.00203659,0.00055193,0.00289597,-0.00007427,-0.00038456,-0.00
 018413,-0.00026009,-0.00022024,-0.00007309,0.00003667,0.00018122,-0.00
 000992,-0.00006310,0.00004406,-0.00000138,-0.00016128,-0.00003894,-0.0
 0000725,0.00017637,-0.00016219,0.00004229,0.00022022,-0.00011075,0.000
 02003,-0.00011477,0.00011216,-0.00001406,-0.00015963,0.00004132,0.0000
 0157,0.00060547,0.00018099,0.00029747,-0.00021667,-0.00011013,-0.00007
 028,0.00004371,0.00003337,0.00118702,-0.03960841,-0.13061902,0.2146573
 9,-0.01454154,0.02872852,0.00522371,-0.10362868,0.10868156,0.02162713,
 0.00282118,-0.01750602,-0.00764922,0.00444842,-0.00187059,-0.00246467,
 -0.00100889,0.00045543,0.00145778,-0.00005033,0.00072017,-0.00018246,-
 0.00012587,0.00000641,-0.00011256,0.00003957,0.00005693,-0.00000960,-0
 .00002939,0.00003570,-0.00000517,-0.00008180,-0.00001919,0.00001017,0.
 00004812,-0.00006573,-0.00000116,0.00001963,-0.00005570,-0.00000243,-0
 .00003199,0.00003248,-0.00000144,-0.00001636,0.00003096,0.00003737,0.0
 0092463,-0.00023896,-0.00053905,-0.00599002,-0.00150697,0.00103178,0.0
 0168173,-0.00036719,0.00013533,0.00353545,-0.00599961,0.00019007,0.112
 04866,-0.00267776,0.00626245,0.00195866,0.10333523,-0.25175468,-0.0361
 9075,-0.00421274,-0.01117728,-0.01207188,0.00632396,0.00026288,-0.0028
 3081,-0.00095660,0.00121938,0.00283041,-0.00012020,-0.00013559,0.00014
 846,-0.00019726,-0.00003465,-0.00009334,0.00006596,0.00007992,-0.00001
 791,-0.00004968,0.00006006,-0.00000917,-0.00011366,-0.00002278,0.00000
 954,0.00008390,-0.00005452,-0.00000924,-0.00006053,-0.00012862,-0.0000
 1990,-0.00001399,0.00005589,0.00000095,0.00003061,0.00007165,0.0000506
 0,0.00091142,0.00018494,0.00001993,-0.00189335,0.00125232,0.00048929,0
 .00040080,0.00071238,-0.00019255,0.01029301,-0.01734774,-0.00211011,-0
 .11115172,0.27041469,0.00312116,-0.00341025,0.00035513,0.01842783,-0.0
 3008343,-0.05613618,0.00209751,-0.03503631,-0.01961266,0.00661019,-0.0
 0038432,-0.00055289,-0.00189006,0.00020183,0.00135441,0.00003242,0.000
 42579,-0.00023796,-0.00026694,-0.00003265,-0.00018689,0.00017669,0.000
 22356,-0.00001353,-0.00010846,0.00014658,-0.00001826,-0.00023269,-0.00
 006561,-0.00000381,0.00022487,-0.00012944,0.00003630,-0.00023784,-0.00
 034005,0.00005832,0.00004864,0.00009486,-0.00001282,0.00020077,0.00022
 553,0.00005960,0.00010766,0.00012098,0.00027035,0.00058838,-0.00029005
 ,0.00096546,-0.00039589,-0.00070895,0.00007197,-0.00964428,0.02111414,
 0.00590194,-0.01883080,0.04785207,0.06760820,0.00004045,0.00000438,-0.
 00004147,0.00036361,0.00060530,0.00031522,-0.00173614,-0.00147688,-0.0
 0120559,0.00580475,0.00661089,-0.00258613,0.00019945,-0.00204622,-0.00
 187779,-0.09400173,-0.05768061,0.08204454,-0.02640763,-0.02145674,0.02
 216490,-0.00052345,0.00449822,0.00180780,-0.00229662,0.00085517,-0.000
 72574,-0.00178996,-0.00192233,-0.00053920,0.00272608,-0.00061262,0.000
 63528,-0.00405447,-0.00150192,0.00039230,0.00100694,0.00016708,0.00018
 937,0.00251307,0.00062992,-0.00092305,-0.00002662,-0.00000341,0.000016
 02,-0.00001444,0.00001413,-0.00000528,-0.00002440,-0.00003369,0.000011
 22,-0.00005219,-0.00005028,-0.00009471,0.00001366,0.00002015,0.0000326
 4,0.11333573,0.00001481,0.00002348,0.00000728,0.00023808,-0.00008745,0
 .00017727,-0.00003234,-0.00061055,0.00017656,0.00564683,0.00863251,-0.
 01036075,0.00008243,-0.00305666,-0.00317707,-0.06460082,-0.11809629,0.
 11131002,-0.00016873,0.00213902,-0.00327502,-0.00106678,-0.00017119,0.
 00017412,0.00048300,-0.00081072,0.00004618,0.00080320,0.00064632,0.000
 40099,-0.00032373,-0.00080484,-0.00104045,0.00334408,0.00145111,0.0000
 7506,-0.00092141,0.00019223,0.00008511,-0.00044206,-0.00448344,-0.0001
 5980,0.00000370,-0.00000691,-0.00001369,0.00001219,-0.00001520,0.00002
 207,-0.00002171,0.00000852,0.00000673,0.00004965,0.00000393,-0.0000116
 3,-0.00002996,0.00000347,-0.00007603,0.06873940,0.12867763,0.00002460,
 0.00003249,0.00004307,-0.00026080,-0.00086121,0.00003800,-0.00055874,-
 0.00102253,0.00237725,0.01480711,0.01719598,-0.02260566,-0.00198945,-0
 .00457692,-0.00361155,0.08789100,0.11105587,-0.20264242,-0.00350612,-0
 .00501289,0.00739137,-0.00142293,-0.00017149,0.00003215,-0.00018964,-0
 .00036544,-0.00029024,0.00009708,-0.00010128,-0.00016361,0.00015304,0.
 00047193,0.00057488,0.00149647,0.00061087,0.00032644,-0.00096116,0.000
 28719,-0.00035767,-0.00185666,0.00119271,0.00021906,0.00001203,0.00000
 804,-0.00000391,-0.00002699,0.00000162,-0.00000491,-0.00003357,-0.0000
 2362,-0.00000409,0.00019087,0.00008691,0.00025691,-0.00004227,0.000126
 96,-0.00001319,-0.09169530,-0.11667616,0.21513738,0.00005805,-0.000031
 94,-0.00005456,0.00032997,0.00024969,0.00030317,-0.00161433,0.00040137
 ,-0.00114741,0.00437408,-0.00707640,0.00380500,0.00011151,0.00032006,-
 0.00133510,-0.06710703,0.06133120,0.00213604,-0.02204164,0.03867681,-0
 .00024746,0.00172490,0.00228891,-0.00038912,0.00002756,0.00088799,0.00
 003283,-0.00306732,0.00063348,-0.00071278,-0.00098839,-0.00473239,0.00
 128689,-0.00181677,-0.00107384,-0.00008785,0.00056822,0.00027985,0.000
 03132,0.00159044,-0.00046415,0.00009760,-0.00003519,-0.00000050,0.0000
 0232,-0.00003163,0.00002061,0.00000046,-0.00000108,-0.00000169,0.00001
 416,-0.00009125,-0.00003823,-0.00007464,-0.00007316,-0.00002208,-0.000
 05977,0.00510682,-0.01187548,-0.00206513,0.08332505,0.00001455,-0.0000
 3170,-0.00002389,-0.00037564,0.00025841,-0.00045690,-0.00067416,0.0010
 2866,-0.00032105,0.00405985,-0.01130581,-0.00075060,-0.00124969,0.0007
 2382,-0.00053332,0.07542847,-0.29134256,-0.01223650,0.00009777,-0.0000
 6679,0.00066744,-0.00190346,0.00113602,0.00001426,0.00017626,0.0004766
 6,0.00011499,-0.00054607,0.00020306,-0.00014933,-0.00136353,0.00084795
 ,-0.00014564,-0.00181152,-0.00079570,0.00001943,0.00064547,-0.00011706
 ,0.00005935,0.00181149,-0.00123753,0.00007779,-0.00001644,0.00000447,0
 .00001088,-0.00003220,0.00001541,-0.00001446,-0.00000466,-0.00000843,0
 .00000075,-0.00006389,-0.00008409,-0.00001628,0.00005845,0.00006945,0.
 00013353,0.00458597,-0.01386271,-0.00233034,-0.07883657,0.31350057,0.0
 0003141,0.00002263,-0.00002608,-0.00018312,0.00078687,-0.00042761,-0.0
 0082903,0.00174887,-0.00014136,0.01019459,-0.03065315,-0.00036336,-0.0
 0131033,0.00275110,-0.00457793,0.00475779,-0.01825479,-0.04621822,-0.0
 0252579,0.00460025,-0.00071519,0.00011094,-0.00018797,0.00011654,0.000
 23081,-0.00009016,-0.00014111,-0.00029155,0.00042867,0.00022782,-0.000
 40651,-0.00069349,0.00043216,0.00079872,0.00022025,0.00021451,-0.00032
 766,0.00014287,-0.00033542,-0.00098588,0.00108716,0.00076133,-0.000013
 03,-0.00002279,-0.00000420,-0.00002305,-0.00000478,0.00001105,-0.00000
 980,0.00000957,0.00001495,-0.00013860,-0.00015419,-0.00008113,0.000128
 06,0.00005734,0.00010568,-0.00761118,0.02209182,0.00324583,-0.00166851
 ,0.01604926,0.04751517,0.00000100,0.00000104,0.00001231,-0.00003292,-0
 .00003967,-0.00006321,0.00007401,0.00005825,0.00012868,0.00005959,-0.0
 0011650,-0.00034497,-0.00010758,0.00004809,0.00014213,0.00191251,-0.00
 078479,0.00028340,0.00922826,-0.02403504,0.00312193,-0.10785990,0.1153
 5864,-0.01690170,0.00717393,0.02079994,-0.00182806,-0.00411504,0.00511
 996,-0.00113670,-0.00661102,-0.00230108,-0.00023028,0.00043081,-0.0003
 7174,-0.00012261,0.00033425,-0.00049125,0.00012548,0.00032597,-0.00004
 520,0.00003525,0.00000711,0.00000405,0.00000234,-0.00000423,0.00000055
 ,-0.00000379,-0.00000082,-0.00000170,-0.00000221,0.00000624,0.00000132
 ,0.00000732,0.00000284,0.00000860,0.00000880,0.00004255,0.00008975,0.0
 0001690,-0.00036905,0.00001581,0.00008266,0.09971854,-0.00000221,0.000
 00691,0.00000693,-0.00007056,-0.00006138,-0.00006752,0.00019170,0.0000
 1212,0.00004522,-0.00046588,-0.00013631,-0.00025861,0.00002818,0.00015
 731,0.00007407,0.00211807,0.00019227,-0.00014637,0.01200027,-0.0183645
 1,0.00226191,0.10426393,-0.30510347,0.03631524,-0.00261503,0.00068757,
 -0.00042507,0.00042588,0.00061674,0.00075831,-0.00290830,-0.00093151,0
 .00030181,0.00087687,-0.00016060,0.00036936,-0.00021883,-0.00052094,-0
 .00005685,-0.00014912,0.00002450,-0.00003306,0.00000751,0.00000133,0.0
 0000577,-0.00000188,-0.00000324,-0.00000302,0.00000246,-0.00000076,-0.
 00000694,0.00000650,0.00000848,0.00000855,0.00000438,0.00000457,0.0000
 1217,-0.00012711,0.00023832,0.00005108,-0.00086302,0.00058220,0.000082
 84,-0.11283131,0.32300702,-0.00000644,-0.00000304,-0.00001559,-0.00003
 786,-0.00001318,0.00002712,0.00002949,-0.00003829,-0.00016708,-0.00032
 142,-0.00030836,0.00066581,0.00018646,0.00015158,-0.00037232,-0.000076
 39,-0.00007237,-0.00217615,-0.00032503,0.00049973,-0.00283647,-0.01613
 067,0.03676773,-0.02909058,0.00082948,0.00084381,-0.00141566,-0.000628
 46,0.00090696,0.00681023,-0.00026570,0.00026654,0.00305722,-0.00012001
 ,0.00033643,0.00289013,0.00006326,-0.00007714,-0.00093249,-0.00001797,
 -0.00001018,-0.00025122,-0.00000309,-0.00000091,0.00000068,0.00000042,
 -0.00000173,0.00000354,0.00000492,0.00000503,-0.00000234,-0.00000631,0
 .00000089,-0.00001404,-0.00000076,0.00000104,-0.00000162,0.00012138,0.
 00021763,0.00013117,0.00013001,-0.00013422,0.00046247,0.01653475,-0.03
 918449,0.02469781,-0.00000207,-0.00000705,-0.00001552,0.00003493,0.000
 03135,0.00007361,-0.00015703,-0.00008264,-0.00019165,-0.00005175,0.000
 09882,0.00039113,0.00002508,-0.00003588,-0.00014963,0.00032789,-0.0008
 8181,0.00011233,-0.00372269,0.00269613,-0.00097590,-0.01012992,-0.0163
 6481,0.00118318,-0.27753099,-0.13239336,-0.00086544,0.00755298,0.00100
 922,0.00066687,0.00123741,0.00159030,-0.00048043,0.00053528,-0.0000332
 1,-0.00008392,-0.00007538,-0.00012037,0.00001490,0.00016881,0.00010766
 ,0.00004566,-0.00000869,-0.00000180,-0.00000248,-0.00000005,0.00000273
 ,0.00000219,0.00000123,0.00000093,0.00000300,-0.00000597,-0.00000375,-
 0.00001492,-0.00000586,-0.00000408,-0.00001083,-0.00022545,-0.00002409
 ,-0.00008033,0.00002024,-0.00001625,-0.00001095,-0.00021705,0.00032750
 ,0.00003995,0.28222904,-0.00000118,0.00000314,0.00000941,0.00000659,-0
 .00001751,-0.00000829,0.00006246,0.00003869,0.00008657,0.00011797,-0.0
 0007887,-0.00013340,-0.00001606,0.00005618,0.00002871,-0.00000991,0.00
 088307,0.00002630,0.00347277,-0.00044307,0.00090208,0.00994460,0.01053
 063,-0.00065442,-0.12956646,-0.13317520,0.00293600,-0.02701927,-0.0173
 2337,-0.00040699,0.00113002,-0.00592856,0.00135379,-0.00122750,0.00072
 047,0.00008016,-0.00007513,-0.00003507,-0.00002017,-0.00054940,-0.0007
 2455,-0.00003074,0.00000345,0.00000063,-0.00000152,-0.00000056,0.00000
 115,-0.00000160,0.00000182,-0.00000079,-0.00000108,0.00000095,0.000003
 89,0.00000329,0.00000064,0.00000180,0.00000605,0.00018119,-0.00001058,
 0.00002021,-0.00007369,0.00000568,-0.00001818,-0.00048772,-0.00025661,
 -0.00015345,0.14410442,0.14574883,-0.00000025,0.00000362,0.00000996,0.
 00001581,-0.00000507,-0.00000818,0.00008910,0.00003452,0.00008707,0.00
 028395,0.00001622,0.00000264,-0.00001077,-0.00001407,-0.00007968,-0.00
 022644,-0.00000603,0.00174289,-0.00073893,0.00063833,0.00531863,-0.001
 41362,-0.00220613,-0.00111260,-0.00127120,0.00283654,-0.03022308,0.003
 55025,0.00128539,-0.00579362,-0.00050396,0.00143166,0.00642494,0.00006
 586,0.00016667,0.00214617,0.00000576,-0.00003358,-0.00018830,0.0000910
 9,0.00001764,-0.00084277,0.00000376,0.00000033,-0.00000178,0.00000115,
 -0.00000119,0.00000053,0.00000163,0.00000217,-0.00000115,-0.00000142,0
 .00000200,-0.00000106,0.00000019,0.00000040,0.00000247,-0.00042524,-0.
 00000022,-0.00007629,0.00000254,-0.00003514,-0.00007589,0.00013158,-0.
 00011132,-0.00147064,0.00034916,-0.00402274,0.02413973\\0.00000098,-0.
 00000140,-0.00000413,0.00000220,0.00000565,0.00001143,-0.00000695,-0.0
 0000419,-0.00000108,0.00000011,0.00000092,-0.00000279,0.00000262,-0.00
 000201,-0.00000482,0.00000642,0.00001231,0.00001276,-0.00000463,-0.000
 00174,-0.00001325,-0.00000062,0.00000765,0.00000379,0.00000241,-0.0000
 0569,-0.00000085,-0.00000587,0.00000535,-0.00000373,0.00000347,-0.0000
 0989,0.00001056,0.00000994,-0.00000056,0.00000029,-0.00000113,-0.00000
 059,-0.00000108,-0.00000942,-0.00000187,-0.00000094,-0.00000234,0.0000
 0031,0.00000027,0.00000107,0.00000035,0.00000029,0.00000065,0.00000008
 ,-0.00000030,-0.00000032,-0.00000015,-0.00000274,-0.00000136,-0.000002
 70,-0.00000112,0.00000042,-0.00000397,-0.00000031,0.00000209,-0.000001
 28,-0.00000082,-0.00000014,0.00000110,-0.00000238,0.00000040,0.0000023
 0,0.00000095\\\@


 THE DIFFICULTY IN SCIENCE IS OFTEN NOT SO MUCH HOW
 TO MAKE A DISCOVERY BUT RATHER TO KNOW ONE HAS MADE IT.

                                                   -- J. D. BERNAL
 Job cpu time:       0 days  4 hours 32 minutes 21.8 seconds.
 Elapsed time:       0 days  1 hours  8 minutes  7.7 seconds.
 File lengths (MBytes):  RWF=    344 Int=      0 D2E=      0 Chk=     16 Scr=      1
 Normal termination of Gaussian 16 at Mon May 15 20:10:45 2023.
### All Done ###
