### Starting Gaussian ###
 Entering Gaussian System, Link 0=g16
 Initial command:
 /cluster/software/gaussian/gaussian-16-A.03/avx2/g16/l1.exe "/local/scratch/ks29c/Gau-21183.inp" -scrdir="/local/scratch/ks29c/"
 Entering Link 1 = /cluster/software/gaussian/gaussian-16-A.03/avx2/g16/l1.exe PID=     21184.
  
 Copyright (c) 1988,1990,1992,1993,1995,1998,2003,2009,2016,
            Gaussian, Inc.  All Rights Reserved.
  
 This is part of the Gaussian(R) 16 program.  It is based on
 the Gaussian(R) 09 system (copyright 2009, Gaussian, Inc.),
 the Gaussian(R) 03 system (copyright 2003, Gaussian, Inc.),
 the Gaussian(R) 98 system (copyright 1998, Gaussian, Inc.),
 the Gaussian(R) 94 system (copyright 1995, Gaussian, Inc.),
 the Gaussian 92(TM) system (copyright 1992, Gaussian, Inc.),
 the Gaussian 90(TM) system (copyright 1990, Gaussian, Inc.),
 the Gaussian 88(TM) system (copyright 1988, Gaussian, Inc.),
 the Gaussian 86(TM) system (copyright 1986, Carnegie Mellon
 University), and the Gaussian 82(TM) system (copyright 1983,
 Carnegie Mellon University). Gaussian is a federally registered
 trademark of Gaussian, Inc.
  
 This software contains proprietary and confidential information,
 including trade secrets, belonging to Gaussian, Inc.
  
 This software is provided under written license and may be
 used, copied, transmitted, or stored only in accord with that
 written license.
  
 The following legend is applicable only to US Government
 contracts under FAR:
  
                    RESTRICTED RIGHTS LEGEND
  
 Use, reproduction and disclosure by the US Government is
 subject to restrictions as set forth in subparagraphs (a)
 and (c) of the Commercial Computer Software - Restricted
 Rights clause in FAR 52.227-19.
  
 Gaussian, Inc.
 340 Quinnipiac St., Bldg. 40, Wallingford CT 06492
  
  
 ---------------------------------------------------------------
 Warning -- This program may not be used in any manner that
 competes with the business of Gaussian, Inc. or will provide
 assistance to any competitor of Gaussian, Inc.  The licensee
 of this program is prohibited from giving any competitor of
 Gaussian, Inc. access to this program.  By using this program,
 the user acknowledges that Gaussian, Inc. is engaged in the
 business of creating and licensing software in the field of
 computational chemistry and represents and warrants to the
 licensee that it is not a competitor of Gaussian, Inc. and that
 it will not use this program in any manner prohibited above.
 ---------------------------------------------------------------
  

 Cite this work as:
 Gaussian 16, Revision A.03,
 M. J. Frisch, G. W. Trucks, H. B. Schlegel, G. E. Scuseria, 
 M. A. Robb, J. R. Cheeseman, G. Scalmani, V. Barone, 
 G. A. Petersson, H. Nakatsuji, X. Li, M. Caricato, A. V. Marenich, 
 J. Bloino, B. G. Janesko, R. Gomperts, B. Mennucci, H. P. Hratchian, 
 J. V. Ortiz, A. F. Izmaylov, J. L. Sonnenberg, D. Williams-Young, 
 F. Ding, F. Lipparini, F. Egidi, J. Goings, B. Peng, A. Petrone, 
 T. Henderson, D. Ranasinghe, V. G. Zakrzewski, J. Gao, N. Rega, 
 G. Zheng, W. Liang, M. Hada, M. Ehara, K. Toyota, R. Fukuda, 
 J. Hasegawa, M. Ishida, T. Nakajima, Y. Honda, O. Kitao, H. Nakai, 
 T. Vreven, K. Throssell, J. A. Montgomery, Jr., J. E. Peralta, 
 F. Ogliaro, M. J. Bearpark, J. J. Heyd, E. N. Brothers, K. N. Kudin, 
 V. N. Staroverov, T. A. Keith, R. Kobayashi, J. Normand, 
 K. Raghavachari, A. P. Rendell, J. C. Burant, S. S. Iyengar, 
 J. Tomasi, M. Cossi, J. M. Millam, M. Klene, C. Adamo, R. Cammi, 
 J. W. Ochterski, R. L. Martin, K. Morokuma, O. Farkas, 
 J. B. Foresman, and D. J. Fox, Gaussian, Inc., Wallingford CT, 2016.
 
 ******************************************
 Gaussian 16:  ES64L-G16RevA.03 25-Dec-2016
                15-May-2023 
 ******************************************
 %chk=CCOSq[O]rq[O]rCCCqCrqCrC.chk
 %NProcShared=20
 Will use up to   20 processors via shared memory.
 -----------------------------
 # opt freq b3lyp/6-31g(2df,p)
 -----------------------------
 1/18=20,19=15,26=3,38=1/1,3;
 2/9=110,12=2,17=6,18=5,40=1/2;
 3/5=1,6=6,7=104,11=2,25=1,30=1,71=1,74=-5/1,2,3;
 4//1;
 5/5=2,38=5/2;
 6/7=2,8=2,9=2,10=2,28=1/1;
 7//1,2,3,16;
 1/18=20,19=15,26=3/3(2);
 2/9=110/2;
 99//99;
 2/9=110/2;
 3/5=1,6=6,7=104,11=2,25=1,30=1,71=1,74=-5/1,2,3;
 4/5=5,16=3,69=1/1;
 5/5=2,38=5/2;
 7//1,2,3,16;
 1/18=20,19=15,26=3/3(-5);
 2/9=110/2;
 6/7=2,8=2,9=2,10=2,19=2,28=1/1;
 99/9=1/99;
 -------------------
 Title Card Required
 -------------------
 Symbolic Z-matrix:
 Charge =  0 Multiplicity = 1
 C                     1.09619  -0.12616   0.01417 
 C                     2.609    -0.05995  -0.02444 
 O                     3.24312  -1.165     0.61989 
 S                     4.88049  -1.08923   0.57347 
 O                     5.29301  -1.23258  -0.80474 
 O                     5.2935    0.04289   1.3816 
 C                     5.31147  -2.58834   1.4497 
 C                     6.84471  -2.70665   1.51857 
 C                     7.37725  -3.96054   2.24958 
 C                     6.90232  -3.96911   3.70994 
 C                     6.90232  -5.23559   1.53756 
 C                     8.91896  -3.93893   2.23699 
 H                     0.68164   0.75082  -0.4971 
 H                     0.72188  -0.13365   1.0417 
 H                     0.72187  -1.02403  -0.48554 
 H                     2.93157   0.86447   0.46596 
 H                     2.93157  -0.03126  -1.07047 
 H                     4.86893  -3.42365   0.90137 
 H                     4.86895  -2.52284   2.44659 
 H                     7.249    -1.8087    2.0067 
 H                     7.249    -2.68902   0.49668 
 H                     5.81138  -4.01116   3.78127 
 H                     7.23878  -3.0679    4.23564 
 H                     7.29433  -4.83819   4.24836 
 H                     5.81138  -5.31838   1.53901 
 H                     7.29433  -6.1323    2.02858 
 H                     7.23878  -5.24905   0.49432 
 H                     9.31076  -3.04904   2.74268 
 H                     9.31076  -3.94057   1.21345 
 H                     9.32858  -4.81753   2.7492 
 

 GradGradGradGradGradGradGradGradGradGradGradGradGradGradGradGradGradGrad
 Berny optimization.
 Initialization pass.
                           ----------------------------
                           !    Initial Parameters    !
                           ! (Angstroms and Degrees)  !
 --------------------------                            --------------------------
 ! Name  Definition              Value          Derivative Info.                !
 --------------------------------------------------------------------------------
 ! R1    R(1,2)                  1.5148         estimate D2E/DX2                !
 ! R2    R(1,13)                 1.0965         estimate D2E/DX2                !
 ! R3    R(1,14)                 1.0936         estimate D2E/DX2                !
 ! R4    R(1,15)                 1.0936         estimate D2E/DX2                !
 ! R5    R(2,3)                  1.4277         estimate D2E/DX2                !
 ! R6    R(2,16)                 1.095          estimate D2E/DX2                !
 ! R7    R(2,17)                 1.095          estimate D2E/DX2                !
 ! R8    R(3,4)                  1.6398         estimate D2E/DX2                !
 ! R9    R(4,5)                  1.4457         estimate D2E/DX2                !
 ! R10   R(4,6)                  1.451          estimate D2E/DX2                !
 ! R11   R(4,7)                  1.7891         estimate D2E/DX2                !
 ! R12   R(7,8)                  1.5393         estimate D2E/DX2                !
 ! R13   R(7,18)                 1.0928         estimate D2E/DX2                !
 ! R14   R(7,19)                 1.0927         estimate D2E/DX2                !
 ! R15   R(8,9)                  1.546          estimate D2E/DX2                !
 ! R16   R(8,20)                 1.0991         estimate D2E/DX2                !
 ! R17   R(8,21)                 1.0991         estimate D2E/DX2                !
 ! R18   R(9,10)                 1.5357         estimate D2E/DX2                !
 ! R19   R(9,11)                 1.5357         estimate D2E/DX2                !
 ! R20   R(9,12)                 1.5419         estimate D2E/DX2                !
 ! R21   R(10,22)                1.0941         estimate D2E/DX2                !
 ! R22   R(10,23)                1.0962         estimate D2E/DX2                !
 ! R23   R(10,24)                1.0949         estimate D2E/DX2                !
 ! R24   R(11,25)                1.0941         estimate D2E/DX2                !
 ! R25   R(11,26)                1.0949         estimate D2E/DX2                !
 ! R26   R(11,27)                1.0962         estimate D2E/DX2                !
 ! R27   R(12,28)                1.096          estimate D2E/DX2                !
 ! R28   R(12,29)                1.096          estimate D2E/DX2                !
 ! R29   R(12,30)                1.0964         estimate D2E/DX2                !
 ! A1    A(2,1,13)             109.3133         estimate D2E/DX2                !
 ! A2    A(2,1,14)             111.4741         estimate D2E/DX2                !
 ! A3    A(2,1,15)             111.474          estimate D2E/DX2                !
 ! A4    A(13,1,14)            108.3109         estimate D2E/DX2                !
 ! A5    A(13,1,15)            108.3113         estimate D2E/DX2                !
 ! A6    A(14,1,15)            107.8514         estimate D2E/DX2                !
 ! A7    A(1,2,3)              113.4684         estimate D2E/DX2                !
 ! A8    A(1,2,16)             108.6438         estimate D2E/DX2                !
 ! A9    A(1,2,17)             108.6447         estimate D2E/DX2                !
 ! A10   A(3,2,16)             108.6905         estimate D2E/DX2                !
 ! A11   A(3,2,17)             108.6963         estimate D2E/DX2                !
 ! A12   A(16,2,17)            108.5972         estimate D2E/DX2                !
 ! A13   A(2,3,4)              113.2631         estimate D2E/DX2                !
 ! A14   A(3,4,5)              107.8977         estimate D2E/DX2                !
 ! A15   A(3,4,6)              107.7287         estimate D2E/DX2                !
 ! A16   A(3,4,7)              100.8336         estimate D2E/DX2                !
 ! A17   A(5,4,6)              121.8085         estimate D2E/DX2                !
 ! A18   A(5,4,7)              108.3648         estimate D2E/DX2                !
 ! A19   A(6,4,7)              108.2061         estimate D2E/DX2                !
 ! A20   A(4,7,8)              109.0414         estimate D2E/DX2                !
 ! A21   A(4,7,18)             107.2883         estimate D2E/DX2                !
 ! A22   A(4,7,19)             107.4003         estimate D2E/DX2                !
 ! A23   A(8,7,18)             111.5338         estimate D2E/DX2                !
 ! A24   A(8,7,19)             111.5417         estimate D2E/DX2                !
 ! A25   A(18,7,19)            109.8523         estimate D2E/DX2                !
 ! A26   A(7,8,9)              115.2507         estimate D2E/DX2                !
 ! A27   A(7,8,20)             108.8721         estimate D2E/DX2                !
 ! A28   A(7,8,21)             108.8778         estimate D2E/DX2                !
 ! A29   A(9,8,20)             109.0207         estimate D2E/DX2                !
 ! A30   A(9,8,21)             109.0213         estimate D2E/DX2                !
 ! A31   A(20,8,21)            105.3378         estimate D2E/DX2                !
 ! A32   A(8,9,10)             110.343          estimate D2E/DX2                !
 ! A33   A(8,9,11)             110.3429         estimate D2E/DX2                !
 ! A34   A(8,9,12)             109.2192         estimate D2E/DX2                !
 ! A35   A(10,9,11)            109.9157         estimate D2E/DX2                !
 ! A36   A(10,9,12)            108.4857         estimate D2E/DX2                !
 ! A37   A(11,9,12)            108.4862         estimate D2E/DX2                !
 ! A38   A(9,10,22)            111.7522         estimate D2E/DX2                !
 ! A39   A(9,10,23)            110.8868         estimate D2E/DX2                !
 ! A40   A(9,10,24)            111.1819         estimate D2E/DX2                !
 ! A41   A(22,10,23)           107.8408         estimate D2E/DX2                !
 ! A42   A(22,10,24)           107.1234         estimate D2E/DX2                !
 ! A43   A(23,10,24)           107.8678         estimate D2E/DX2                !
 ! A44   A(9,11,25)            111.7522         estimate D2E/DX2                !
 ! A45   A(9,11,26)            111.1819         estimate D2E/DX2                !
 ! A46   A(9,11,27)            110.8862         estimate D2E/DX2                !
 ! A47   A(25,11,26)           107.1234         estimate D2E/DX2                !
 ! A48   A(25,11,27)           107.8409         estimate D2E/DX2                !
 ! A49   A(26,11,27)           107.8682         estimate D2E/DX2                !
 ! A50   A(9,12,28)            111.4112         estimate D2E/DX2                !
 ! A51   A(9,12,29)            111.4107         estimate D2E/DX2                !
 ! A52   A(9,12,30)            111.0088         estimate D2E/DX2                !
 ! A53   A(28,12,29)           107.718          estimate D2E/DX2                !
 ! A54   A(28,12,30)           107.5509         estimate D2E/DX2                !
 ! A55   A(29,12,30)           107.5502         estimate D2E/DX2                !
 ! D1    D(13,1,2,3)           179.9963         estimate D2E/DX2                !
 ! D2    D(13,1,2,16)           58.9867         estimate D2E/DX2                !
 ! D3    D(13,1,2,17)          -58.9861         estimate D2E/DX2                !
 ! D4    D(14,1,2,3)            60.2865         estimate D2E/DX2                !
 ! D5    D(14,1,2,16)          -60.723          estimate D2E/DX2                !
 ! D6    D(14,1,2,17)         -178.6959         estimate D2E/DX2                !
 ! D7    D(15,1,2,3)           -60.2936         estimate D2E/DX2                !
 ! D8    D(15,1,2,16)          178.6968         estimate D2E/DX2                !
 ! D9    D(15,1,2,17)           60.724          estimate D2E/DX2                !
 ! D10   D(1,2,3,4)            179.9266         estimate D2E/DX2                !
 ! D11   D(16,2,3,4)           -59.0902         estimate D2E/DX2                !
 ! D12   D(17,2,3,4)            58.938          estimate D2E/DX2                !
 ! D13   D(2,3,4,5)            -66.5346         estimate D2E/DX2                !
 ! D14   D(2,3,4,6)             66.6811         estimate D2E/DX2                !
 ! D15   D(2,3,4,7)            179.9561         estimate D2E/DX2                !
 ! D16   D(3,4,7,8)           -179.9441         estimate D2E/DX2                !
 ! D17   D(3,4,7,18)            59.1193         estimate D2E/DX2                !
 ! D18   D(3,4,7,19)           -58.9319         estimate D2E/DX2                !
 ! D19   D(5,4,7,8)             66.9012         estimate D2E/DX2                !
 ! D20   D(5,4,7,18)           -54.0355         estimate D2E/DX2                !
 ! D21   D(5,4,7,19)          -172.0867         estimate D2E/DX2                !
 ! D22   D(6,4,7,8)            -67.0322         estimate D2E/DX2                !
 ! D23   D(6,4,7,18)           172.0312         estimate D2E/DX2                !
 ! D24   D(6,4,7,19)            53.98           estimate D2E/DX2                !
 ! D25   D(4,7,8,9)           -179.9343         estimate D2E/DX2                !
 ! D26   D(4,7,8,20)            57.2435         estimate D2E/DX2                !
 ! D27   D(4,7,8,21)           -57.1068         estimate D2E/DX2                !
 ! D28   D(18,7,8,9)           -61.6297         estimate D2E/DX2                !
 ! D29   D(18,7,8,20)          175.5481         estimate D2E/DX2                !
 ! D30   D(18,7,8,21)           61.1979         estimate D2E/DX2                !
 ! D31   D(19,7,8,9)            61.6181         estimate D2E/DX2                !
 ! D32   D(19,7,8,20)          -61.2042         estimate D2E/DX2                !
 ! D33   D(19,7,8,21)         -175.5544         estimate D2E/DX2                !
 ! D34   D(7,8,9,10)           -60.828          estimate D2E/DX2                !
 ! D35   D(7,8,9,11)            60.8355         estimate D2E/DX2                !
 ! D36   D(7,8,9,12)          -179.996          estimate D2E/DX2                !
 ! D37   D(20,8,9,10)           61.915          estimate D2E/DX2                !
 ! D38   D(20,8,9,11)         -176.4215         estimate D2E/DX2                !
 ! D39   D(20,8,9,12)          -57.253          estimate D2E/DX2                !
 ! D40   D(21,8,9,10)          176.421          estimate D2E/DX2                !
 ! D41   D(21,8,9,11)          -61.9156         estimate D2E/DX2                !
 ! D42   D(21,8,9,12)           57.253          estimate D2E/DX2                !
 ! D43   D(8,9,10,22)           61.8915         estimate D2E/DX2                !
 ! D44   D(8,9,10,23)          -58.4611         estimate D2E/DX2                !
 ! D45   D(8,9,10,24)         -178.4659         estimate D2E/DX2                !
 ! D46   D(11,9,10,22)         -60.0246         estimate D2E/DX2                !
 ! D47   D(11,9,10,23)         179.6228         estimate D2E/DX2                !
 ! D48   D(11,9,10,24)          59.6181         estimate D2E/DX2                !
 ! D49   D(12,9,10,22)        -178.4959         estimate D2E/DX2                !
 ! D50   D(12,9,10,23)          61.1515         estimate D2E/DX2                !
 ! D51   D(12,9,10,24)         -58.8532         estimate D2E/DX2                !
 ! D52   D(8,9,11,25)          -61.8915         estimate D2E/DX2                !
 ! D53   D(8,9,11,26)          178.4657         estimate D2E/DX2                !
 ! D54   D(8,9,11,27)           58.4608         estimate D2E/DX2                !
 ! D55   D(10,9,11,25)          60.0246         estimate D2E/DX2                !
 ! D56   D(10,9,11,26)         -59.6181         estimate D2E/DX2                !
 ! D57   D(10,9,11,27)        -179.623          estimate D2E/DX2                !
 ! D58   D(12,9,11,25)         178.4956         estimate D2E/DX2                !
 ! D59   D(12,9,11,26)          58.8528         estimate D2E/DX2                !
 ! D60   D(12,9,11,27)         -61.1521         estimate D2E/DX2                !
 ! D61   D(8,9,12,28)           60.1615         estimate D2E/DX2                !
 ! D62   D(8,9,12,29)          -60.1619         estimate D2E/DX2                !
 ! D63   D(8,9,12,30)         -179.9996         estimate D2E/DX2                !
 ! D64   D(10,9,12,28)         -60.1523         estimate D2E/DX2                !
 ! D65   D(10,9,12,29)         179.5243         estimate D2E/DX2                !
 ! D66   D(10,9,12,30)          59.6866         estimate D2E/DX2                !
 ! D67   D(11,9,12,28)        -179.5246         estimate D2E/DX2                !
 ! D68   D(11,9,12,29)          60.152          estimate D2E/DX2                !
 ! D69   D(11,9,12,30)         -59.6857         estimate D2E/DX2                !
 --------------------------------------------------------------------------------
 Trust Radius=3.00D-01 FncErr=1.00D-07 GrdErr=1.00D-06 EigMax=2.50D+02 EigMin=1.00D-04
 Number of steps in this run=    163 maximum allowed number of steps=    180.
 GradGradGradGradGradGradGradGradGradGradGradGradGradGradGradGradGradGrad

                          Input orientation:                          
 ---------------------------------------------------------------------
 Center     Atomic      Atomic             Coordinates (Angstroms)
 Number     Number       Type             X           Y           Z
 ---------------------------------------------------------------------
      1          6           0        1.096190   -0.126160    0.014170
      2          6           0        2.609000   -0.059950   -0.024440
      3          8           0        3.243120   -1.165000    0.619890
      4         16           0        4.880490   -1.089230    0.573470
      5          8           0        5.293010   -1.232580   -0.804740
      6          8           0        5.293500    0.042890    1.381600
      7          6           0        5.311470   -2.588340    1.449700
      8          6           0        6.844710   -2.706650    1.518570
      9          6           0        7.377250   -3.960540    2.249580
     10          6           0        6.902320   -3.969110    3.709940
     11          6           0        6.902320   -5.235590    1.537560
     12          6           0        8.918960   -3.938930    2.236990
     13          1           0        0.681640    0.750820   -0.497100
     14          1           0        0.721880   -0.133650    1.041700
     15          1           0        0.721870   -1.024030   -0.485540
     16          1           0        2.931570    0.864470    0.465960
     17          1           0        2.931570   -0.031260   -1.070470
     18          1           0        4.868930   -3.423650    0.901370
     19          1           0        4.868950   -2.522840    2.446590
     20          1           0        7.249000   -1.808700    2.006700
     21          1           0        7.249000   -2.689020    0.496680
     22          1           0        5.811380   -4.011160    3.781270
     23          1           0        7.238780   -3.067900    4.235640
     24          1           0        7.294330   -4.838190    4.248360
     25          1           0        5.811380   -5.318380    1.539010
     26          1           0        7.294330   -6.132300    2.028580
     27          1           0        7.238780   -5.249050    0.494320
     28          1           0        9.310760   -3.049040    2.742680
     29          1           0        9.310760   -3.940570    1.213450
     30          1           0        9.328580   -4.817530    2.749200
 ---------------------------------------------------------------------
                    Distance matrix (angstroms):
                    1          2          3          4          5
     1  C    0.000000
     2  C    1.514750   0.000000
     3  O    2.460771   1.427727   0.000000
     4  S    3.944775   2.564484   1.639779   0.000000
     5  O    4.416795   3.031145   2.497236   1.445747   0.000000
     6  O    4.417675   3.032172   2.498651   1.450981   2.531187
     7  C    5.088385   3.983615   2.644344   1.789093   2.630765
     8  C    6.478243   5.227537   4.019423   2.714299   3.158864
     9  C    7.690984   6.566733   5.249949   4.157833   4.595073
    10  C    7.882774   6.903602   5.549882   4.713698   5.519131
    11  C    7.882775   6.903600   5.549916   4.712703   4.909209
    12  C    8.981864   7.744427   6.521109   5.215106   5.451969
    13  H    1.096514   2.143705   3.388099   4.707679   5.029240
    14  H    1.093610   2.168711   2.756494   4.292599   5.050962
    15  H    1.093616   2.168715   2.756547   4.291838   4.587015
    16  H    2.134029   1.095032   2.059006   2.761665   3.404217
    17  H    2.134027   1.095013   2.059065   2.760458   2.662739
    18  H    5.088628   4.156788   2.797139   2.357365   2.809171
    19  H    5.088660   4.156825   2.797121   2.358803   3.523598
    20  H    6.682678   5.358475   4.287734   2.860354   3.473040
    21  H    6.682674   5.358468   4.287761   2.859207   2.764201
    22  H    7.177554   6.352222   4.968995   4.437816   5.387087
    23  H    8.012868   6.973586   5.714891   4.784157   5.706124
    24  H    8.862761   7.939818   6.562806   5.778074   6.522233
    25  H    7.177555   6.352220   4.969035   4.436726   4.738738
    26  H    8.862759   7.939814   6.562833   5.777242   6.003352
    27  H    8.012862   6.973574   5.714939   4.782457   4.648183
    28  H    9.136036   7.842525   6.698664   5.307883   5.659155
    29  H    9.136036   7.842523   6.698683   5.307260   5.248678
    30  H    9.862129   8.687946   7.409977   6.198349   6.462831
                    6          7          8          9         10
     6  O    0.000000
     7  C    2.632172   0.000000
     8  C    3.159902   1.539339   0.000000
     9  C    4.595961   2.605799   1.546032   0.000000
    10  C    4.909747   3.089663   2.529669   1.535670   0.000000
    11  C    5.520415   3.089734   2.529667   1.535670   2.514599
    12  C    5.452572   3.931654   2.517371   1.541913   2.497465
    13  H    5.029904   6.031198   7.348500   8.635529   8.869824
    14  H    4.587636   5.220757   6.658587   7.771616   7.747780
    15  H    5.052161   5.220790   6.658591   7.771619   8.029540
    16  H    2.663100   4.307385   5.401255   6.798977   7.046542
    17  H    3.405416   4.307417   5.401250   6.798974   7.357026
    18  H    3.525306   1.092818   2.190601   2.897860   3.510024
    19  H    2.810234   1.092659   2.190579   2.897820   2.796845
    20  H    2.764619   2.161506   1.099107   2.169298   2.772830
    21  H    3.474248   2.161575   1.099100   2.169302   3.476184
    22  H    4.739403   2.776787   2.808795   2.191024   1.094078
    23  H    4.648298   3.421398   2.769163   2.181837   1.096241
    24  H    6.003880   4.101958   3.492474   2.184552   1.094928
    25  H    5.388524   2.776870   2.808794   2.191024   2.779140
    26  H    6.523410   4.102010   3.492470   2.184550   2.767677
    27  H    5.707540   3.421499   2.769147   2.181827   3.477307
    28  H    5.248900   4.228281   2.774361   2.193728   2.753671
    29  H    5.659912   4.228317   2.774357   2.193724   3.468985
    30  H    6.463427   4.774428   3.484232   2.189005   2.744007
                   11         12         13         14         15
    11  C    0.000000
    12  C    2.497472   0.000000
    13  H    8.869826   9.865214   0.000000
    14  H    8.029540   9.115975   1.775334   0.000000
    15  H    7.747782   9.115980   1.775344   1.767834   0.000000
    16  H    7.357032   7.877692   2.450018   2.492077   3.058522
    17  H    7.046540   7.877691   2.450018   3.058509   2.492089
    18  H    2.796880   4.295595   6.075798   5.295452   4.987966
    19  H    3.509977   4.295559   6.075831   4.987999   5.295478
    20  H    3.476184   2.716557   7.479998   6.807372   7.030675
    21  H    2.772839   2.716564   7.479994   7.030666   6.807376
    22  H    2.779139   3.470889   8.203361   6.960125   7.282288
    23  H    3.477315   2.752508   8.943016   7.828222   8.302835
    24  H    2.767677   2.737462   9.873403   8.695543   8.952924
    25  H    1.094078   3.470895   8.203363   7.282290   6.960126
    26  H    1.094925   2.737468   9.873402   8.952923   8.695542
    27  H    1.096237   2.752511   8.943011   8.302826   7.828220
    28  H    3.468991   1.095963   9.969796   9.228309   9.396334
    29  H    2.753672   1.095967   9.969796   9.396329   9.228315
    30  H    2.744009   1.096397  10.784923   9.946335   9.946338
                   16         17         18         19         20
    16  H    0.000000
    17  H    1.778468   0.000000
    18  H    4.725560   4.376051   0.000000
    19  H    4.376095   4.725582   1.788621   0.000000
    20  H    5.306592   5.591822   3.081323   2.523517   0.000000
    21  H    5.591819   5.306585   2.523527   3.081299   1.747891
    22  H    6.561734   6.904512   3.086617   2.210122   3.172803
    23  H    6.944500   7.478505   4.106106   3.018921   2.560051
    24  H    8.115452   8.392270   4.368733   3.806532   3.768939
    25  H    6.904519   6.561732   2.210158   3.086571   3.821432
    26  H    8.392273   8.115447   3.806567   4.368684   4.323893
    27  H    7.478502   6.944491   3.018934   4.106053   3.758112
    28  H    7.822601   8.021295   4.822925   4.482659   2.516141
    29  H    8.021298   7.822599   4.482684   4.822890   3.070011
    30  H    8.855509   8.855507   5.024525   5.024488   3.732160
                   21         22         23         24         25
    21  H    0.000000
    22  H    3.821431   0.000000
    23  H    3.758121   1.770215   0.000000
    24  H    4.323897   1.761049   1.771207   0.000000
    25  H    3.172812   2.595487   3.791299   3.125748   0.000000
    26  H    3.768945   3.125748   3.776870   2.569464   1.761047
    27  H    2.560051   3.791290   4.330692   3.776865   1.770213
    28  H    3.070014   3.774918   2.553896   3.087737   4.341012
    29  H    2.516146   4.341007   3.766734   3.752651   3.774919
    30  H    3.732165   3.753145   3.104509   2.527070   3.753146
                   26         27         28         29         30
    26  H    0.000000
    27  H    1.771206   0.000000
    28  H    3.752655   3.766732   0.000000
    29  H    3.087735   2.553893   1.770133   0.000000
    30  H    2.527071   3.104506   1.768592   1.768588   0.000000
 Stoichiometry    C8H18O3S
 Framework group  C1[X(C8H18O3S)]
 Deg. of freedom    84
 Full point group                 C1      NOp   1
 Largest Abelian subgroup         C1      NOp   1
 Largest concise Abelian subgroup C1      NOp   1
                         Standard orientation:                         
 ---------------------------------------------------------------------
 Center     Atomic      Atomic             Coordinates (Angstroms)
 Number     Number       Type             X           Y           Z
 ---------------------------------------------------------------------
      1          6           0        4.668214    1.168024    0.000691
      2          6           0        3.601556    0.092520    0.000237
      3          8           0        2.271310    0.611029    0.000498
      4         16           0        1.120787   -0.557375   -0.001927
      5          8           0        1.199957   -1.256266   -1.265046
      6          8           0        1.200042   -1.258140    1.266140
      7          6           0       -0.367230    0.435929    0.000390
      8          6           0       -1.592806   -0.495484   -0.000091
      9          6           0       -2.963963    0.218758    0.000167
     10          6           0       -3.113255    1.087284    1.257806
     11          6           0       -3.113207    1.088278   -1.256792
     12          6           0       -4.086760   -0.838040   -0.000265
     13          1           0        5.658322    0.696825    0.000526
     14          1           0        4.591995    1.807099    0.884861
     15          1           0        4.592029    1.807812   -0.882974
     16          1           0        3.734600   -0.532838    0.889237
     17          1           0        3.734632   -0.532133   -0.889231
     18          1           0       -0.340095    1.063613   -0.893772
     19          1           0       -0.340168    1.062919    0.894848
     20          1           0       -1.534800   -1.159814    0.873600
     21          1           0       -1.534761   -1.159129   -0.874291
     22          1           0       -2.355488    1.875404    1.298576
     23          1           0       -3.015957    0.480528    2.165620
     24          1           0       -4.091315    1.578716    1.285414
     25          1           0       -2.355438    1.876430   -1.296911
     26          1           0       -4.091263    1.579729   -1.284050
     27          1           0       -3.015868    0.482233   -2.165072
     28          1           0       -4.030168   -1.482278    0.884544
     29          1           0       -4.030135   -1.481578   -0.885588
     30          1           0       -5.074485   -0.362136   -0.000102
 ---------------------------------------------------------------------
 Rotational constants (GHZ):           1.8839462           0.3372307           0.3280892
 Standard basis: 6-31G(2df,p) (6D, 7F)
 There are   466 symmetry adapted cartesian basis functions of A   symmetry.
 There are   430 symmetry adapted basis functions of A   symmetry.
   430 basis functions,   678 primitive gaussians,   466 cartesian basis functions
    53 alpha electrons       53 beta electrons
       nuclear repulsion energy       918.4963570861 Hartrees.
 NAtoms=   30 NActive=   30 NUniq=   30 SFac= 1.00D+00 NAtFMM=   60 NAOKFM=F Big=F
 Integral buffers will be    131072 words long.
 Raffenetti 2 integral format.
 Two-electron integral symmetry is turned on.
 One-electron integrals computed using PRISM.
 PrsmSu:  requested number of processors reduced to:  12 ShMem   1 Linda.
 NBasis=   430 RedAO= T EigKep=  6.52D-04  NBF=   430
 NBsUse=   430 1.00D-06 EigRej= -1.00D+00 NBFU=   430
 ExpMin= 1.17D-01 ExpMax= 2.19D+04 ExpMxC= 3.30D+03 IAcc=3 IRadAn=         5 AccDes= 0.00D+00
 Harris functional with IExCor=  402 and IRadAn=       5 diagonalized for initial guess.
 HarFok:  IExCor=  402 AccDes= 0.00D+00 IRadAn=         5 IDoV= 1 UseB2=F ITyADJ=14
 ICtDFT=  3500011 ScaDFX=  1.000000  1.000000  1.000000  1.000000
 FoFCou: FMM=F IPFlag=           0 FMFlag=      100000 FMFlg1=           0
         NFxFlg=           0 DoJE=T BraDBF=F KetDBF=T FulRan=T
         wScrn=  0.000000 ICntrl=       500 IOpCl=  0 I1Cent=   200000004 NGrid=           0
         NMat0=    1 NMatS0=      1 NMatT0=    0 NMatD0=    1 NMtDS0=    0 NMtDT0=    0
 Petite list used in FoFCou.
 Requested convergence on RMS density matrix=1.00D-08 within 128 cycles.
 Requested convergence on MAX density matrix=1.00D-06.
 Requested convergence on             energy=1.00D-06.
 No special actions if energy rises.
 Integral accuracy reduced to 1.0D-05 until final iterations.
 Initial convergence to 1.0D-05 achieved.  Increase integral accuracy.
 SCF Done:  E(RB3LYP) =  -939.579904002     A.U. after   13 cycles
            NFock= 13  Conv=0.81D-08     -V/T= 2.0059

 **********************************************************************

            Population analysis using the SCF density.

 **********************************************************************

 Orbital symmetries:
       Occupied  (A) (A) (A) (A) (A) (A) (A) (A) (A) (A) (A) (A)
                 (A) (A) (A) (A) (A) (A) (A) (A) (A) (A) (A) (A)
                 (A) (A) (A) (A) (A) (A) (A) (A) (A) (A) (A) (A)
                 (A) (A) (A) (A) (A) (A) (A) (A) (A) (A) (A) (A)
                 (A) (A) (A) (A) (A)
       Virtual   (A) (A) (A) (A) (A) (A) (A) (A) (A) (A) (A) (A)
                 (A) (A) (A) (A) (A) (A) (A) (A) (A) (A) (A) (A)
                 (A) (A) (A) (A) (A) (A) (A) (A) (A) (A) (A) (A)
                 (A) (A) (A) (A) (A) (A) (A) (A) (A) (A) (A) (A)
                 (A) (A) (A) (A) (A) (A) (A) (A) (A) (A) (A) (A)
                 (A) (A) (A) (A) (A) (A) (A) (A) (A) (A) (A) (A)
                 (A) (A) (A) (A) (A) (A) (A) (A) (A) (A) (A) (A)
                 (A) (A) (A) (A) (A) (A) (A) (A) (A) (A) (A) (A)
                 (A) (A) (A) (A) (A) (A) (A) (A) (A) (A) (A) (A)
                 (A) (A) (A) (A) (A) (A) (A) (A) (A) (A) (A) (A)
                 (A) (A) (A) (A) (A) (A) (A) (A) (A) (A) (A) (A)
                 (A) (A) (A) (A) (A) (A) (A) (A) (A) (A) (A) (A)
                 (A) (A) (A) (A) (A) (A) (A) (A) (A) (A) (A) (A)
                 (A) (A) (A) (A) (A) (A) (A) (A) (A) (A) (A) (A)
                 (A) (A) (A) (A) (A) (A) (A) (A) (A) (A) (A) (A)
                 (A) (A) (A) (A) (A) (A) (A) (A) (A) (A) (A) (A)
                 (A) (A) (A) (A) (A) (A) (A) (A) (A) (A) (A) (A)
                 (A) (A) (A) (A) (A) (A) (A) (A) (A) (A) (A) (A)
                 (A) (A) (A) (A) (A) (A) (A) (A) (A) (A) (A) (A)
                 (A) (A) (A) (A) (A) (A) (A) (A) (A) (A) (A) (A)
                 (A) (A) (A) (A) (A) (A) (A) (A) (A) (A) (A) (A)
                 (A) (A) (A) (A) (A) (A) (A) (A) (A) (A) (A) (A)
                 (A) (A) (A) (A) (A) (A) (A) (A) (A) (A) (A) (A)
                 (A) (A) (A) (A) (A) (A) (A) (A) (A) (A) (A) (A)
                 (A) (A) (A) (A) (A) (A) (A) (A) (A) (A) (A) (A)
                 (A) (A) (A) (A) (A) (A) (A) (A) (A) (A) (A) (A)
                 (A) (A) (A) (A) (A) (A) (A) (A) (A) (A) (A) (A)
                 (A) (A) (A) (A) (A) (A) (A) (A) (A) (A) (A) (A)
                 (A) (A) (A) (A) (A) (A) (A) (A) (A) (A) (A) (A)
                 (A) (A) (A) (A) (A) (A) (A) (A) (A) (A) (A) (A)
                 (A) (A) (A) (A) (A) (A) (A) (A) (A) (A) (A) (A)
                 (A) (A) (A) (A) (A)
 The electronic state is 1-A.
 Alpha  occ. eigenvalues --  -89.09598 -19.18212 -19.13306 -19.13204 -10.24384
 Alpha  occ. eigenvalues --  -10.22664 -10.20625 -10.19772 -10.18934 -10.17894
 Alpha  occ. eigenvalues --  -10.17892 -10.17774  -8.11977  -6.08639  -6.08321
 Alpha  occ. eigenvalues --   -6.08289  -1.13118  -1.03251  -1.00196  -0.84104
 Alpha  occ. eigenvalues --   -0.79092  -0.76524  -0.69258  -0.69032  -0.68155
 Alpha  occ. eigenvalues --   -0.63070  -0.58939  -0.54631  -0.52778  -0.49330
 Alpha  occ. eigenvalues --   -0.49162  -0.48331  -0.45818  -0.45179  -0.44221
 Alpha  occ. eigenvalues --   -0.43582  -0.42384  -0.41092  -0.40290  -0.39009
 Alpha  occ. eigenvalues --   -0.38783  -0.37411  -0.37106  -0.37031  -0.36336
 Alpha  occ. eigenvalues --   -0.33930  -0.33007  -0.32626  -0.32368  -0.32311
 Alpha  occ. eigenvalues --   -0.31292  -0.30631  -0.28259
 Alpha virt. eigenvalues --    0.05164   0.05757   0.08439   0.10089   0.10309
 Alpha virt. eigenvalues --    0.10450   0.11200   0.12206   0.12861   0.13768
 Alpha virt. eigenvalues --    0.14169   0.14938   0.15625   0.15971   0.16462
 Alpha virt. eigenvalues --    0.16612   0.17374   0.18125   0.18879   0.19859
 Alpha virt. eigenvalues --    0.20305   0.20935   0.21910   0.22277   0.23143
 Alpha virt. eigenvalues --    0.23404   0.24200   0.24300   0.26339   0.31934
 Alpha virt. eigenvalues --    0.36167   0.36776   0.39406   0.40576   0.43047
 Alpha virt. eigenvalues --    0.44186   0.44701   0.45085   0.45840   0.47575
 Alpha virt. eigenvalues --    0.48247   0.50736   0.50986   0.51922   0.54174
 Alpha virt. eigenvalues --    0.55055   0.55922   0.57075   0.60177   0.60995
 Alpha virt. eigenvalues --    0.62192   0.63673   0.64699   0.67526   0.67825
 Alpha virt. eigenvalues --    0.68709   0.68943   0.70457   0.70617   0.70932
 Alpha virt. eigenvalues --    0.72099   0.72260   0.72846   0.72998   0.73206
 Alpha virt. eigenvalues --    0.73738   0.74006   0.74234   0.75341   0.75671
 Alpha virt. eigenvalues --    0.76886   0.77623   0.77947   0.78683   0.79339
 Alpha virt. eigenvalues --    0.81335   0.82776   0.82886   0.85285   0.86539
 Alpha virt. eigenvalues --    0.87465   0.88472   0.89614   0.90724   0.91851
 Alpha virt. eigenvalues --    0.91960   0.93649   0.94130   0.94418   0.98702
 Alpha virt. eigenvalues --    0.98794   1.01305   1.05180   1.05697   1.06931
 Alpha virt. eigenvalues --    1.09830   1.10216   1.11212   1.11522   1.15814
 Alpha virt. eigenvalues --    1.17208   1.18971   1.19415   1.20416   1.20520
 Alpha virt. eigenvalues --    1.24394   1.25402   1.27328   1.27916   1.30439
 Alpha virt. eigenvalues --    1.31793   1.31885   1.32280   1.34669   1.36309
 Alpha virt. eigenvalues --    1.37488   1.38075   1.38669   1.39484   1.41038
 Alpha virt. eigenvalues --    1.42154   1.43198   1.46051   1.46959   1.48897
 Alpha virt. eigenvalues --    1.49451   1.50052   1.50757   1.52438   1.53400
 Alpha virt. eigenvalues --    1.55792   1.58193   1.59057   1.60962   1.62621
 Alpha virt. eigenvalues --    1.63174   1.66803   1.68082   1.70876   1.71589
 Alpha virt. eigenvalues --    1.72883   1.77448   1.79062   1.80880   1.82315
 Alpha virt. eigenvalues --    1.83465   1.83498   1.85648   1.86584   1.88638
 Alpha virt. eigenvalues --    1.88725   1.91400   1.93400   1.94230   1.95280
 Alpha virt. eigenvalues --    1.96321   1.96406   1.98178   1.99705   2.03552
 Alpha virt. eigenvalues --    2.06573   2.11191   2.12001   2.14136   2.16647
 Alpha virt. eigenvalues --    2.17639   2.22591   2.22677   2.27430   2.28020
 Alpha virt. eigenvalues --    2.28556   2.28828   2.29099   2.30165   2.30336
 Alpha virt. eigenvalues --    2.30821   2.31185   2.35973   2.40036   2.43798
 Alpha virt. eigenvalues --    2.44533   2.45918   2.49027   2.49206   2.53558
 Alpha virt. eigenvalues --    2.58383   2.58890   2.61153   2.62077   2.65159
 Alpha virt. eigenvalues --    2.67804   2.68344   2.69910   2.70323   2.72804
 Alpha virt. eigenvalues --    2.73921   2.75989   2.76907   2.79465   2.79484
 Alpha virt. eigenvalues --    2.80606   2.82225   2.83119   2.84655   2.85224
 Alpha virt. eigenvalues --    2.86029   2.87820   2.89358   2.89714   2.90450
 Alpha virt. eigenvalues --    2.92823   2.93036   2.94014   2.95289   2.97187
 Alpha virt. eigenvalues --    2.97989   2.99056   3.01327   3.01862   3.03141
 Alpha virt. eigenvalues --    3.03282   3.04013   3.07548   3.08010   3.08976
 Alpha virt. eigenvalues --    3.12183   3.13006   3.18393   3.27237   3.30101
 Alpha virt. eigenvalues --    3.34921   3.35443   3.36206   3.37718   3.38325
 Alpha virt. eigenvalues --    3.39828   3.42552   3.44022   3.44929   3.45407
 Alpha virt. eigenvalues --    3.48709   3.50870   3.51499   3.56124   3.57015
 Alpha virt. eigenvalues --    3.58390   3.59208   3.61344   3.61936   3.62351
 Alpha virt. eigenvalues --    3.63004   3.64271   3.66628   3.67654   3.73906
 Alpha virt. eigenvalues --    3.75137   3.78471   3.80502   3.82233   3.83063
 Alpha virt. eigenvalues --    3.87910   3.88002   3.91604   4.00382   4.00408
 Alpha virt. eigenvalues --    4.04660   4.06948   4.07955   4.10875   4.14096
 Alpha virt. eigenvalues --    4.16807   4.18030   4.19677   4.20469   4.20681
 Alpha virt. eigenvalues --    4.21039   4.22635   4.24751   4.27328   4.28411
 Alpha virt. eigenvalues --    4.28966   4.31462   4.33744   4.36795   4.37471
 Alpha virt. eigenvalues --    4.39002   4.40683   4.41072   4.41175   4.44510
 Alpha virt. eigenvalues --    4.46228   4.46443   4.47446   4.48393   4.49520
 Alpha virt. eigenvalues --    4.50105   4.55588   4.57006   4.59197   4.59394
 Alpha virt. eigenvalues --    4.61206   4.62418   4.62733   4.65684   4.66603
 Alpha virt. eigenvalues --    4.68745   4.69612   4.69713   4.70248   4.71096
 Alpha virt. eigenvalues --    4.74613   4.75470   4.76491   4.78592   4.78698
 Alpha virt. eigenvalues --    4.78993   4.79570   4.81827   4.82277   4.83596
 Alpha virt. eigenvalues --    4.84289   4.86739   4.86842   4.87680   4.90619
 Alpha virt. eigenvalues --    4.93722   4.93807   4.95127   5.00685   5.03990
 Alpha virt. eigenvalues --    5.04217   5.04544   5.05833   5.07560   5.08539
 Alpha virt. eigenvalues --    5.15027   5.18203   5.22464   5.23747   5.29279
 Alpha virt. eigenvalues --    5.30107   5.32637   5.36358   5.38991   5.43255
 Alpha virt. eigenvalues --    5.51365   5.51615   5.53768   5.57258   5.58555
 Alpha virt. eigenvalues --    5.61542   5.65506   5.66207   5.72238   5.74944
 Alpha virt. eigenvalues --    5.79642   5.82933   5.85982   5.87656   5.94083
 Alpha virt. eigenvalues --    5.95166   5.95869   6.07854   6.61841   6.78685
 Alpha virt. eigenvalues --    6.87928  11.22989  11.33519  11.80763  11.87729
 Alpha virt. eigenvalues --   11.95080  11.98647  12.40056  12.79712  12.95711
 Alpha virt. eigenvalues --   12.97907  13.30518
          Condensed to atoms (all electrons):
               1          2          3          4          5          6
     1  C    4.975168   0.420395  -0.024607  -0.000783   0.000048   0.000050
     2  C    0.420395   4.673873   0.324554  -0.037822  -0.004452  -0.004458
     3  O   -0.024607   0.324554   7.747420   0.341682  -0.035545  -0.035638
     4  S   -0.000783  -0.037822   0.341682  13.493450   0.678146   0.674569
     5  O    0.000048  -0.004452  -0.035545   0.678146   7.729235  -0.025780
     6  O    0.000050  -0.004458  -0.035638   0.674569  -0.025780   7.738382
     7  C   -0.000045   0.000605  -0.025763   0.314576  -0.042522  -0.042712
     8  C   -0.000000  -0.000063   0.000727  -0.013589  -0.004830  -0.004849
     9  C   -0.000000  -0.000000   0.000001   0.000471   0.000053   0.000054
    10  C    0.000000   0.000000  -0.000001   0.000267  -0.000003  -0.000003
    11  C    0.000000   0.000000  -0.000001   0.000264  -0.000003  -0.000003
    12  C    0.000000  -0.000000   0.000000  -0.000119   0.000001   0.000001
    13  H    0.371042  -0.021626   0.001785   0.000023   0.000005   0.000005
    14  H    0.374155  -0.023488   0.000838   0.000367  -0.000001  -0.000001
    15  H    0.374091  -0.023473   0.000846   0.000367  -0.000002  -0.000001
    16  H   -0.041582   0.369239  -0.029830   0.002969  -0.000750   0.008653
    17  H   -0.041565   0.369250  -0.029833   0.002805   0.008585  -0.000748
    18  H   -0.000004   0.000058   0.001135  -0.009728  -0.000396   0.001280
    19  H   -0.000004   0.000058   0.001135  -0.009857   0.001270  -0.000389
    20  H    0.000000   0.000003   0.000039   0.002918  -0.000359   0.006240
    21  H    0.000000   0.000003   0.000039   0.002829   0.006166  -0.000358
    22  H    0.000000   0.000000   0.000000  -0.000086   0.000000   0.000000
    23  H    0.000000   0.000000   0.000000   0.000002   0.000000  -0.000001
    24  H   -0.000000  -0.000000  -0.000000  -0.000008   0.000000  -0.000000
    25  H    0.000000   0.000000   0.000000  -0.000085   0.000000   0.000000
    26  H   -0.000000  -0.000000  -0.000000  -0.000008  -0.000000   0.000000
    27  H    0.000000   0.000000   0.000000   0.000003  -0.000001   0.000000
    28  H    0.000000  -0.000000  -0.000000   0.000003   0.000000  -0.000001
    29  H    0.000000  -0.000000  -0.000000   0.000003  -0.000001   0.000000
    30  H   -0.000000   0.000000  -0.000000   0.000000   0.000000   0.000000
               7          8          9         10         11         12
     1  C   -0.000045  -0.000000  -0.000000   0.000000   0.000000   0.000000
     2  C    0.000605  -0.000063  -0.000000   0.000000   0.000000  -0.000000
     3  O   -0.025763   0.000727   0.000001  -0.000001  -0.000001   0.000000
     4  S    0.314576  -0.013589   0.000471   0.000267   0.000264  -0.000119
     5  O   -0.042522  -0.004830   0.000053  -0.000003  -0.000003   0.000001
     6  O   -0.042712  -0.004849   0.000054  -0.000003  -0.000003   0.000001
     7  C    5.111659   0.386208  -0.025402  -0.004940  -0.004930   0.002325
     8  C    0.386208   4.905497   0.427402  -0.044497  -0.044498  -0.039431
     9  C   -0.025402   0.427402   4.361190   0.407475   0.407389   0.407434
    10  C   -0.004940  -0.044497   0.407475   5.060345  -0.057247  -0.051691
    11  C   -0.004930  -0.044498   0.407389  -0.057247   5.060468  -0.051690
    12  C    0.002325  -0.039431   0.407434  -0.051691  -0.051690   5.062017
    13  H    0.000001  -0.000000   0.000000   0.000000   0.000000  -0.000000
    14  H   -0.000003   0.000000   0.000000  -0.000000  -0.000000   0.000000
    15  H   -0.000003   0.000000   0.000000  -0.000000  -0.000000   0.000000
    16  H    0.000164   0.000010   0.000000   0.000000   0.000000   0.000000
    17  H    0.000163   0.000010   0.000000   0.000000   0.000000   0.000000
    18  H    0.350491  -0.026959  -0.003378  -0.000544   0.001973   0.000125
    19  H    0.350964  -0.026863  -0.003376   0.001982  -0.000542   0.000125
    20  H   -0.036045   0.356602  -0.022399  -0.006954   0.005397  -0.004449
    21  H   -0.036068   0.356636  -0.022409   0.005401  -0.006958  -0.004452
    22  H    0.000022  -0.005839  -0.020000   0.365052  -0.005019   0.005570
    23  H   -0.000125  -0.004383  -0.019312   0.366696   0.005514  -0.005017
    24  H    0.000057   0.004481  -0.019738   0.368431  -0.004328  -0.005419
    25  H    0.000017  -0.005837  -0.019997  -0.005018   0.365051   0.005571
    26  H    0.000057   0.004480  -0.019728  -0.004324   0.368425  -0.005418
    27  H   -0.000126  -0.004381  -0.019325   0.005514   0.366675  -0.005017
    28  H    0.000109  -0.004699  -0.018098  -0.005005   0.005495   0.364653
    29  H    0.000109  -0.004710  -0.018098   0.005494  -0.005005   0.364640
    30  H   -0.000152   0.003880  -0.018261  -0.004678  -0.004680   0.367572
              13         14         15         16         17         18
     1  C    0.371042   0.374155   0.374091  -0.041582  -0.041565  -0.000004
     2  C   -0.021626  -0.023488  -0.023473   0.369239   0.369250   0.000058
     3  O    0.001785   0.000838   0.000846  -0.029830  -0.029833   0.001135
     4  S    0.000023   0.000367   0.000367   0.002969   0.002805  -0.009728
     5  O    0.000005  -0.000001  -0.000002  -0.000750   0.008585  -0.000396
     6  O    0.000005  -0.000001  -0.000001   0.008653  -0.000748   0.001280
     7  C    0.000001  -0.000003  -0.000003   0.000164   0.000163   0.350491
     8  C   -0.000000   0.000000   0.000000   0.000010   0.000010  -0.026959
     9  C    0.000000   0.000000   0.000000   0.000000   0.000000  -0.003378
    10  C    0.000000  -0.000000  -0.000000   0.000000   0.000000  -0.000544
    11  C    0.000000  -0.000000  -0.000000   0.000000   0.000000   0.001973
    12  C   -0.000000   0.000000   0.000000   0.000000   0.000000   0.000125
    13  H    0.572465  -0.028002  -0.028006   0.000040   0.000030  -0.000000
    14  H   -0.028002   0.578968  -0.033594  -0.005765   0.005426  -0.000000
    15  H   -0.028006  -0.033594   0.579117   0.005423  -0.005771   0.000003
    16  H    0.000040  -0.005765   0.005423   0.608985  -0.048421  -0.000000
    17  H    0.000030   0.005426  -0.005771  -0.048421   0.609479  -0.000015
    18  H   -0.000000  -0.000000   0.000003  -0.000000  -0.000015   0.558436
    19  H   -0.000000   0.000003  -0.000000  -0.000015   0.000000  -0.031325
    20  H   -0.000000  -0.000000   0.000000  -0.000001  -0.000000   0.005217
    21  H   -0.000000   0.000000  -0.000000  -0.000000  -0.000001  -0.003848
    22  H   -0.000000  -0.000000   0.000000   0.000000  -0.000000   0.000331
    23  H   -0.000000   0.000000  -0.000000   0.000000  -0.000000   0.000044
    24  H    0.000000  -0.000000  -0.000000  -0.000000  -0.000000  -0.000023
    25  H   -0.000000   0.000000  -0.000000  -0.000000   0.000000   0.003778
    26  H    0.000000  -0.000000  -0.000000  -0.000000  -0.000000  -0.000200
    27  H   -0.000000  -0.000000   0.000000  -0.000000   0.000000   0.000564
    28  H    0.000000   0.000000  -0.000000   0.000000  -0.000000  -0.000000
    29  H    0.000000  -0.000000   0.000000  -0.000000   0.000000  -0.000004
    30  H    0.000000  -0.000000  -0.000000  -0.000000  -0.000000  -0.000000
              19         20         21         22         23         24
     1  C   -0.000004   0.000000   0.000000   0.000000   0.000000  -0.000000
     2  C    0.000058   0.000003   0.000003   0.000000   0.000000  -0.000000
     3  O    0.001135   0.000039   0.000039   0.000000   0.000000  -0.000000
     4  S   -0.009857   0.002918   0.002829  -0.000086   0.000002  -0.000008
     5  O    0.001270  -0.000359   0.006166   0.000000   0.000000   0.000000
     6  O   -0.000389   0.006240  -0.000358   0.000000  -0.000001  -0.000000
     7  C    0.350964  -0.036045  -0.036068   0.000022  -0.000125   0.000057
     8  C   -0.026863   0.356602   0.356636  -0.005839  -0.004383   0.004481
     9  C   -0.003376  -0.022399  -0.022409  -0.020000  -0.019312  -0.019738
    10  C    0.001982  -0.006954   0.005401   0.365052   0.366696   0.368431
    11  C   -0.000542   0.005397  -0.006958  -0.005019   0.005514  -0.004328
    12  C    0.000125  -0.004449  -0.004452   0.005570  -0.005017  -0.005419
    13  H   -0.000000  -0.000000  -0.000000  -0.000000  -0.000000   0.000000
    14  H    0.000003  -0.000000   0.000000  -0.000000   0.000000  -0.000000
    15  H   -0.000000   0.000000  -0.000000   0.000000  -0.000000  -0.000000
    16  H   -0.000015  -0.000001  -0.000000   0.000000   0.000000  -0.000000
    17  H    0.000000  -0.000000  -0.000001  -0.000000  -0.000000  -0.000000
    18  H   -0.031325   0.005217  -0.003848   0.000331   0.000044  -0.000023
    19  H    0.557603  -0.003853   0.005211   0.003773   0.000562  -0.000200
    20  H   -0.003853   0.596810  -0.035207  -0.000022   0.003995  -0.000074
    21  H    0.005211  -0.035207   0.597273  -0.000065  -0.000037  -0.000168
    22  H    0.003773  -0.000022  -0.000065   0.608738  -0.033049  -0.030889
    23  H    0.000562   0.003995  -0.000037  -0.033049   0.596469  -0.030896
    24  H   -0.000200  -0.000074  -0.000168  -0.030889  -0.030896   0.597302
    25  H    0.000331  -0.000065  -0.000022   0.003739  -0.000069  -0.000071
    26  H   -0.000023  -0.000168  -0.000074  -0.000071  -0.000066   0.003737
    27  H    0.000044  -0.000037   0.003999  -0.000069  -0.000208  -0.000066
    28  H   -0.000004   0.004298  -0.000144  -0.000069   0.003875  -0.000047
    29  H   -0.000000  -0.000143   0.004301  -0.000216  -0.000062  -0.000048
    30  H   -0.000000  -0.000085  -0.000086  -0.000048  -0.000040   0.003956
              25         26         27         28         29         30
     1  C    0.000000  -0.000000   0.000000   0.000000   0.000000  -0.000000
     2  C    0.000000  -0.000000   0.000000  -0.000000  -0.000000   0.000000
     3  O    0.000000  -0.000000   0.000000  -0.000000  -0.000000  -0.000000
     4  S   -0.000085  -0.000008   0.000003   0.000003   0.000003   0.000000
     5  O    0.000000  -0.000000  -0.000001   0.000000  -0.000001   0.000000
     6  O    0.000000   0.000000   0.000000  -0.000001   0.000000   0.000000
     7  C    0.000017   0.000057  -0.000126   0.000109   0.000109  -0.000152
     8  C   -0.005837   0.004480  -0.004381  -0.004699  -0.004710   0.003880
     9  C   -0.019997  -0.019728  -0.019325  -0.018098  -0.018098  -0.018261
    10  C   -0.005018  -0.004324   0.005514  -0.005005   0.005494  -0.004678
    11  C    0.365051   0.368425   0.366675   0.005495  -0.005005  -0.004680
    12  C    0.005571  -0.005418  -0.005017   0.364653   0.364640   0.367572
    13  H   -0.000000   0.000000  -0.000000   0.000000   0.000000   0.000000
    14  H    0.000000  -0.000000  -0.000000   0.000000  -0.000000  -0.000000
    15  H   -0.000000  -0.000000   0.000000  -0.000000   0.000000  -0.000000
    16  H   -0.000000  -0.000000  -0.000000   0.000000  -0.000000  -0.000000
    17  H    0.000000  -0.000000   0.000000  -0.000000   0.000000  -0.000000
    18  H    0.003778  -0.000200   0.000564  -0.000000  -0.000004  -0.000000
    19  H    0.000331  -0.000023   0.000044  -0.000004  -0.000000  -0.000000
    20  H   -0.000065  -0.000168  -0.000037   0.004298  -0.000143  -0.000085
    21  H   -0.000022  -0.000074   0.003999  -0.000144   0.004301  -0.000086
    22  H    0.003739  -0.000071  -0.000069  -0.000069  -0.000216  -0.000048
    23  H   -0.000069  -0.000066  -0.000208   0.003875  -0.000062  -0.000040
    24  H   -0.000071   0.003737  -0.000066  -0.000047  -0.000048   0.003956
    25  H    0.608738  -0.030889  -0.033057  -0.000216  -0.000069  -0.000049
    26  H   -0.030889   0.597286  -0.030896  -0.000048  -0.000047   0.003956
    27  H   -0.033057  -0.030896   0.596601  -0.000062   0.003875  -0.000040
    28  H   -0.000216  -0.000048  -0.000062   0.598752  -0.031285  -0.031613
    29  H   -0.000069  -0.000047   0.003875  -0.031285   0.598825  -0.031615
    30  H   -0.000049   0.003956  -0.000040  -0.031613  -0.031615   0.598549
 Mulliken charges:
               1
     1  C   -0.406362
     2  C   -0.042657
     3  O   -0.238986
     4  S    0.556372
     5  O   -0.308867
     6  O   -0.314292
     7  C   -0.298695
     8  C   -0.210503
     9  C    0.238051
    10  C   -0.401753
    11  C   -0.401747
    12  C   -0.407331
    13  H    0.132239
    14  H    0.131098
    15  H    0.131003
    16  H    0.130884
    17  H    0.130606
    18  H    0.152989
    19  H    0.153390
    20  H    0.128341
    21  H    0.128037
    22  H    0.108218
    23  H    0.116107
    24  H    0.114010
    25  H    0.108220
    26  H    0.114018
    27  H    0.116012
    28  H    0.114106
    29  H    0.114056
    30  H    0.113435
 Sum of Mulliken charges =  -0.00000
 Mulliken charges with hydrogens summed into heavy atoms:
               1
     1  C   -0.012022
     2  C    0.218833
     3  O   -0.238986
     4  S    0.556372
     5  O   -0.308867
     6  O   -0.314292
     7  C    0.007685
     8  C    0.045875
     9  C    0.238051
    10  C   -0.063418
    11  C   -0.063498
    12  C   -0.065734
 Electronic spatial extent (au):  <R**2>=           3631.7668
 Charge=             -0.0000 electrons
 Dipole moment (field-independent basis, Debye):
    X=             -0.7558    Y=              2.5742    Z=             -0.0218  Tot=              2.6829
 Quadrupole moment (field-independent basis, Debye-Ang):
   XX=            -68.3246   YY=            -85.5209   ZZ=            -85.8130
   XY=              2.8374   XZ=             -0.0312   YZ=              0.0324
 Traceless Quadrupole moment (field-independent basis, Debye-Ang):
   XX=             11.5615   YY=             -5.6347   ZZ=             -5.9268
   XY=              2.8374   XZ=             -0.0312   YZ=              0.0324
 Octapole moment (field-independent basis, Debye-Ang**2):
  XXX=             71.1458  YYY=             -2.1282  ZZZ=             -0.0477  XYY=              2.8129
  XXY=              2.4037  XXZ=             -0.0127  XZZ=              3.3036  YZZ=              3.1299
  YYZ=             -0.0436  XYZ=              0.0384
 Hexadecapole moment (field-independent basis, Debye-Ang**3):
 XXXX=          -3638.2640 YYYY=           -511.3740 ZZZZ=           -395.9313 XXXY=            -19.5263
 XXXZ=             -0.0300 YYYX=              4.1132 YYYZ=              0.0966 ZZZX=             -0.0642
 ZZZY=              0.0556 XXYY=           -746.9210 XXZZ=           -726.3393 YYZZ=           -154.5298
 XXYZ=              0.0707 YYXZ=             -0.0646 ZZXY=             15.4831
 N-N= 9.184963570861D+02 E-N=-4.043781776372D+03  KE= 9.340570010353D+02
 PrsmSu:  requested number of processors reduced to:  13 ShMem   1 Linda.
 Calling FoFJK, ICntrl=      2127 FMM=F ISym2X=0 I1Cent= 0 IOpClX= 0 NMat=1 NMatS=1 NMatT=0.
 ***** Axes restored to original set *****
 -------------------------------------------------------------------
 Center     Atomic                   Forces (Hartrees/Bohr)
 Number     Number              X              Y              Z
 -------------------------------------------------------------------
      1        6          -0.002704841   -0.009891380    0.005746984
      2        6          -0.001690761    0.019269153   -0.011178929
      3        8           0.008878336   -0.012775751    0.007198334
      4       16          -0.004880573    0.005195892    0.003609017
      5        8           0.000323484    0.005633293    0.005185571
      6        8          -0.001202175   -0.006306563   -0.010937897
      7        6          -0.000627895   -0.004584491    0.002362454
      8        6           0.006295758    0.006496218   -0.003755042
      9        6           0.000463664   -0.004193442    0.002430620
     10        6          -0.001139578    0.000768695    0.002179853
     11        6          -0.001138932   -0.001521408   -0.001733371
     12        6           0.000372556    0.002985946   -0.001743510
     13        1           0.002452936   -0.001183071    0.000690963
     14        1          -0.000261773    0.000506927    0.000508976
     15        1          -0.000269508   -0.000191455   -0.000689989
     16        1           0.002665453    0.000287721   -0.000532553
     17        1           0.002638675    0.000617444   -0.000024326
     18        1          -0.001557412    0.002090567    0.000171996
     19        1          -0.001629107    0.001036776   -0.001933381
     20        1          -0.002208772   -0.001598107    0.000486625
     21        1          -0.002175370   -0.001231227    0.001141718
     22        1          -0.000417920   -0.000503283    0.000948455
     23        1          -0.000351315   -0.000502218    0.000256549
     24        1           0.000515542    0.000070026   -0.000396056
     25        1          -0.000416603   -0.001072007   -0.000028467
     26        1           0.000517091    0.000376131    0.000132433
     27        1          -0.000347858   -0.000473491    0.000305621
     28        1          -0.000352691    0.000015213   -0.000231651
     29        1          -0.000351596    0.000208792    0.000102211
     30        1          -0.001398813    0.000469097   -0.000273207
 -------------------------------------------------------------------
 Cartesian Forces:  Max     0.019269153 RMS     0.004009675

 GradGradGradGradGradGradGradGradGradGradGradGradGradGradGradGradGradGrad
 Berny optimization.
 FormGI is forming the generalized inverse of G from B-inverse, IUseBI=4.
 Internal  Forces:  Max     0.020484278 RMS     0.003294357
 Search for a local minimum.
 Step number   1 out of a maximum of  163
 All quantities printed in internal units (Hartrees-Bohrs-Radians)
 Mixed Optimization -- RFO/linear search
 Second derivative matrix not updated -- first step.
 ITU=  0
     Eigenvalues ---    0.00230   0.00230   0.00246   0.00294   0.00294
     Eigenvalues ---    0.00515   0.00571   0.01325   0.02093   0.03157
     Eigenvalues ---    0.04010   0.04501   0.04662   0.04810   0.04891
     Eigenvalues ---    0.04914   0.04981   0.05353   0.05393   0.05393
     Eigenvalues ---    0.05409   0.05456   0.05456   0.05593   0.05813
     Eigenvalues ---    0.06043   0.07730   0.08712   0.08748   0.10309
     Eigenvalues ---    0.11662   0.11663   0.12513   0.14012   0.14372
     Eigenvalues ---    0.14416   0.16000   0.16000   0.16000   0.16000
     Eigenvalues ---    0.16000   0.16000   0.16000   0.16000   0.16000
     Eigenvalues ---    0.16000   0.16000   0.16000   0.16173   0.20146
     Eigenvalues ---    0.21918   0.21949   0.22117   0.25000   0.25000
     Eigenvalues ---    0.26995   0.27991   0.28350   0.28578   0.28906
     Eigenvalues ---    0.28906   0.30878   0.33781   0.33782   0.34071
     Eigenvalues ---    0.34084   0.34101   0.34102   0.34132   0.34133
     Eigenvalues ---    0.34237   0.34240   0.34249   0.34250   0.34346
     Eigenvalues ---    0.34346   0.34398   0.34399   0.34489   0.34507
     Eigenvalues ---    0.41318   0.44236   0.95503   0.97864
 RFO step:  Lambda=-6.79319194D-03 EMin= 2.30000000D-03
 Linear search not attempted -- first point.
 Iteration  1 RMS(Cart)=  0.09014238 RMS(Int)=  0.00280665
 Iteration  2 RMS(Cart)=  0.00625981 RMS(Int)=  0.00022598
 Iteration  3 RMS(Cart)=  0.00001801 RMS(Int)=  0.00022590
 Iteration  4 RMS(Cart)=  0.00000001 RMS(Int)=  0.00022590
 Variable       Old X    -DE/DX   Delta X   Delta X   Delta X     New X
                                 (Linear)    (Quad)   (Total)
    R1        2.86246   0.00141   0.00000   0.00448   0.00448   2.86694
    R2        2.07211  -0.00220   0.00000  -0.00632  -0.00632   2.06579
    R3        2.06662   0.00056   0.00000   0.00161   0.00161   2.06823
    R4        2.06663   0.00057   0.00000   0.00161   0.00161   2.06825
    R5        2.69801   0.00850   0.00000   0.02024   0.02024   2.71826
    R6        2.06931   0.00079   0.00000   0.00226   0.00226   2.07157
    R7        2.06927   0.00082   0.00000   0.00234   0.00234   2.07161
    R8        3.09873  -0.01148   0.00000  -0.02557  -0.02557   3.07316
    R9        2.73207  -0.00541   0.00000  -0.00549  -0.00549   2.72658
   R10        2.74196  -0.01135   0.00000  -0.01181  -0.01181   2.73015
   R11        3.38090  -0.00025   0.00000  -0.00092  -0.00092   3.37998
   R12        2.90893  -0.00215   0.00000  -0.00736  -0.00736   2.90157
   R13        2.06513  -0.00105   0.00000  -0.00300  -0.00300   2.06213
   R14        2.06483  -0.00104   0.00000  -0.00296  -0.00296   2.06187
   R15        2.92158   0.00226   0.00000   0.00789   0.00789   2.92946
   R16        2.07701  -0.00190   0.00000  -0.00552  -0.00552   2.07149
   R17        2.07700  -0.00188   0.00000  -0.00546  -0.00546   2.07154
   R18        2.90200   0.00327   0.00000   0.01106   0.01106   2.91306
   R19        2.90200   0.00328   0.00000   0.01107   0.01107   2.91307
   R20        2.91379  -0.00166   0.00000  -0.00572  -0.00572   2.90807
   R21        2.06751   0.00050   0.00000   0.00142   0.00142   2.06893
   R22        2.07160  -0.00040   0.00000  -0.00114  -0.00114   2.07045
   R23        2.06911  -0.00007   0.00000  -0.00019  -0.00019   2.06893
   R24        2.06751   0.00050   0.00000   0.00142   0.00142   2.06892
   R25        2.06911  -0.00006   0.00000  -0.00018  -0.00018   2.06893
   R26        2.07159  -0.00039   0.00000  -0.00113  -0.00113   2.07046
   R27        2.07107  -0.00022   0.00000  -0.00063  -0.00063   2.07044
   R28        2.07108  -0.00022   0.00000  -0.00064  -0.00064   2.07044
   R29        2.07189  -0.00103   0.00000  -0.00295  -0.00295   2.06894
    A1        1.90788  -0.00281   0.00000  -0.02013  -0.02014   1.88774
    A2        1.94559   0.00058   0.00000   0.00511   0.00507   1.95066
    A3        1.94559   0.00059   0.00000   0.00521   0.00517   1.95076
    A4        1.89038   0.00078   0.00000   0.00156   0.00155   1.89193
    A5        1.89039   0.00078   0.00000   0.00157   0.00156   1.89195
    A6        1.88236   0.00015   0.00000   0.00688   0.00681   1.88917
    A7        1.98040  -0.02048   0.00000  -0.09397  -0.09360   1.88679
    A8        1.89619   0.00713   0.00000   0.03788   0.03715   1.93335
    A9        1.89621   0.00710   0.00000   0.03766   0.03693   1.93314
   A10        1.89701   0.00509   0.00000   0.01142   0.01198   1.90899
   A11        1.89711   0.00512   0.00000   0.01167   0.01222   1.90933
   A12        1.89538  -0.00356   0.00000  -0.00192  -0.00325   1.89213
   A13        1.97681   0.00629   0.00000   0.02450   0.02450   2.00131
   A14        1.88317   0.00447   0.00000   0.01446   0.01498   1.89815
   A15        1.88022   0.00467   0.00000   0.01672   0.01730   1.89752
   A16        1.75988  -0.01716   0.00000  -0.06577  -0.06525   1.69462
   A17        2.12596  -0.00756   0.00000  -0.03140  -0.03193   2.09403
   A18        1.89132   0.00650   0.00000   0.02779   0.02769   1.91902
   A19        1.88855   0.00672   0.00000   0.02948   0.02944   1.91799
   A20        1.90313  -0.00042   0.00000  -0.00243  -0.00235   1.90078
   A21        1.87253  -0.00107   0.00000  -0.01418  -0.01419   1.85834
   A22        1.87449  -0.00125   0.00000  -0.01625  -0.01626   1.85823
   A23        1.94663   0.00146   0.00000   0.01692   0.01683   1.96347
   A24        1.94677   0.00154   0.00000   0.01696   0.01686   1.96363
   A25        1.91728  -0.00046   0.00000  -0.00356  -0.00399   1.91330
   A26        2.01150   0.00183   0.00000   0.00505   0.00506   2.01656
   A27        1.90018  -0.00127   0.00000  -0.01022  -0.01022   1.88995
   A28        1.90028  -0.00124   0.00000  -0.00995  -0.00995   1.89032
   A29        1.90277  -0.00030   0.00000   0.00003   0.00003   1.90280
   A30        1.90278  -0.00032   0.00000  -0.00015  -0.00015   1.90263
   A31        1.83849   0.00127   0.00000   0.01644   0.01641   1.85490
   A32        1.92585   0.00170   0.00000   0.01473   0.01457   1.94042
   A33        1.92585   0.00171   0.00000   0.01482   0.01467   1.94051
   A34        1.90623  -0.00398   0.00000  -0.03938  -0.03929   1.86695
   A35        1.91839  -0.00186   0.00000   0.00046   0.00026   1.91865
   A36        1.89343   0.00120   0.00000   0.00435   0.00442   1.89785
   A37        1.89344   0.00119   0.00000   0.00433   0.00440   1.89784
   A38        1.95044   0.00143   0.00000   0.01001   0.00999   1.96043
   A39        1.93534   0.00071   0.00000   0.00489   0.00486   1.94020
   A40        1.94049  -0.00128   0.00000  -0.00971  -0.00969   1.93080
   A41        1.88218  -0.00067   0.00000  -0.00015  -0.00022   1.88196
   A42        1.86966  -0.00021   0.00000  -0.00236  -0.00233   1.86733
   A43        1.88265  -0.00005   0.00000  -0.00308  -0.00308   1.87957
   A44        1.95044   0.00142   0.00000   0.01000   0.00998   1.96042
   A45        1.94049  -0.00127   0.00000  -0.00969  -0.00968   1.93081
   A46        1.93533   0.00072   0.00000   0.00490   0.00487   1.94020
   A47        1.86966  -0.00021   0.00000  -0.00235  -0.00232   1.86733
   A48        1.88218  -0.00067   0.00000  -0.00014  -0.00021   1.88197
   A49        1.88266  -0.00005   0.00000  -0.00311  -0.00311   1.87955
   A50        1.94449  -0.00010   0.00000  -0.00050  -0.00051   1.94399
   A51        1.94448  -0.00010   0.00000  -0.00048  -0.00049   1.94400
   A52        1.93747  -0.00143   0.00000  -0.00878  -0.00878   1.92868
   A53        1.88003   0.00015   0.00000   0.00132   0.00132   1.88135
   A54        1.87712   0.00079   0.00000   0.00453   0.00452   1.88164
   A55        1.87711   0.00079   0.00000   0.00453   0.00452   1.88163
    D1        3.14153  -0.00001   0.00000  -0.00009  -0.00009   3.14144
    D2        1.02951   0.00187   0.00000   0.02004   0.02059   1.05010
    D3       -1.02950  -0.00187   0.00000  -0.02006  -0.02061  -1.05011
    D4        1.05220   0.00049   0.00000   0.00790   0.00791   1.06011
    D5       -1.05982   0.00237   0.00000   0.02802   0.02859  -1.03123
    D6       -3.11883  -0.00137   0.00000  -0.01207  -0.01261  -3.13144
    D7       -1.05232  -0.00050   0.00000  -0.00800  -0.00801  -1.06034
    D8        3.11885   0.00137   0.00000   0.01212   0.01267   3.13151
    D9        1.05983  -0.00236   0.00000  -0.02797  -0.02854   1.03130
   D10        3.14031  -0.00000   0.00000   0.00031   0.00031   3.14062
   D11       -1.03132  -0.00074   0.00000  -0.00498  -0.00465  -1.03597
   D12        1.02866   0.00076   0.00000   0.00573   0.00541   1.03407
   D13       -1.16125   0.00139   0.00000   0.00762   0.00752  -1.15372
   D14        1.16380  -0.00154   0.00000  -0.00962  -0.00948   1.15432
   D15        3.14083   0.00011   0.00000   0.00045   0.00041   3.14124
   D16       -3.14062  -0.00011   0.00000  -0.00050  -0.00049  -3.14111
   D17        1.03183  -0.00099   0.00000  -0.01109  -0.01102   1.02081
   D18       -1.02856   0.00076   0.00000   0.00890   0.00886  -1.01970
   D19        1.16765   0.00025   0.00000   0.00285   0.00313   1.17077
   D20       -0.94310  -0.00063   0.00000  -0.00774  -0.00740  -0.95050
   D21       -3.00348   0.00113   0.00000   0.01225   0.01247  -2.99101
   D22       -1.16993  -0.00013   0.00000  -0.00056  -0.00085  -1.17079
   D23        3.00251  -0.00101   0.00000  -0.01115  -0.01138   2.99113
   D24        0.94213   0.00075   0.00000   0.00884   0.00849   0.95062
   D25       -3.14045  -0.00005   0.00000  -0.00104  -0.00104  -3.14149
   D26        0.99909   0.00002   0.00000   0.00332   0.00333   1.00241
   D27       -0.99670  -0.00014   0.00000  -0.00543  -0.00544  -1.00214
   D28       -1.07564  -0.00076   0.00000  -0.00984  -0.00992  -1.08556
   D29        3.06389  -0.00069   0.00000  -0.00548  -0.00555   3.05834
   D30        1.06810  -0.00085   0.00000  -0.01423  -0.01431   1.05379
   D31        1.07544   0.00082   0.00000   0.01028   0.01036   1.08580
   D32       -1.06821   0.00090   0.00000   0.01465   0.01473  -1.05348
   D33       -3.06400   0.00073   0.00000   0.00590   0.00597  -3.05804
   D34       -1.06165   0.00004   0.00000  -0.00996  -0.01007  -1.07172
   D35        1.06178  -0.00003   0.00000   0.01025   0.01036   1.07214
   D36       -3.14152   0.00001   0.00000   0.00016   0.00016  -3.14136
   D37        1.08062  -0.00055   0.00000  -0.01979  -0.01990   1.06072
   D38       -3.07914  -0.00062   0.00000   0.00042   0.00053  -3.07861
   D39       -0.99925  -0.00059   0.00000  -0.00966  -0.00967  -1.00892
   D40        3.07913   0.00062   0.00000  -0.00035  -0.00046   3.07867
   D41       -1.08063   0.00055   0.00000   0.01986   0.01997  -1.06066
   D42        0.99925   0.00058   0.00000   0.00977   0.00977   1.00903
   D43        1.08021   0.00215   0.00000   0.04423   0.04426   1.12447
   D44       -1.02034   0.00155   0.00000   0.03430   0.03428  -0.98606
   D45       -3.11482   0.00198   0.00000   0.04137   0.04137  -3.07345
   D46       -1.04763   0.00012   0.00000   0.01566   0.01571  -1.03192
   D47        3.13501  -0.00049   0.00000   0.00573   0.00573   3.14074
   D48        1.04053  -0.00005   0.00000   0.01281   0.01282   1.05335
   D49       -3.11534  -0.00096   0.00000   0.00758   0.00758  -3.10776
   D50        1.06730  -0.00157   0.00000  -0.00235  -0.00239   1.06490
   D51       -1.02718  -0.00113   0.00000   0.00472   0.00469  -1.02249
   D52       -1.08021  -0.00215   0.00000  -0.04418  -0.04421  -1.12442
   D53        3.11481  -0.00198   0.00000  -0.04134  -0.04133   3.07348
   D54        1.02033  -0.00154   0.00000  -0.03424  -0.03423   0.98611
   D55        1.04763  -0.00012   0.00000  -0.01568  -0.01572   1.03191
   D56       -1.04053   0.00005   0.00000  -0.01283  -0.01284  -1.05337
   D57       -3.13501   0.00049   0.00000  -0.00573  -0.00573  -3.14075
   D58        3.11534   0.00096   0.00000  -0.00758  -0.00758   3.10775
   D59        1.02717   0.00113   0.00000  -0.00473  -0.00470   1.02247
   D60       -1.06731   0.00157   0.00000   0.00236   0.00240  -1.06490
   D61        1.05002   0.00003   0.00000   0.00045   0.00045   1.05047
   D62       -1.05002  -0.00003   0.00000  -0.00055  -0.00054  -1.05057
   D63       -3.14159  -0.00000   0.00000  -0.00005  -0.00005   3.14155
   D64       -1.04985  -0.00040   0.00000   0.00327   0.00321  -1.04665
   D65        3.13329  -0.00046   0.00000   0.00227   0.00221   3.13550
   D66        1.04173  -0.00043   0.00000   0.00276   0.00270   1.04443
   D67       -3.13329   0.00046   0.00000  -0.00225  -0.00220  -3.13549
   D68        1.04985   0.00040   0.00000  -0.00325  -0.00319   1.04666
   D69       -1.04171   0.00043   0.00000  -0.00276  -0.00270  -1.04441
         Item               Value     Threshold  Converged?
 Maximum Force            0.020484     0.000450     NO 
 RMS     Force            0.003294     0.000300     NO 
 Maximum Displacement     0.374476     0.001800     NO 
 RMS     Displacement     0.093429     0.001200     NO 
 Predicted change in Energy=-3.556975D-03
 GradGradGradGradGradGradGradGradGradGradGradGradGradGradGradGradGradGrad

                          Input orientation:                          
 ---------------------------------------------------------------------
 Center     Atomic      Atomic             Coordinates (Angstroms)
 Number     Number       Type             X           Y           Z
 ---------------------------------------------------------------------
      1          6           0        1.159729   -0.272918    0.099707
      2          6           0        2.649387   -0.024416   -0.044581
      3          8           0        3.347272   -1.111208    0.588623
      4         16           0        4.968821   -1.004963    0.525565
      5          8           0        5.388624   -1.127105   -0.849440
      6          8           0        5.389843    0.132453    1.310601
      7          6           0        5.323936   -2.519129    1.408918
      8          6           0        6.846399   -2.691272    1.509197
      9          6           0        7.327634   -3.964199    2.251629
     10          6           0        6.846624   -3.970058    3.716175
     11          6           0        6.847003   -5.241916    1.535564
     12          6           0        8.866228   -3.938166    2.236706
     13          1           0        0.628454    0.552656   -0.381119
     14          1           0        0.855126   -0.314612    1.150100
     15          1           0        0.855443   -1.207085   -0.382582
     16          1           0        2.934350    0.919315    0.434883
     17          1           0        2.934553    0.024506   -1.101961
     18          1           0        4.848822   -3.324387    0.846233
     19          1           0        4.848879   -2.425500    2.386690
     20          1           0        7.260206   -1.807981    2.009383
     21          1           0        7.260467   -2.691814    0.494197
     22          1           0        5.755938   -4.022669    3.795473
     23          1           0        7.178375   -3.069735    4.245116
     24          1           0        7.248427   -4.836987    4.250627
     25          1           0        5.756332   -5.337001    1.542047
     26          1           0        7.248824   -6.133869    2.027103
     27          1           0        7.179027   -5.259005    0.491582
     28          1           0        9.255585   -3.047404    2.742021
     29          1           0        9.255855   -3.939382    1.212697
     30          1           0        9.269667   -4.817316    2.749535
 ---------------------------------------------------------------------
                    Distance matrix (angstroms):
                    1          2          3          4          5
     1  C    0.000000
     2  C    1.517120   0.000000
     3  O    2.393139   1.438439   0.000000
     4  S    3.902105   2.581920   1.626248   0.000000
     5  O    4.417473   3.060579   2.497077   1.442842   0.000000
     6  O    4.418649   3.061246   2.498007   1.444734   2.500453
     7  C    4.909186   3.935666   2.561703   1.788607   2.653695
     8  C    6.338242   5.209727   3.948157   2.708591   3.183535
     9  C    7.503291   6.533029   5.171888   4.159372   4.628768
    10  C    7.686901   6.879547   5.495458   4.743197   5.572520
    11  C    7.687504   6.880345   5.496141   4.743357   4.974614
    12  C    8.797211   7.692257   6.416131   5.169280   5.433239
    13  H    1.093170   2.128483   3.331789   4.699685   5.069531
    14  H    1.094461   2.175052   2.675933   4.217714   5.021047
    15  H    1.094468   2.175129   2.676126   4.217282   4.557860
    16  H    2.164034   1.096229   2.077778   2.801810   3.443948
    17  H    2.163901   1.096250   2.078041   2.801231   2.722580
    18  H    4.845427   4.064587   2.686852   2.344558   2.827498
    19  H    4.844969   4.063748   2.686118   2.344375   3.528412
    20  H    6.574123   5.353459   4.220793   2.845522   3.484146
    21  H    6.574624   5.354190   4.221412   2.845714   2.785223
    22  H    6.988880   6.354738   4.956022   4.518671   5.485838
    23  H    7.825004   6.941700   5.646514   4.793795   5.738599
    24  H    8.667935   7.922172   6.520023   5.810085   6.575163
    25  H    6.989566   6.355632   4.956805   4.518845   4.855682
    26  H    8.668487   7.922885   6.520618   5.810224   6.066509
    27  H    7.826019   6.943056   5.647653   4.794063   4.698562
    28  H    8.956700   7.781096   6.579828   5.240285   5.616007
    29  H    8.957062   7.781589   6.580227   5.240384   5.207378
    30  H    9.666656   8.637539   7.312971   6.162577   6.452346
                    6          7          8          9         10
     6  O    0.000000
     7  C    2.654222   0.000000
     8  C    3.183460   1.535442   0.000000
     9  C    4.628512   2.610210   1.550205   0.000000
    10  C    4.973891   3.122052   2.550695   1.541525   0.000000
    11  C    5.572949   3.122394   2.550781   1.541530   2.524418
    12  C    5.432573   3.904706   2.482685   1.538886   2.503726
    13  H    5.070435   5.889622   7.263553   8.497785   8.712542
    14  H    4.559528   4.989704   6.455449   7.511739   7.472956
    15  H    5.022153   4.989826   6.455478   7.511991   7.767115
    16  H    2.723138   4.299041   5.430894   6.815440   7.069563
    17  H    3.443916   4.299272   5.431034   6.815827   7.380736
    18  H    3.529601   1.091232   2.197879   2.920447   3.555934
    19  H    2.827319   1.091092   2.197889   2.920628   2.853800
    20  H    2.784212   2.148355   1.096186   2.170831   2.785456
    21  H    3.484570   2.148648   1.096211   2.170724   3.490891
    22  H    4.855270   2.853576   2.861604   2.203884   1.094830
    23  H    4.697258   3.433093   2.781851   2.190054   1.095637
    24  H    6.065757   4.141429   3.504448   2.182664   1.094829
    25  H    5.486603   2.853961   2.861679   2.203879   2.790000
    26  H    6.575407   4.141702   3.504518   2.182680   2.774312
    27  H    5.739319   3.433626   2.781984   2.190062   3.488535
    28  H    5.206190   4.184986   2.729627   2.190432   2.757419
    29  H    5.615645   4.185166   2.729683   2.190441   3.474585
    30  H    6.451649   4.758962   3.454089   2.178809   2.742878
[...]
 0000361,-0.00000261,-0.00000065,0.00000476,-0.00000145,0.00000203,-0.0
 0000851,0.00000295,0.00000330,-0.00000848,0.00000824,0.00003407,-0.000
 01339,0.00007596,-0.00014353,-0.00006076,-0.00004700,0.00010524,0.0004
 2182,-0.00021321,0.00018984,0.00015518,0.00029830,-0.00118691,0.001682
 56,-0.00176118,0.01065701,-0.02034366,0.01319503,-0.08489249,0.2268573
 1,-0.00000101,0.00002898,-0.00001608,0.00006617,-0.00012415,0.00006424
 ,-0.00032148,0.00019474,-0.00008432,0.00044725,-0.00048201,0.00004418,
 -0.00020107,0.00015624,-0.00002666,-0.00006152,0.00018369,0.00004659,0
 .00079140,-0.00023042,0.00009602,0.00267414,-0.00172127,-0.00565673,-0
 .01166269,0.02539381,-0.01598590,-0.04707531,0.09960832,-0.10745108,-0
 .00048348,0.00138104,0.00118489,-0.00161904,0.00056968,0.00109319,-0.0
 0001677,0.00000005,0.00000013,-0.00000172,-0.00000386,0.00000404,0.000
 00016,-0.00000469,0.00000150,-0.00000258,0.00001357,-0.00000543,0.0000
 0013,0.00000968,-0.00000593,-0.00007473,0.00002116,-0.00002946,-0.0001
 7686,-0.00002133,0.00009156,0.00014053,-0.00001746,0.00016995,-0.00053
 847,0.00175131,-0.00098264,0.00020051,-0.00129842,0.00011802,0.0065498
 8,-0.01213122,0.00764863,0.05012183,-0.11103177,0.11900060,-0.00000346
 ,-0.00000040,-0.00000650,0.00005967,-0.00006686,0.00003568,-0.00004642
 ,0.00005257,-0.00003133,0.00030652,-0.00042086,0.00050973,0.00004053,0
 .00009170,-0.00017655,0.00002828,0.00043572,-0.00001145,-0.00055818,0.
 00062905,-0.00073411,-0.00044309,0.00022743,-0.00035202,-0.01035732,0.
 00030170,0.00079052,0.00033038,0.00054034,0.00076107,-0.30529571,-0.01
 584211,0.00669526,0.00060874,-0.00293679,-0.00165073,-0.00000504,0.000
 00613,-0.00000224,0.00000240,-0.00000474,0.00000016,0.00000572,-0.0000
 0068,0.00000644,0.00000024,0.00001246,-0.00000052,-0.00000329,0.000003
 26,-0.00000618,0.00049837,0.00094726,0.00036113,0.00002778,-0.00001947
 ,-0.00000348,0.00010736,-0.00012722,0.00002159,0.00001620,0.00004915,-
 0.00006411,0.00066986,-0.00014354,-0.00064491,0.00036853,-0.00005985,-
 0.00002417,-0.00004238,-0.00004134,0.00000742,0.33439343,-0.00000248,0
 .00002336,-0.00001423,0.00009196,-0.00013112,0.00007300,-0.00023643,0.
 00017582,-0.00009525,0.00031988,-0.00056037,0.00047509,0.00001016,0.00
 014591,-0.00023407,-0.00001164,0.00038287,-0.00002274,0.00016897,-0.00
 087285,-0.00008622,-0.00049819,0.00126213,0.00032835,-0.02749538,-0.00
 035439,0.00152506,-0.00032861,0.00090826,0.00132868,-0.01459961,-0.047
 49651,-0.00021988,-0.00060727,-0.00482381,-0.00266838,-0.00001563,0.00
 000361,-0.00000154,0.00000237,-0.00000541,0.00000258,0.00000310,-0.000
 00486,0.00000365,-0.00000328,0.00001612,-0.00000467,-0.00000466,0.0000
 1178,-0.00001087,0.00083966,-0.00128373,0.00061343,0.00009118,0.000012
 96,-0.00003504,0.00015317,0.00015017,-0.00014948,0.00001400,-0.0001199
 8,-0.00000934,0.00049066,0.00015976,-0.00039749,0.00014979,-0.00002262
 ,0.00030342,0.00015630,-0.00001434,-0.00009266,0.01694037,0.05136869,0
 .00000096,-0.00000155,0.00001093,-0.00002938,0.00004075,-0.00001564,0.
 00006398,-0.00007450,0.00001055,-0.00002623,0.00019654,-0.00009093,-0.
 00000756,-0.00004855,-0.00002055,-0.00001115,-0.00010847,-0.00001366,0
 .00028535,0.00018093,0.00043126,0.00040998,0.00049555,0.00006310,-0.01
 542129,0.00051703,-0.00104139,-0.00125531,0.00051398,0.00100832,0.0074
 5345,0.00007246,-0.04730495,-0.00063022,-0.00290245,-0.00166158,0.0000
 0497,-0.00000183,-0.00000120,0.00000147,-0.00000095,-0.00000391,-0.000
 00438,0.00000031,-0.00000097,0.00000100,-0.00000794,0.00000051,0.00000
 329,0.00000033,0.00000065,-0.00029873,0.00046029,0.00002877,0.00001756
 ,-0.00015608,-0.00005603,-0.00008083,0.00004211,-0.00003653,0.00004966
 ,-0.00003925,0.00005316,0.00044256,-0.00025598,-0.00021003,0.00023198,
 0.00015499,0.00016339,-0.00007019,-0.00000508,-0.00007790,-0.00620050,
 0.00124754,0.04761000,-0.00000212,0.00000908,-0.00000924,0.00006391,-0
 .00007569,0.00004391,-0.00012759,0.00009415,-0.00005218,0.00023840,-0.
 00043030,0.00038695,0.00000136,0.00007898,-0.00013440,0.00000797,0.000
 29047,-0.00000711,-0.00035238,0.00015146,-0.00049565,-0.00093266,-0.00
 228122,-0.00117641,0.00263268,-0.00901597,0.00514420,-0.00006088,0.000
 30809,0.00016849,-0.08189589,0.07991111,-0.04362940,0.00091530,-0.0010
 0865,0.00069244,-0.00000820,0.00000395,-0.00000100,0.00000165,-0.00000
 326,0.00000189,0.00000409,-0.00000270,0.00000361,-0.00000260,0.0000121
 1,-0.00000347,-0.00000383,0.00000634,-0.00000582,0.00040007,0.00001948
 ,0.00037671,0.00003435,0.00002303,0.00001225,0.00049817,-0.00070484,0.
 00020723,-0.00001098,0.00019138,-0.00021209,-0.00004232,0.00013803,-0.
 00010145,-0.00007804,-0.00008914,0.00019138,0.00027093,0.00013250,0.00
 014326,-0.01184620,0.02657726,-0.01518947,0.08693495,0.00000164,-0.000
 03342,0.00002045,-0.00009338,0.00015286,-0.00009392,0.00039698,-0.0002
 1249,0.00013978,-0.00052346,0.00040458,-0.00037230,0.00009299,-0.00010
 453,0.00016853,0.00020197,-0.00015142,0.00010762,-0.00076425,0.0002438
 2,-0.00014480,-0.00253223,-0.00332264,-0.00415195,0.00994371,-0.023106
 84,0.01297059,0.00034429,0.00065200,0.00141147,0.07875940,-0.21825644,
 0.09509677,0.00156410,0.00075140,0.00098669,0.00002094,-0.00000126,0.0
 0000070,-0.00000041,0.00000493,-0.00000459,0.00000029,0.00000670,-0.00
 000212,0.00000144,-0.00001429,0.00000641,0.00000315,-0.00001326,0.0000
 1090,0.00008324,0.00008384,0.00006051,0.00008180,-0.00006721,-0.000009
 30,0.00056222,-0.00158532,0.00076612,-0.00007040,0.00033003,-0.0000694
 9,-0.00002684,-0.00002054,-0.00009615,-0.00027210,0.00039285,-0.000063
 39,-0.00005941,0.00038174,-0.00100029,-0.00075955,0.00180982,-0.001227
 09,-0.08544356,0.24035579,-0.00000091,0.00000166,-0.00000097,0.0000307
 9,-0.00003240,0.00001091,-0.00004902,0.00003169,0.00001266,0.00001700,
 -0.00015478,-0.00014976,-0.00003939,0.00008330,0.00007339,0.00005143,0
 .00006426,0.00005930,-0.00025602,-0.00003066,-0.00005468,-0.00095576,-
 0.00240234,-0.00136172,0.00611114,-0.01281144,0.00596270,0.00037327,-0
 .00043996,0.00113108,-0.04357119,0.09616757,-0.09948452,0.00052347,0.0
 0003406,0.00035654,-0.00000292,0.00000240,-0.00000106,0.00000045,-0.00
 000137,0.00000131,0.00000306,-0.00000084,0.00000095,-0.00000288,0.0000
 0502,-0.00000017,-0.00000042,0.00000027,-0.00000071,0.00021189,0.00003
 481,-0.00005317,0.00000714,0.00004546,0.00002432,0.00010002,-0.0006866
 3,0.00075775,-0.00016081,-0.00026515,0.00026188,0.00003230,-0.00000867
 ,-0.00007166,-0.00003742,0.00022178,0.00018491,-0.00018583,0.00002789,
 -0.00016873,0.00093478,-0.00169077,-0.00000783,0.04919530,-0.10338429,
 0.10549323,-0.00000097,0.00000203,0.00000403,-0.00002034,0.00002040,0.
 00000171,0.00004354,-0.00001532,-0.00003708,-0.00006712,0.00011710,0.0
 0020374,0.00003739,-0.00008321,-0.00014640,0.00000042,-0.00003508,-0.0
 0005094,0.00003428,0.00001611,0.00002877,0.00024146,0.00035308,0.00032
 042,0.00185926,0.00084192,-0.01024146,-0.00061775,-0.00161137,-0.00089
 730,-0.07076254,-0.00020859,0.07447946,0.00096814,0.00031250,-0.000958
 33,0.00000214,-0.00000013,-0.00000054,0.00000234,-0.00000225,-0.000004
 30,-0.00000308,-0.00000092,0.00000207,0.00000078,-0.00000373,-0.000001
 22,0.00000081,0.00000385,-0.00000291,-0.00021387,0.00000039,0.00015577
 ,-0.00000811,-0.00014572,-0.00008129,-0.00007006,0.00012583,-0.0001163
 7,0.00015448,0.00014605,0.00010588,0.00036852,-0.00012816,-0.00024461,
 0.00073369,-0.00018621,-0.00053512,-0.00007809,-0.00010145,0.00025520,
 -0.00868975,-0.00041644,0.03132536,0.00335568,-0.00045088,-0.01250224,
 0.07279441,0.00000046,0.00000774,-0.00000520,0.00004391,-0.00005272,0.
 00002522,-0.00012294,0.00004403,0.00000143,0.00026742,-0.00017513,-0.0
 0009074,-0.00009440,0.00008592,0.00007025,-0.00004446,0.00008848,0.000
 03366,0.00004533,-0.00007015,0.00012121,0.00065582,0.00156764,-0.00121
 695,0.00897035,-0.00034713,-0.02608955,-0.00231875,-0.00492183,-0.0018
 4768,-0.00054069,-0.04670161,0.00109990,0.00121106,0.00074434,0.000102
 09,-0.00000604,0.00000145,-0.00000042,-0.00000106,-0.00000222,0.000001
 86,0.00000094,-0.00000194,0.00000162,-0.00000117,0.00000642,-0.0000025
 0,0.00000056,0.00000341,-0.00000142,0.00012922,-0.00002079,-0.00003940
 ,-0.00015253,0.00009964,0.00000674,-0.00018137,0.00033991,0.00020982,-
 0.00021737,-0.00041124,0.00060602,-0.00000846,-0.00007821,0.00027193,0
 .00037405,0.00019273,-0.00197021,-0.00021045,0.00016748,-0.00019092,0.
 00003768,-0.00099518,0.00138123,-0.00901826,0.00040090,0.02493641,0.00
 156876,0.04989493,0.00000211,-0.00000663,-0.00000138,0.00000405,0.0000
 0924,-0.00001914,0.00001478,-0.00002950,0.00006246,0.00005583,0.000010
 46,-0.00027772,-0.00004779,0.00003224,0.00016599,-0.00000045,-0.000006
 76,0.00007437,0.00005821,-0.00023752,0.00009826,0.00009413,0.00107978,
 0.00042304,0.00487618,0.00100304,-0.01525116,-0.00203145,-0.00356942,-
 0.00001684,0.07381164,-0.00000136,-0.28318035,0.00090687,0.00072247,0.
 00012934,0.00000199,-0.00000047,0.00000058,-0.00000306,0.00000191,0.00
 000310,0.00000175,0.00000194,-0.00000120,-0.00000009,0.00000105,0.0000
 0009,-0.00000010,-0.00000323,0.00000533,0.00016609,-0.00007122,-0.0001
 3097,-0.00009947,0.00010086,0.00001748,-0.00020080,0.00006515,0.000284
 91,-0.00001893,-0.00064582,0.00067340,0.00006404,0.00012351,0.00021897
 ,0.00042565,-0.00022343,-0.00104879,-0.00001670,0.00009424,0.00041031,
 -0.00034051,0.00032424,0.00032279,0.00460729,-0.00038984,-0.01309580,-
 0.08137994,0.00193006,0.30928561,-0.00000087,-0.00000808,0.00000113,-0
 .00002157,0.00001976,-0.00002044,0.00009863,-0.00002074,0.00003765,-0.
 00014331,-0.00002183,-0.00013991,0.00002379,0.00002301,0.00004742,0.00
 008102,0.00006311,0.00008048,0.00025171,0.00012738,0.00035144,0.000967
 11,-0.00185232,-0.00000021,-0.01143689,-0.02704446,-0.01569461,0.00147
 825,-0.00066406,-0.00135152,-0.00688296,0.00138958,0.00082940,-0.07816
 329,-0.07260361,-0.04171092,0.00000393,0.00000088,0.00000009,-0.000000
 65,0.00000020,-0.00000070,0.00000217,0.00000246,0.00000160,0.00000075,
 0.00000008,0.00000195,0.00000059,-0.00000338,0.00000252,0.00022441,-0.
 00009500,0.00007020,-0.00002492,-0.00001443,-0.00002261,-0.00006529,0.
 00106116,-0.00000432,-0.00001721,0.00015006,-0.00001308,0.00029507,0.0
 0037659,-0.00009730,-0.00010666,0.00049844,0.00081881,-0.00005450,0.00
 004919,0.00014724,-0.00083704,-0.00193002,-0.00116247,0.00009384,0.000
 06710,0.00028856,0.00008034,0.00022371,-0.00012043,0.08689558,-0.00000
 269,0.00000783,-0.00000724,0.00001490,-0.00004229,0.00001785,-0.000085
 09,0.00008012,-0.00003308,0.00002751,-0.00018479,0.00006073,-0.0000053
 6,0.00005142,-0.00002640,-0.00000222,0.00009686,0.00001034,-0.00012528
 ,0.00030341,0.00003637,0.00076398,0.00060529,0.00039290,0.00058253,-0.
 00113404,0.00047602,0.00033299,0.00002682,-0.00009267,-0.00065914,0.00
 078769,0.00061467,-0.07414035,-0.21867079,-0.09889872,-0.00000560,0.00
 000123,-0.00000066,0.00000031,-0.00000238,0.00000146,0.00000209,-0.000
 00063,0.00000221,0.00000001,0.00000562,-0.00000020,-0.00000092,0.00000
 213,-0.00000257,0.00012882,0.00001344,0.00004167,-0.00002561,0.0000034
 5,-0.00000953,0.00012249,0.00044426,-0.00011930,-0.00004613,-0.0000359
 8,0.00005776,0.00005258,0.00020215,0.00025327,-0.00029190,0.00035439,0
 .00041907,-0.00006747,-0.00011007,-0.00009018,-0.00010315,0.00012696,-
 0.00027751,0.00019574,0.00049648,-0.00003110,0.00014775,-0.00001731,-0
 .00003305,0.08151022,0.23659145,-0.00000201,-0.00000226,0.00000164,-0.
 00001739,0.00000755,-0.00001078,0.00005859,0.00002314,0.00000522,-0.00
 018808,-0.00015284,-0.00005549,0.00004431,0.00004864,0.00000488,0.0000
 9438,0.00007167,0.00004716,0.00006935,0.00033388,0.00005973,0.00001294
 ,-0.00065372,-0.00020768,0.00027116,0.00039843,-0.00155171,0.00037466,
 0.00077312,0.00057108,-0.00030579,0.00062838,0.00033904,-0.04257626,-0
 .09883168,-0.10381170,0.00000153,0.00000047,-0.00000055,0.00000113,-0.
 00000016,-0.00000101,0.00000214,0.00000169,0.00000074,-0.00000192,0.00
 000033,0.00000239,-0.00000076,-0.00000259,0.00000033,0.00013189,-0.000
 01908,0.00002276,0.00002108,-0.00001694,-0.00000229,-0.00037800,0.0004
 6827,0.00021612,-0.00004895,-0.00014973,-0.00006341,-0.00016378,0.0000
 5890,-0.00000439,0.00013113,-0.00011768,0.00028701,-0.00000530,0.00009
 552,0.00000957,-0.00006222,-0.00029126,0.00051097,0.00010397,-0.000245
 48,-0.00000789,0.00019324,0.00023067,0.00041233,0.04694149,0.10928678,
 0.10909745,-0.00000086,-0.00000496,0.00000647,-0.00002145,0.00002745,-
 0.00000710,0.00009852,-0.00004294,-0.00000056,-0.00014323,0.00011094,0
 .00008791,0.00008098,-0.00003890,-0.00009460,0.00002380,-0.00002994,-0
 .00004336,0.00025159,-0.00024305,-0.00028389,0.00096733,-0.00091198,0.
 00161172,-0.01143683,0.00033867,0.03126715,-0.00688305,-0.00003720,-0.
 00161784,0.00147849,0.00084917,0.00124361,-0.07816311,0.00054289,0.083
 73056,0.00000394,0.00000041,-0.00000082,0.00000216,-0.00000017,-0.0000
 0290,-0.00000069,0.00000063,0.00000015,0.00000058,-0.00000385,0.000001
 69,0.00000074,-0.00000167,-0.00000100,-0.00002484,0.00001259,0.0000237
 0,0.00022441,-0.00010797,0.00004804,-0.00001723,0.00008533,-0.00012414
 ,-0.00006535,0.00052625,-0.00092129,-0.00083708,0.00006102,0.00225223,
 0.00008037,0.00021502,-0.00013543,0.00009385,-0.00021811,-0.00020049,0
 .00029508,0.00027021,-0.00027982,-0.00005452,-0.00010395,-0.00011534,-
 0.00010672,-0.00046706,-0.00083700,0.00369417,0.00071534,-0.01092750,0
 .08689516,0.00000042,0.00000716,-0.00000269,0.00002254,-0.00002935,0.0
 0001496,-0.00009288,0.00002768,-0.00000661,0.00017709,-0.00004728,-0.0
 0007490,-0.00008312,0.00002403,0.00003037,-0.00004123,0.00000664,0.000
 02327,-0.00012208,-0.00003992,0.00013945,0.00036472,0.00010137,-0.0009
 3865,0.00005075,-0.00182515,0.00000688,-0.00005866,-0.00008489,0.00013
 448,-0.00016208,0.00014736,0.00084131,0.00053936,-0.04691841,-0.001635
 03,-0.00000407,0.,-0.00000022,-0.00000084,-0.00000126,0.00000136,-0.00
 000086,-0.00000189,0.00000013,0.00000020,0.00000297,-0.00000212,0.0000
 0166,0.00000314,-0.00000107,-0.00003096,0.00001046,-0.00001295,-0.0000
 5133,0.00001084,-0.00002050,0.00001982,-0.00001734,-0.00013925,0.00038
 915,0.00012195,0.00028574,0.00000333,0.00066162,0.00001137,-0.00009535
 ,0.00022340,0.00036692,0.00000601,0.00023299,-0.00039456,0.00016847,-0
 .00008811,-0.00010534,-0.00002863,-0.00002172,0.00014551,-0.00025784,0
 .00017422,-0.00021959,0.00986258,0.00031651,-0.02507103,-0.00070797,0.
 04633463,0.00000333,-0.00000750,0.00000240,-0.00000452,0.00002517,-0.0
 0002381,0.00004560,-0.00006290,0.00005770,0.00006837,0.00013908,-0.000
 19227,-0.00004452,-0.00003094,0.00011977,-0.00001722,-0.00005212,0.000
 04937,0.00007493,-0.00015800,0.00040284,-0.00067093,0.00010750,0.00029
 625,-0.00064036,0.00008464,-0.00086019,0.00072427,0.00012079,0.0012115
 9,-0.00047456,-0.00002450,0.00045056,0.08549363,-0.00170165,-0.2755652
 2,0.00000411,-0.00000144,0.00000067,-0.00000292,0.00000182,0.00000137,
 -0.00000086,0.00000172,-0.00000153,0.00000128,-0.00000206,-0.00000050,
 0.00000097,-0.00000160,0.00000478,0.00001189,-0.00000558,-0.00000928,-
 0.00017698,0.00004021,0.00002537,0.00006435,0.00006844,-0.00008208,0.0
 0007973,-0.00030180,0.00053839,0.00012041,0.00002511,-0.00002364,-0.00
 022383,0.00010310,0.00017168,-0.00022160,-0.00018015,0.00025551,0.0000
 3488,0.00008900,0.00028590,0.00006143,-0.00004016,-0.00007873,0.000189
 56,0.00031712,0.00046722,0.00475938,0.00092401,-0.01334848,-0.09405822
 ,0.00161855,0.29935509,-0.00000977,0.00006570,-0.00003835,0.00005398,-
 0.00021182,0.00012349,-0.00057332,0.00053310,-0.00031075,-0.00021628,-
 0.00108780,0.00063427,0.00004698,0.00017832,-0.00029780,0.00004703,0.0
 0034704,-0.00000849,-0.00005808,0.00206427,-0.00120382,-0.00651488,-0.
 00115072,0.00067120,-0.01184541,0.02684265,-0.01565217,0.00128168,0.00
 078852,-0.00143463,0.00128156,0.00163690,0.00002046,-0.07595029,0.0707
 7791,-0.04127169,-0.00003376,-0.00000297,0.00000176,0.00000081,-0.0000
 0576,0.00000557,0.00000080,-0.00000769,0.00000229,-0.00000863,0.000025
 42,-0.00000781,-0.00000860,0.00001932,-0.00001828,0.00001432,-0.000019
 73,-0.00005933,0.00001434,0.00004192,0.00004644,0.00001429,-0.00008125
 ,0.00028340,0.00001430,-0.00028656,-0.00006891,0.00036879,-0.00039090,
 -0.00007263,-0.00003928,-0.00007632,0.00012258,-0.00003519,-0.00050448
 ,0.00089211,0.00036879,-0.00012937,0.00037596,-0.00003515,-0.00102484,
 -0.00000045,-0.00003929,-0.00014427,0.00000609,0.00356379,-0.00903637,
 0.00622499,0.00356378,-0.00986820,0.00479842,0.08473270,0.00000129,-0.
 00001757,0.00001140,-0.00007519,0.00009731,-0.00006039,0.00023575,-0.0
 0013323,0.00007937,-0.00031628,0.00034020,-0.00021358,0.00007579,-0.00
 005932,0.00007552,0.00009993,-0.00007885,0.00003760,-0.00020606,0.0001
 9371,0.00030649,0.00068709,0.00053326,-0.00054305,-0.00065131,-0.00135
 059,-0.00026846,-0.00035870,-0.00008443,0.00013524,-0.00062783,0.00072
 013,-0.00039606,0.07227428,-0.21909141,0.10062467,0.00001182,-0.000001
 72,0.00000080,-0.00000060,0.00000364,-0.00000305,-0.00000069,0.0000043
 5,-0.00000204,0.00000245,-0.00001097,0.00000479,0.00000247,-0.00000874
 ,0.00000691,0.00018346,-0.00002639,0.00003459,0.00006965,-0.00003717,-
 0.00000880,-0.00016503,0.00053952,0.00002688,-0.00020140,0.00001566,-0
 .00003809,-0.00009203,0.00024816,-0.00027138,0.00005253,-0.00004970,0.
 00009313,0.00026061,0.00039820,-0.00047705,0.00008326,0.00021504,-0.00
 009148,-0.00004096,0.00044362,0.00013830,-0.00000848,-0.00002379,-0.00
 006240,0.00883241,-0.02031924,0.01312699,-0.00083620,0.00066837,-0.001
 09589,-0.07929201,0.23687194,-0.00000073,0.00001137,-0.00000472,0.0000
 4389,-0.00006042,0.00002899,-0.00013744,0.00007941,-0.00004336,0.00018
 434,-0.00021361,0.00009838,-0.00007190,0.00004869,-0.00001482,-0.00003
 054,0.00006445,0.00000473,0.00012022,0.00030638,0.00054035,-0.00040060
 ,-0.00054314,-0.00008086,0.00037984,-0.00026844,-0.00165414,0.00051839
 ,-0.00085141,0.00057262,0.00005683,0.00059070,-0.00023213,-0.04214428,
 0.10062481,-0.10520182,-0.00000689,0.00000084,-0.00000080,0.00000043,-
 0.00000243,0.00000150,0.00000028,-0.00000269,0.00000075,-0.00000146,0.
 00000567,-0.00000212,-0.00000140,0.00000605,-0.00000433,0.00002382,-0.
 00000266,-0.00002254,-0.00017133,0.00002849,-0.00001175,0.00013806,0.0
 0025816,0.00000927,0.00007583,-0.00026953,0.00053285,-0.00014773,-0.00
 007276,0.00000965,0.00003944,-0.00007704,-0.00000643,0.00019452,0.0001
 1256,0.00025194,0.00015285,-0.00029014,0.00004280,-0.00032261,-0.00045
 138,0.00020646,-0.00006516,0.00010774,-0.00003224,0.00595915,-0.012972
 90,0.00747696,-0.01062191,0.02500420,-0.01351072,0.04623607,-0.1111709
 4,0.11104554\\-0.00004899,0.00004867,-0.00002868,0.00003103,-0.0000546
 0,0.00003176,-0.00001716,0.00004717,-0.00002765,-0.00005634,0.00008985
 ,-0.00002579,0.00000212,-0.00001345,0.00005375,-0.00000517,-0.00007163
 ,-0.00002976,0.00013169,-0.00001592,0.00000880,-0.00008316,0.00000698,
 -0.00000449,-0.00000544,-0.00000509,0.00000192,-0.00000209,-0.00001075
 ,-0.00000742,-0.00000142,-0.00000064,0.00001359,0.00000654,-0.00001912
 ,0.00001129,-0.00000308,-0.00002261,0.00001328,0.00001472,-0.00000054,
 0.00000559,0.00001474,-0.00000513,-0.00000235,-0.00000092,0.00000385,-
 0.00000117,-0.00000027,0.00000312,-0.00000231,-0.00001635,0.00000916,-
 0.00000665,-0.00001738,0.00000872,-0.00000220,0.00001314,0.00000242,-0
 .00000189,0.00001262,0.00000280,-0.00000156,0.00000636,-0.00000331,-0.
 00000509,0.00000404,-0.00000171,-0.00000305,0.00000157,0.00000461,0.00
 000503,0.00000764,0.00000178,0.00000617,0.00000163,-0.00000216,-0.0000
 0679,0.00000400,0.00000174,0.00000256,-0.00000090,-0.00000044,0.000000
 82,-0.00000115,-0.00000109,0.00000033,0.00000799,-0.00000268,0.0000019
 7\\\@


 "A LITTLE BIT GOES A LONG WAY"
 R.S. MULLIKEN AS QUOTED BY K. RUEDENBERG
 Job cpu time:       0 days  5 hours  1 minutes 48.7 seconds.
 Elapsed time:       0 days  1 hours 15 minutes 27.7 seconds.
 File lengths (MBytes):  RWF=    430 Int=      0 D2E=      0 Chk=     16 Scr=      1
 Normal termination of Gaussian 16 at Mon May 15 23:07:03 2023.
### All Done ###
