### Starting Gaussian ###
 Entering Gaussian System, Link 0=g16
 Initial command:
 /cluster/software/gaussian/gaussian-16-A.03/avx2/g16/l1.exe "/local/scratch/ks29c/Gau-30947.inp" -scrdir="/local/scratch/ks29c/"
 Entering Link 1 = /cluster/software/gaussian/gaussian-16-A.03/avx2/g16/l1.exe PID=     30948.
  
 Copyright (c) 1988,1990,1992,1993,1995,1998,2003,2009,2016,
            Gaussian, Inc.  All Rights Reserved.
  
 This is part of the Gaussian(R) 16 program.  It is based on
 the Gaussian(R) 09 system (copyright 2009, Gaussian, Inc.),
 the Gaussian(R) 03 system (copyright 2003, Gaussian, Inc.),
 the Gaussian(R) 98 system (copyright 1998, Gaussian, Inc.),
 the Gaussian(R) 94 system (copyright 1995, Gaussian, Inc.),
 the Gaussian 92(TM) system (copyright 1992, Gaussian, Inc.),
 the Gaussian 90(TM) system (copyright 1990, Gaussian, Inc.),
 the Gaussian 88(TM) system (copyright 1988, Gaussian, Inc.),
 the Gaussian 86(TM) system (copyright 1986, Carnegie Mellon
 University), and the Gaussian 82(TM) system (copyright 1983,
 Carnegie Mellon University). Gaussian is a federally registered
 trademark of Gaussian, Inc.
  
 This software contains proprietary and confidential information,
 including trade secrets, belonging to Gaussian, Inc.
  
 This software is provided under written license and may be
 used, copied, transmitted, or stored only in accord with that
 written license.
  
 The following legend is applicable only to US Government
 contracts under FAR:
  
                    RESTRICTED RIGHTS LEGEND
  
 Use, reproduction and disclosure by the US Government is
 subject to restrictions as set forth in subparagraphs (a)
 and (c) of the Commercial Computer Software - Restricted
 Rights clause in FAR 52.227-19.
  
 Gaussian, Inc.
 340 Quinnipiac St., Bldg. 40, Wallingford CT 06492
  
  
 ---------------------------------------------------------------
 Warning -- This program may not be used in any manner that
 competes with the business of Gaussian, Inc. or will provide
 assistance to any competitor of Gaussian, Inc.  The licensee
 of this program is prohibited from giving any competitor of
 Gaussian, Inc. access to this program.  By using this program,
 the user acknowledges that Gaussian, Inc. is engaged in the
 business of creating and licensing software in the field of
 computational chemistry and represents and warrants to the
 licensee that it is not a competitor of Gaussian, Inc. and that
 it will not use this program in any manner prohibited above.
 ---------------------------------------------------------------
  

 Cite this work as:
 Gaussian 16, Revision A.03,
 M. J. Frisch, G. W. Trucks, H. B. Schlegel, G. E. Scuseria, 
 M. A. Robb, J. R. Cheeseman, G. Scalmani, V. Barone, 
 G. A. Petersson, H. Nakatsuji, X. Li, M. Caricato, A. V. Marenich, 
 J. Bloino, B. G. Janesko, R. Gomperts, B. Mennucci, H. P. Hratchian, 
 J. V. Ortiz, A. F. Izmaylov, J. L. Sonnenberg, D. Williams-Young, 
 F. Ding, F. Lipparini, F. Egidi, J. Goings, B. Peng, A. Petrone, 
 T. Henderson, D. Ranasinghe, V. G. Zakrzewski, J. Gao, N. Rega, 
 G. Zheng, W. Liang, M. Hada, M. Ehara, K. Toyota, R. Fukuda, 
 J. Hasegawa, M. Ishida, T. Nakajima, Y. Honda, O. Kitao, H. Nakai, 
 T. Vreven, K. Throssell, J. A. Montgomery, Jr., J. E. Peralta, 
 F. Ogliaro, M. J. Bearpark, J. J. Heyd, E. N. Brothers, K. N. Kudin, 
 V. N. Staroverov, T. A. Keith, R. Kobayashi, J. Normand, 
 K. Raghavachari, A. P. Rendell, J. C. Burant, S. S. Iyengar, 
 J. Tomasi, M. Cossi, J. M. Millam, M. Klene, C. Adamo, R. Cammi, 
 J. W. Ochterski, R. L. Martin, K. Morokuma, O. Farkas, 
 J. B. Foresman, and D. J. Fox, Gaussian, Inc., Wallingford CT, 2016.
 
 ******************************************
 Gaussian 16:  ES64L-G16RevA.03 25-Dec-2016
                15-May-2023 
 ******************************************
 %chk=CCqCrCCqdOrOCqCrC.chk
 %NProcShared=20
 Will use up to   20 processors via shared memory.
 -----------------------------
 # opt freq b3lyp/6-31g(2df,p)
 -----------------------------
 1/18=20,19=15,26=3,38=1/1,3;
 2/9=110,12=2,17=6,18=5,40=1/2;
 3/5=1,6=6,7=104,11=2,25=1,30=1,71=1,74=-5/1,2,3;
 4//1;
 5/5=2,38=5/2;
 6/7=2,8=2,9=2,10=2,28=1/1;
 7//1,2,3,16;
 1/18=20,19=15,26=3/3(2);
 2/9=110/2;
 99//99;
 2/9=110/2;
 3/5=1,6=6,7=104,11=2,25=1,30=1,71=1,74=-5/1,2,3;
 4/5=5,16=3,69=1/1;
 5/5=2,38=5/2;
 7//1,2,3,16;
 1/18=20,19=15,26=3/3(-5);
 2/9=110/2;
 6/7=2,8=2,9=2,10=2,19=2,28=1/1;
 99/9=1/99;
 -------------------
 Title Card Required
 -------------------
 Symbolic Z-matrix:
 Charge =  0 Multiplicity = 1
 C                     1.06352  -0.05176   0.07722 
 C                     2.5921   -0.02699   0.04938 
 C                     3.04985   0.58698  -1.27973 
 C                     3.17126   0.74006   1.25994 
 C                     4.68465   0.63916   1.28706 
 O                     5.33054  -0.10856   0.55753 
 O                     5.24809   1.4655    2.21561 
 C                     6.69595   1.4347    2.23346 
 C                     7.26388   2.08452   0.97031 
 C                     7.20023   2.20642   3.4504 
 H                     0.67565  -0.62968  -0.77032 
 H                     0.65122   0.96021   0.00667 
 H                     0.68802  -0.51447   0.99473 
 H                     2.94458  -1.06655   0.09285 
 H                     2.69892   1.61952  -1.37204 
 H                     2.66157   0.01078  -2.1256 
 H                     4.13798   0.60023  -1.38225 
 H                     2.7907    0.30302   2.19086 
 H                     2.86352   1.79131   1.21529 
 H                     7.03777   0.39474   2.32313 
 H                     6.89733   3.11143   0.8717 
 H                     6.95843   1.55921   0.06147 
 H                     8.35754   2.09432   0.99061 
 H                     6.8508    3.24418   3.42732 
 H                     8.29628   2.21376   3.48006 
 H                     6.8339    1.76283   4.38103 
 

 GradGradGradGradGradGradGradGradGradGradGradGradGradGradGradGradGradGrad
 Berny optimization.
 Initialization pass.
                           ----------------------------
                           !    Initial Parameters    !
                           ! (Angstroms and Degrees)  !
 --------------------------                            --------------------------
 ! Name  Definition              Value          Derivative Info.                !
 --------------------------------------------------------------------------------
 ! R1    R(1,2)                  1.529          estimate D2E/DX2                !
 ! R2    R(1,11)                 1.0967         estimate D2E/DX2                !
 ! R3    R(1,12)                 1.095          estimate D2E/DX2                !
 ! R4    R(1,13)                 1.094          estimate D2E/DX2                !
 ! R5    R(2,3)                  1.534          estimate D2E/DX2                !
 ! R6    R(2,4)                  1.5457         estimate D2E/DX2                !
 ! R7    R(2,14)                 1.0986         estimate D2E/DX2                !
 ! R8    R(3,15)                 1.0944         estimate D2E/DX2                !
 ! R9    R(3,16)                 1.0947         estimate D2E/DX2                !
 ! R10   R(3,17)                 1.093          estimate D2E/DX2                !
 ! R11   R(4,5)                  1.517          estimate D2E/DX2                !
 ! R12   R(4,18)                 1.0966         estimate D2E/DX2                !
 ! R13   R(4,19)                 1.0963         estimate D2E/DX2                !
 ! R14   R(5,6)                  1.2282         estimate D2E/DX2                !
 ! R15   R(5,7)                  1.3647         estimate D2E/DX2                !
 ! R16   R(7,8)                  1.4483         estimate D2E/DX2                !
 ! R17   R(8,9)                  1.5298         estimate D2E/DX2                !
 ! R18   R(8,10)                 1.5267         estimate D2E/DX2                !
 ! R19   R(8,20)                 1.0984         estimate D2E/DX2                !
 ! R20   R(9,21)                 1.0948         estimate D2E/DX2                !
 ! R21   R(9,22)                 1.0933         estimate D2E/DX2                !
 ! R22   R(9,23)                 1.0939         estimate D2E/DX2                !
 ! R23   R(10,24)                1.0953         estimate D2E/DX2                !
 ! R24   R(10,25)                1.0965         estimate D2E/DX2                !
 ! R25   R(10,26)                1.0941         estimate D2E/DX2                !
 ! A1    A(2,1,11)             110.3668         estimate D2E/DX2                !
 ! A2    A(2,1,12)             111.1167         estimate D2E/DX2                !
 ! A3    A(2,1,13)             111.4225         estimate D2E/DX2                !
 ! A4    A(11,1,12)            107.7005         estimate D2E/DX2                !
 ! A5    A(11,1,13)            107.689          estimate D2E/DX2                !
 ! A6    A(12,1,13)            108.4008         estimate D2E/DX2                !
 ! A7    A(1,2,3)              108.6982         estimate D2E/DX2                !
 ! A8    A(1,2,4)              111.6142         estimate D2E/DX2                !
 ! A9    A(1,2,14)             107.7409         estimate D2E/DX2                !
 ! A10   A(3,2,4)              111.6016         estimate D2E/DX2                !
 ! A11   A(3,2,14)             108.4995         estimate D2E/DX2                !
 ! A12   A(4,2,14)             108.5651         estimate D2E/DX2                !
 ! A13   A(2,3,15)             110.794          estimate D2E/DX2                !
 ! A14   A(2,3,16)             110.6713         estimate D2E/DX2                !
 ! A15   A(2,3,17)             112.5317         estimate D2E/DX2                !
 ! A16   A(15,3,16)            108.5235         estimate D2E/DX2                !
 ! A17   A(15,3,17)            107.4493         estimate D2E/DX2                !
 ! A18   A(16,3,17)            106.6796         estimate D2E/DX2                !
 ! A19   A(2,4,5)              110.7806         estimate D2E/DX2                !
 ! A20   A(2,4,18)             109.6975         estimate D2E/DX2                !
 ! A21   A(2,4,19)             109.8027         estimate D2E/DX2                !
 ! A22   A(5,4,18)             107.7304         estimate D2E/DX2                !
 ! A23   A(5,4,19)             110.1547         estimate D2E/DX2                !
 ! A24   A(18,4,19)            108.6231         estimate D2E/DX2                !
 ! A25   A(4,5,6)              123.6769         estimate D2E/DX2                !
 ! A26   A(4,5,7)              112.5672         estimate D2E/DX2                !
 ! A27   A(6,5,7)              123.7552         estimate D2E/DX2                !
 ! A28   A(5,7,8)              114.0943         estimate D2E/DX2                !
 ! A29   A(7,8,9)              110.6046         estimate D2E/DX2                !
 ! A30   A(7,8,10)             109.2253         estimate D2E/DX2                !
 ! A31   A(7,8,20)             109.4058         estimate D2E/DX2                !
 ! A32   A(9,8,10)             108.7127         estimate D2E/DX2                !
 ! A33   A(9,8,20)             110.7357         estimate D2E/DX2                !
 ! A34   A(10,8,20)            108.1036         estimate D2E/DX2                !
 ! A35   A(8,9,21)             110.3955         estimate D2E/DX2                !
 ! A36   A(8,9,22)             112.2454         estimate D2E/DX2                !
 ! A37   A(8,9,23)             111.0783         estimate D2E/DX2                !
 ! A38   A(21,9,22)            106.396          estimate D2E/DX2                !
 ! A39   A(21,9,23)            109.1475         estimate D2E/DX2                !
 ! A40   A(22,9,23)            107.4014         estimate D2E/DX2                !
 ! A41   A(8,10,24)            110.902          estimate D2E/DX2                !
 ! A42   A(8,10,25)            110.8012         estimate D2E/DX2                !
 ! A43   A(8,10,26)            111.2523         estimate D2E/DX2                !
 ! A44   A(24,10,25)           108.2488         estimate D2E/DX2                !
 ! A45   A(24,10,26)           107.1731         estimate D2E/DX2                !
 ! A46   A(25,10,26)           108.3246         estimate D2E/DX2                !
 ! D1    D(11,1,2,3)            58.444          estimate D2E/DX2                !
 ! D2    D(11,1,2,4)          -178.0409         estimate D2E/DX2                !
 ! D3    D(11,1,2,14)          -58.9418         estimate D2E/DX2                !
 ! D4    D(12,1,2,3)           -60.9648         estimate D2E/DX2                !
 ! D5    D(12,1,2,4)            62.5504         estimate D2E/DX2                !
 ! D6    D(12,1,2,14)         -178.3506         estimate D2E/DX2                !
 ! D7    D(13,1,2,3)           178.0361         estimate D2E/DX2                !
 ! D8    D(13,1,2,4)           -58.4488         estimate D2E/DX2                !
 ! D9    D(13,1,2,14)           60.6503         estimate D2E/DX2                !
 ! D10   D(1,2,3,15)            61.867          estimate D2E/DX2                !
 ! D11   D(1,2,3,16)           -58.5631         estimate D2E/DX2                !
 ! D12   D(1,2,3,17)          -177.8148         estimate D2E/DX2                !
 ! D13   D(4,2,3,15)           -61.6557         estimate D2E/DX2                !
 ! D14   D(4,2,3,16)           177.9142         estimate D2E/DX2                !
 ! D15   D(4,2,3,17)            58.6626         estimate D2E/DX2                !
 ! D16   D(14,2,3,15)          178.7686         estimate D2E/DX2                !
 ! D17   D(14,2,3,16)           58.3385         estimate D2E/DX2                !
 ! D18   D(14,2,3,17)          -60.9132         estimate D2E/DX2                !
 ! D19   D(1,2,4,5)            174.5231         estimate D2E/DX2                !
 ! D20   D(1,2,4,18)            55.7183         estimate D2E/DX2                !
 ! D21   D(1,2,4,19)           -63.5839         estimate D2E/DX2                !
 ! D22   D(3,2,4,5)            -63.6225         estimate D2E/DX2                !
 ! D23   D(3,2,4,18)           177.5727         estimate D2E/DX2                !
 ! D24   D(3,2,4,19)            58.2705         estimate D2E/DX2                !
 ! D25   D(14,2,4,5)            55.9145         estimate D2E/DX2                !
 ! D26   D(14,2,4,18)          -62.8903         estimate D2E/DX2                !
 ! D27   D(14,2,4,19)          177.8075         estimate D2E/DX2                !
 ! D28   D(2,4,5,6)             -9.6675         estimate D2E/DX2                !
 ! D29   D(2,4,5,7)            170.6409         estimate D2E/DX2                !
 ! D30   D(18,4,5,6)           110.3202         estimate D2E/DX2                !
 ! D31   D(18,4,5,7)           -69.3714         estimate D2E/DX2                !
 ! D32   D(19,4,5,6)          -131.354          estimate D2E/DX2                !
 ! D33   D(19,4,5,7)            48.9544         estimate D2E/DX2                !
 ! D34   D(4,5,7,8)           -177.6884         estimate D2E/DX2                !
 ! D35   D(6,5,7,8)              2.6204         estimate D2E/DX2                !
 ! D36   D(5,7,8,9)             69.8044         estimate D2E/DX2                !
 ! D37   D(5,7,8,10)          -170.585          estimate D2E/DX2                !
 ! D38   D(5,7,8,20)           -52.4365         estimate D2E/DX2                !
 ! D39   D(7,8,9,21)            56.9561         estimate D2E/DX2                !
 ! D40   D(7,8,9,22)           -61.5626         estimate D2E/DX2                !
 ! D41   D(7,8,9,23)           178.177          estimate D2E/DX2                !
 ! D42   D(10,8,9,21)          -62.9626         estimate D2E/DX2                !
 ! D43   D(10,8,9,22)          178.5187         estimate D2E/DX2                !
 ! D44   D(10,8,9,23)           58.2583         estimate D2E/DX2                !
 ! D45   D(20,8,9,21)          178.4148         estimate D2E/DX2                !
 ! D46   D(20,8,9,22)           59.8961         estimate D2E/DX2                !
 ! D47   D(20,8,9,23)          -60.3643         estimate D2E/DX2                !
 ! D48   D(7,8,10,24)          -58.8088         estimate D2E/DX2                !
 ! D49   D(7,8,10,25)         -179.0509         estimate D2E/DX2                !
 ! D50   D(7,8,10,26)           60.3777         estimate D2E/DX2                !
 ! D51   D(9,8,10,24)           61.9636         estimate D2E/DX2                !
 ! D52   D(9,8,10,25)          -58.2786         estimate D2E/DX2                !
 ! D53   D(9,8,10,26)         -178.85           estimate D2E/DX2                !
 ! D54   D(20,8,10,24)        -177.7698         estimate D2E/DX2                !
 ! D55   D(20,8,10,25)          61.988          estimate D2E/DX2                !
 ! D56   D(20,8,10,26)         -58.5834         estimate D2E/DX2                !
 --------------------------------------------------------------------------------
 Trust Radius=3.00D-01 FncErr=1.00D-07 GrdErr=1.00D-06 EigMax=2.50D+02 EigMin=1.00D-04
 Number of steps in this run=    137 maximum allowed number of steps=    156.
 GradGradGradGradGradGradGradGradGradGradGradGradGradGradGradGradGradGrad

                          Input orientation:                          
 ---------------------------------------------------------------------
 Center     Atomic      Atomic             Coordinates (Angstroms)
 Number     Number       Type             X           Y           Z
 ---------------------------------------------------------------------
      1          6           0        1.063520   -0.051760    0.077220
      2          6           0        2.592100   -0.026990    0.049380
      3          6           0        3.049850    0.586980   -1.279730
      4          6           0        3.171260    0.740060    1.259940
      5          6           0        4.684650    0.639160    1.287060
      6          8           0        5.330540   -0.108560    0.557530
      7          8           0        5.248090    1.465500    2.215610
      8          6           0        6.695950    1.434700    2.233460
      9          6           0        7.263880    2.084520    0.970310
     10          6           0        7.200230    2.206420    3.450400
     11          1           0        0.675650   -0.629680   -0.770320
     12          1           0        0.651220    0.960210    0.006670
     13          1           0        0.688020   -0.514470    0.994730
     14          1           0        2.944580   -1.066550    0.092850
     15          1           0        2.698920    1.619520   -1.372040
     16          1           0        2.661570    0.010780   -2.125600
     17          1           0        4.137980    0.600230   -1.382250
     18          1           0        2.790700    0.303020    2.190860
     19          1           0        2.863520    1.791310    1.215290
     20          1           0        7.037770    0.394740    2.323130
     21          1           0        6.897330    3.111430    0.871700
     22          1           0        6.958430    1.559210    0.061470
     23          1           0        8.357540    2.094320    0.990610
     24          1           0        6.850800    3.244180    3.427320
     25          1           0        8.296280    2.213760    3.480060
     26          1           0        6.833900    1.762830    4.381030
 ---------------------------------------------------------------------
                    Distance matrix (angstroms):
                    1          2          3          4          5
     1  C    0.000000
     2  C    1.529034   0.000000
     3  C    2.488937   1.533958   0.000000
     4  C    2.543300   1.545719   2.547174   0.000000
     5  C    3.879905   2.520788   3.043633   1.516992   0.000000
     6  O    4.294343   2.786382   3.010124   2.424052   1.228199
     7  O    4.938159   3.738230   4.221547   2.398498   1.364737
     8  C    6.211538   4.873226   5.133729   3.722057   2.360908
     9  C    6.618592   5.208850   5.006331   4.317522   2.973520
    10  C    7.357780   6.147351   6.497874   4.814657   3.669399
    11  H    1.096704   2.169775   2.715987   3.496600   4.681330
    12  H    1.095012   2.177936   2.747281   2.823075   4.243940
    13  H    1.094041   2.181019   3.458988   2.794756   4.170056
    14  H    2.137389   1.098552   2.151562   2.162712   2.713564
    15  H    2.751012   2.177806   1.094446   2.814938   3.460497
    16  H    2.722148   2.176417   1.094652   3.500502   4.016710
    17  H    3.465176   2.198344   1.093029   2.816961   2.724992
    18  H    2.752543   2.175841   3.491817   1.096559   2.125298
    19  H    2.816400   2.176977   2.776734   1.096277   2.156181
    20  H    6.398057   5.011165   5.377831   4.024863   2.582703
    21  H    6.683585   5.390816   5.079823   4.433703   3.343740
    22  H    6.111091   4.645537   4.245120   4.055859   2.742014
    23  H    7.657850   6.214995   5.966414   5.366941   3.961754
    24  H    7.455132   6.344096   6.607893   4.950471   4.007374
    25  H    8.308112   7.023403   7.268221   5.776379   4.509156
    26  H    7.423800   6.321354   6.909838   4.919572   3.931229
                    6          7          8          9         10
     6  O    0.000000
     7  O    2.287726   0.000000
     8  C    2.656076   1.448298   0.000000
     9  C    2.952591   2.448952   1.529823   0.000000
    10  C    4.150129   2.425803   1.526693   2.483900   0.000000
    11  H    4.868547   5.849168   7.037640   7.334947   8.272127
    12  H    4.831330   5.125031   6.459295   6.776426   7.503456
    13  H    4.680694   5.119089   6.436532   7.070875   7.472780
    14  H    2.612753   4.027846   4.991116   5.418074   6.332143
    15  H    3.692550   4.403774   5.386097   5.151863   6.622852
    16  H    3.786401   5.258555   6.107796   5.921682   7.517449
    17  H    2.384812   3.863371   4.506985   4.184364   5.942367
    18  H    3.047614   2.718591   4.066140   4.967175   4.965212
    19  H    3.182506   2.606332   3.981377   4.416917   4.896436
    20  H    2.507048   2.088311   1.098362   2.176374   2.139933
    21  H    3.594700   2.689828   2.169416   1.094818   2.749634
    22  H    2.382763   2.752156   2.191333   1.093271   3.458641
    23  H    3.768682   3.400694   2.177305   1.093892   2.720754
    24  H    4.667735   2.683398   2.173361   2.748153   1.095253
    25  H    4.767595   3.383813   2.173017   2.716873   1.096476
    26  H    4.514570   2.700415   2.176868   3.452735   1.094094
                   11         12         13         14         15
    11  H    0.000000
    12  H    1.769763   0.000000
    13  H    1.768849   1.775471   0.000000
    14  H    2.466569   3.061810   2.492036   0.000000
    15  H    3.084573   2.555114   3.768187   3.069401   0.000000
    16  H    2.488142   3.080503   3.729242   2.482389   1.776877
    17  H    3.724898   3.770435   4.335299   2.525526   1.763505
    18  H    3.756588   3.127293   2.553484   2.510189   3.799454
    19  H    3.819766   2.654385   3.177746   3.071450   2.598246
    20  H    7.148107   6.817167   6.550621   4.885051   5.829236
    21  H    7.443214   6.662576   7.191510   5.803995   4.988668
    22  H    6.704956   6.335827   6.670020   4.796519   4.494665
    23  H    8.338614   7.851224   8.101070   6.332236   6.150409
    24  H    8.411864   7.439903   7.617401   6.705195   6.550686
    25  H    9.177412   8.490157   8.456106   7.132624   7.431449
    26  H    8.377622   7.616085   7.377328   6.443655   7.086354
                   16         17         18         19         20
    16  H    0.000000
    17  H    1.754938   0.000000
    18  H    4.328268   3.830224   0.000000
    19  H    3.791123   3.128919   1.781024   0.000000
    20  H    6.252180   4.709655   4.250119   4.538951   0.000000
    21  H    6.044791   4.358948   5.147015   4.258215   3.083306
    22  H    5.063982   3.310424   4.845853   4.260688   2.545072
    23  H    6.818796   5.066306   5.969846   5.506955   2.531003
    24  H    7.670687   6.122240   5.163687   4.785636   3.061617
    25  H    8.247818   6.598257   5.968616   5.901062   2.496231
    26  H    7.925544   6.468000   4.824454   5.078055   2.479554
                   21         22         23         24         25
    21  H    0.000000
    22  H    1.752025   0.000000
    23  H    1.783498   1.762712   0.000000
    24  H    2.559488   3.765588   3.087070   0.000000
    25  H    3.092962   3.728946   2.493066   1.775939   0.000000
    26  H    3.760072   4.326149   3.731797   1.761887   1.775849
                   26
    26  H    0.000000
 Stoichiometry    C8H16O2
 Framework group  C1[X(C8H16O2)]
 Deg. of freedom    72
 Full point group                 C1      NOp   1
 Largest Abelian subgroup         C1      NOp   1
 Largest concise Abelian subgroup C1      NOp   1
                         Standard orientation:                         
 ---------------------------------------------------------------------
 Center     Atomic      Atomic             Coordinates (Angstroms)
 Number     Number       Type             X           Y           Z
 ---------------------------------------------------------------------
      1          6           0        3.737135   -0.803813   -0.140839
      2          6           0        2.454349   -0.055720    0.223529
      3          6           0        2.477161    1.319405   -0.455838
      4          6           0        1.194633   -0.862196   -0.166288
      5          6           0       -0.062016   -0.167241    0.322730
      6          8           0       -0.054974    0.795606    1.085191
      7          8           0       -1.200429   -0.734014   -0.172539
      8          6           0       -2.418864   -0.063304    0.231355
      9          6           0       -2.529135    1.305236   -0.443402
     10          6           0       -3.619755   -0.910957   -0.181122
     11          1           0        4.616579   -0.230042    0.175583
     12          1           0        3.810928   -0.956705   -1.222611
     13          1           0        3.783237   -1.780517    0.349924
     14          1           0        2.451361    0.093218    1.311934
     15          1           0        2.502770    1.214340   -1.544929
     16          1           0        3.355687    1.891477   -0.140895
     17          1           0        1.602254    1.924842   -0.205448
     18          1           0        1.231271   -1.853604    0.300840
     19          1           0        1.156933   -0.989129   -1.254540
     20          1           0       -2.433383    0.039914    1.324759
     21          1           0       -2.485857    1.198430   -1.532139
     22          1           0       -1.707610    1.970997   -0.165732
     23          1           0       -3.462507    1.805220   -0.168751
     24          1           0       -3.627898   -1.076368   -1.263782
     25          1           0       -4.558579   -0.418035    0.097978
     26          1           0       -3.593000   -1.895242    0.295857
 ---------------------------------------------------------------------
 Rotational constants (GHZ):           3.1754562           0.5924954           0.5431879
 Standard basis: 6-31G(2df,p) (6D, 7F)
 There are   390 symmetry adapted cartesian basis functions of A   symmetry.
 There are   360 symmetry adapted basis functions of A   symmetry.
   360 basis functions,   552 primitive gaussians,   390 cartesian basis functions
    40 alpha electrons       40 beta electrons
       nuclear repulsion energy       566.7241578674 Hartrees.
 NAtoms=   26 NActive=   26 NUniq=   26 SFac= 1.00D+00 NAtFMM=   60 NAOKFM=F Big=F
 Integral buffers will be    131072 words long.
 Raffenetti 2 integral format.
 Two-electron integral symmetry is turned on.
 One-electron integrals computed using PRISM.
 PrsmSu:  requested number of processors reduced to:  13 ShMem   1 Linda.
 NBasis=   360 RedAO= T EigKep=  5.87D-04  NBF=   360
 NBsUse=   360 1.00D-06 EigRej= -1.00D+00 NBFU=   360
 ExpMin= 1.61D-01 ExpMax= 5.48D+03 ExpMxC= 8.25D+02 IAcc=3 IRadAn=         5 AccDes= 0.00D+00
 Harris functional with IExCor=  402 and IRadAn=       5 diagonalized for initial guess.
 HarFok:  IExCor=  402 AccDes= 0.00D+00 IRadAn=         5 IDoV= 1 UseB2=F ITyADJ=14
 ICtDFT=  3500011 ScaDFX=  1.000000  1.000000  1.000000  1.000000
 FoFCou: FMM=F IPFlag=           0 FMFlag=      100000 FMFlg1=           0
         NFxFlg=           0 DoJE=T BraDBF=F KetDBF=T FulRan=T
         wScrn=  0.000000 ICntrl=       500 IOpCl=  0 I1Cent=   200000004 NGrid=           0
         NMat0=    1 NMatS0=      1 NMatT0=    0 NMatD0=    1 NMtDS0=    0 NMtDT0=    0
 Petite list used in FoFCou.
 Requested convergence on RMS density matrix=1.00D-08 within 128 cycles.
 Requested convergence on MAX density matrix=1.00D-06.
 Requested convergence on             energy=1.00D-06.
 No special actions if energy rises.
 Integral accuracy reduced to 1.0D-05 until final iterations.
 Initial convergence to 1.0D-05 achieved.  Increase integral accuracy.
 SCF Done:  E(RB3LYP) =  -464.999719660     A.U. after   13 cycles
            NFock= 13  Conv=0.83D-08     -V/T= 2.0081

 **********************************************************************

            Population analysis using the SCF density.

 **********************************************************************

 Orbital symmetries:
       Occupied  (A) (A) (A) (A) (A) (A) (A) (A) (A) (A) (A) (A)
                 (A) (A) (A) (A) (A) (A) (A) (A) (A) (A) (A) (A)
                 (A) (A) (A) (A) (A) (A) (A) (A) (A) (A) (A) (A)
                 (A) (A) (A) (A)
       Virtual   (A) (A) (A) (A) (A) (A) (A) (A) (A) (A) (A) (A)
                 (A) (A) (A) (A) (A) (A) (A) (A) (A) (A) (A) (A)
                 (A) (A) (A) (A) (A) (A) (A) (A) (A) (A) (A) (A)
                 (A) (A) (A) (A) (A) (A) (A) (A) (A) (A) (A) (A)
                 (A) (A) (A) (A) (A) (A) (A) (A) (A) (A) (A) (A)
                 (A) (A) (A) (A) (A) (A) (A) (A) (A) (A) (A) (A)
                 (A) (A) (A) (A) (A) (A) (A) (A) (A) (A) (A) (A)
                 (A) (A) (A) (A) (A) (A) (A) (A) (A) (A) (A) (A)
                 (A) (A) (A) (A) (A) (A) (A) (A) (A) (A) (A) (A)
                 (A) (A) (A) (A) (A) (A) (A) (A) (A) (A) (A) (A)
                 (A) (A) (A) (A) (A) (A) (A) (A) (A) (A) (A) (A)
                 (A) (A) (A) (A) (A) (A) (A) (A) (A) (A) (A) (A)
                 (A) (A) (A) (A) (A) (A) (A) (A) (A) (A) (A) (A)
                 (A) (A) (A) (A) (A) (A) (A) (A) (A) (A) (A) (A)
                 (A) (A) (A) (A) (A) (A) (A) (A) (A) (A) (A) (A)
                 (A) (A) (A) (A) (A) (A) (A) (A) (A) (A) (A) (A)
                 (A) (A) (A) (A) (A) (A) (A) (A) (A) (A) (A) (A)
                 (A) (A) (A) (A) (A) (A) (A) (A) (A) (A) (A) (A)
                 (A) (A) (A) (A) (A) (A) (A) (A) (A) (A) (A) (A)
                 (A) (A) (A) (A) (A) (A) (A) (A) (A) (A) (A) (A)
                 (A) (A) (A) (A) (A) (A) (A) (A) (A) (A) (A) (A)
                 (A) (A) (A) (A) (A) (A) (A) (A) (A) (A) (A) (A)
                 (A) (A) (A) (A) (A) (A) (A) (A) (A) (A) (A) (A)
                 (A) (A) (A) (A) (A) (A) (A) (A) (A) (A) (A) (A)
                 (A) (A) (A) (A) (A) (A) (A) (A) (A) (A) (A) (A)
                 (A) (A) (A) (A) (A) (A) (A) (A) (A) (A) (A) (A)
                 (A) (A) (A) (A) (A) (A) (A) (A)
 The electronic state is 1-A.
 Alpha  occ. eigenvalues --  -19.18012 -19.12347 -10.30584 -10.24278 -10.19446
 Alpha  occ. eigenvalues --  -10.18651 -10.18020 -10.17187 -10.17068 -10.16210
 Alpha  occ. eigenvalues --   -1.08963  -1.00319  -0.81091  -0.78822  -0.71644
 Alpha  occ. eigenvalues --   -0.68826  -0.67555  -0.62240  -0.56221  -0.54348
 Alpha  occ. eigenvalues --   -0.49755  -0.48177  -0.46250  -0.45347  -0.44045
 Alpha  occ. eigenvalues --   -0.42889  -0.40526  -0.39925  -0.39172  -0.38678
 Alpha  occ. eigenvalues --   -0.37855  -0.36699  -0.35705  -0.34762  -0.33147
 Alpha  occ. eigenvalues --   -0.32887  -0.32380  -0.32298  -0.29269  -0.26466
 Alpha virt. eigenvalues --    0.00845   0.08116   0.09931   0.11827   0.13176
 Alpha virt. eigenvalues --    0.13840   0.14204   0.14987   0.15266   0.16451
 Alpha virt. eigenvalues --    0.16778   0.17464   0.17951   0.18821   0.19194
 Alpha virt. eigenvalues --    0.19357   0.20046   0.21881   0.22607   0.22984
 Alpha virt. eigenvalues --    0.23943   0.24699   0.25317   0.26879   0.31002
 Alpha virt. eigenvalues --    0.36383   0.42776   0.44192   0.45435   0.46495
 Alpha virt. eigenvalues --    0.47683   0.48360   0.48833   0.50644   0.51468
 Alpha virt. eigenvalues --    0.53479   0.55697   0.56349   0.56705   0.58726
 Alpha virt. eigenvalues --    0.59845   0.60575   0.61938   0.62403   0.64158
 Alpha virt. eigenvalues --    0.64939   0.66134   0.67608   0.70510   0.71308
 Alpha virt. eigenvalues --    0.71756   0.72383   0.73365   0.73832   0.74191
 Alpha virt. eigenvalues --    0.74504   0.75082   0.75353   0.76624   0.77650
 Alpha virt. eigenvalues --    0.78433   0.79678   0.81613   0.82939   0.83085
 Alpha virt. eigenvalues --    0.84349   0.87111   0.87518   0.88437   0.89108
 Alpha virt. eigenvalues --    0.89541   0.90319   0.92292   0.94099   0.98091
 Alpha virt. eigenvalues --    0.99814   1.01332   1.02590   1.05684   1.10302
 Alpha virt. eigenvalues --    1.11141   1.12901   1.15271   1.16945   1.19773
 Alpha virt. eigenvalues --    1.20494   1.22093   1.24206   1.26834   1.29205
 Alpha virt. eigenvalues --    1.31197   1.35572   1.36798   1.37534   1.38671
 Alpha virt. eigenvalues --    1.40018   1.40779   1.42629   1.44518   1.45869
 Alpha virt. eigenvalues --    1.47537   1.49861   1.51610   1.52345   1.53397
 Alpha virt. eigenvalues --    1.54242   1.56516   1.57012   1.58817   1.59611
 Alpha virt. eigenvalues --    1.61785   1.64195   1.66963   1.68442   1.69964
 Alpha virt. eigenvalues --    1.72771   1.74218   1.77740   1.78838   1.83010
 Alpha virt. eigenvalues --    1.85592   1.86421   1.87778   1.88231   1.88659
 Alpha virt. eigenvalues --    1.93445   1.94788   1.95519   1.95637   1.97360
 Alpha virt. eigenvalues --    1.98790   2.00943   2.02459   2.11845   2.17180
 Alpha virt. eigenvalues --    2.21632   2.22568   2.23610   2.25219   2.26438
 Alpha virt. eigenvalues --    2.28635   2.30522   2.32265   2.33043   2.36439
 Alpha virt. eigenvalues --    2.38797   2.41574   2.44528   2.46497   2.47536
 Alpha virt. eigenvalues --    2.48681   2.56443   2.57476   2.62202   2.64959
 Alpha virt. eigenvalues --    2.69565   2.72231   2.73330   2.74102   2.75710
 Alpha virt. eigenvalues --    2.76438   2.78041   2.79963   2.82333   2.84563
 Alpha virt. eigenvalues --    2.84853   2.86099   2.87838   2.90012   2.91294
 Alpha virt. eigenvalues --    2.91849   2.92050   2.92906   2.94838   2.95532
 Alpha virt. eigenvalues --    2.96820   2.98370   2.99781   3.00429   3.01779
 Alpha virt. eigenvalues --    3.06007   3.06843   3.09268   3.09531   3.12041
 Alpha virt. eigenvalues --    3.14692   3.16505   3.18397   3.19560   3.22726
 Alpha virt. eigenvalues --    3.24674   3.27823   3.32325   3.34748   3.36637
 Alpha virt. eigenvalues --    3.39602   3.40567   3.41738   3.42797   3.46618
 Alpha virt. eigenvalues --    3.49183   3.49652   3.51222   3.54341   3.56336
 Alpha virt. eigenvalues --    3.57804   3.60136   3.61616   3.62692   3.63954
 Alpha virt. eigenvalues --    3.66521   3.68057   3.68956   3.69255   3.72253
 Alpha virt. eigenvalues --    3.77323   3.79634   3.82215   3.83738   3.87262
 Alpha virt. eigenvalues --    3.89437   3.92433   3.94545   3.97264   4.00381
 Alpha virt. eigenvalues --    4.02190   4.04680   4.10872   4.15617   4.17901
 Alpha virt. eigenvalues --    4.20161   4.22819   4.25531   4.26796   4.29207
 Alpha virt. eigenvalues --    4.30454   4.33251   4.37164   4.37420   4.41310
 Alpha virt. eigenvalues --    4.43145   4.44803   4.45049   4.45898   4.46716
 Alpha virt. eigenvalues --    4.48794   4.48943   4.49390   4.53096   4.56941
 Alpha virt. eigenvalues --    4.57179   4.59288   4.60832   4.62741   4.63218
 Alpha virt. eigenvalues --    4.65760   4.66345   4.67086   4.68876   4.69949
 Alpha virt. eigenvalues --    4.70087   4.71140   4.73178   4.75055   4.76150
 Alpha virt. eigenvalues --    4.76645   4.77418   4.78956   4.80214   4.83829
 Alpha virt. eigenvalues --    4.84093   4.85219   4.85868   4.87404   4.88461
 Alpha virt. eigenvalues --    4.88856   4.92467   4.94331   4.97282   4.99192
 Alpha virt. eigenvalues --    5.06667   5.07800   5.10974   5.14957   5.18835
 Alpha virt. eigenvalues --    5.27082   5.32013   5.32391   5.34353   5.35605
 Alpha virt. eigenvalues --    5.41085   5.46415   5.48418   5.49959   5.53630
 Alpha virt. eigenvalues --    5.59494   5.64201   5.65943   5.71541   5.85430
 Alpha virt. eigenvalues --    5.87161   5.88626   6.02424   6.11310   6.22816
 Alpha virt. eigenvalues --    6.45244   6.58514   6.70197   6.86159   7.21311
 Alpha virt. eigenvalues --   11.03301  11.24622  11.37263  11.79658  11.83685
 Alpha virt. eigenvalues --   12.17960  12.26817  12.64574  13.15317  13.66725
          Condensed to atoms (all electrons):
               1          2          3          4          5          6
     1  C    5.030843   0.388131  -0.048667  -0.031957   0.002007   0.000584
     2  C    0.388131   4.595512   0.420456   0.386718  -0.029221  -0.000372
     3  C   -0.048667   0.420456   4.997178  -0.037444  -0.000409  -0.008825
     4  C   -0.031957   0.386718  -0.037444   5.127162   0.352272  -0.050773
     5  C    0.002007  -0.029221  -0.000409   0.352272   4.182804   0.677345
     6  O    0.000584  -0.000372  -0.008825  -0.050773   0.677345   7.760487
     7  O   -0.000014   0.001351  -0.000028  -0.050790   0.423491  -0.048414
     8  C   -0.000000  -0.000260   0.000026   0.006697  -0.060780   0.000429
     9  C    0.000000   0.000053  -0.000048  -0.000527   0.001555  -0.009445
    10  C   -0.000000  -0.000000   0.000000  -0.000098   0.002531   0.000859
    11  H    0.373483  -0.021662  -0.003139   0.003479  -0.000118   0.000005
    12  H    0.369126  -0.021862  -0.006260  -0.006090   0.000159  -0.000005
    13  H    0.365845  -0.022011   0.005220  -0.003451   0.000206   0.000005
    14  H   -0.044074   0.368187  -0.039929  -0.043543  -0.001286   0.007515
    15  H   -0.005905  -0.030994   0.369152  -0.006601   0.000155   0.000281
    16  H   -0.003157  -0.025900   0.371946   0.004101  -0.000031   0.000176
    17  H    0.005116  -0.021729   0.368291  -0.003288   0.002060   0.012065
    18  H   -0.003551  -0.023545   0.004858   0.341624  -0.007486   0.000043
    19  H   -0.002792  -0.025021  -0.007283   0.343361  -0.013096   0.000751
    20  H    0.000000   0.000017   0.000004   0.000692   0.001842   0.010176
    21  H   -0.000000   0.000000   0.000005   0.000043   0.001578   0.000173
    22  H    0.000000  -0.000029  -0.000048   0.000353   0.002513   0.012399
    23  H    0.000000  -0.000001   0.000001   0.000004  -0.000324   0.000241
    24  H    0.000000   0.000000   0.000000  -0.000002   0.000069  -0.000010
    25  H    0.000000  -0.000000   0.000000   0.000005  -0.000075   0.000017
    26  H    0.000000   0.000000   0.000000   0.000011   0.000251   0.000001
               7          8          9         10         11         12
     1  C   -0.000014  -0.000000   0.000000  -0.000000   0.373483   0.369126
     2  C    0.001351  -0.000260   0.000053  -0.000000  -0.021662  -0.021862
     3  C   -0.000028   0.000026  -0.000048   0.000000  -0.003139  -0.006260
     4  C   -0.050790   0.006697  -0.000527  -0.000098   0.003479  -0.006090
     5  C    0.423491  -0.060780   0.001555   0.002531  -0.000118   0.000159
     6  O   -0.048414   0.000429  -0.009445   0.000859   0.000005  -0.000005
     7  O    7.716258   0.314290  -0.032413  -0.025250   0.000000  -0.000000
     8  C    0.314290   4.550295   0.391656   0.401191  -0.000000   0.000000
     9  C   -0.032413   0.391656   5.052030  -0.051118   0.000000   0.000000
    10  C   -0.025250   0.401191  -0.051118   5.021619   0.000000   0.000000
    11  H    0.000000  -0.000000   0.000000   0.000000   0.597871  -0.032872
    12  H   -0.000000   0.000000   0.000000   0.000000  -0.032872   0.606223
    13  H    0.000001   0.000000   0.000000   0.000000  -0.031107  -0.033018
    14  H    0.000098  -0.000005   0.000002  -0.000000  -0.003201   0.005959
    15  H   -0.000001  -0.000003   0.000002  -0.000000  -0.000100   0.005334
    16  H   -0.000000  -0.000000   0.000000   0.000000   0.004068  -0.000144
    17  H   -0.000119  -0.000051  -0.000030  -0.000000  -0.000049  -0.000069
    18  H   -0.000228  -0.000154   0.000004  -0.000001  -0.000088  -0.000222
    19  H    0.000849   0.000048   0.000045  -0.000016  -0.000115   0.004121
    20  H   -0.032620   0.367986  -0.052651  -0.050080  -0.000000  -0.000000
    21  H   -0.001133  -0.024346   0.365390  -0.006745   0.000000  -0.000000
    22  H   -0.003910  -0.020194   0.370416   0.004781  -0.000000   0.000000
    23  H    0.002178  -0.021993   0.365063  -0.000863  -0.000000   0.000000
    24  H   -0.000342  -0.018120  -0.007336   0.366790   0.000000  -0.000000
    25  H    0.001904  -0.022513  -0.001170   0.372714  -0.000000   0.000000
    26  H    0.001027  -0.018735   0.005412   0.365114   0.000000   0.000000
              13         14         15         16         17         18
     1  C    0.365845  -0.044074  -0.005905  -0.003157   0.005116  -0.003551
     2  C   -0.022011   0.368187  -0.030994  -0.025900  -0.021729  -0.023545
     3  C    0.005220  -0.039929   0.369152   0.371946   0.368291   0.004858
     4  C   -0.003451  -0.043543  -0.006601   0.004101  -0.003288   0.341624
     5  C    0.000206  -0.001286   0.000155  -0.000031   0.002060  -0.007486
     6  O    0.000005   0.007515   0.000281   0.000176   0.012065   0.000043
     7  O    0.000001   0.000098  -0.000001  -0.000000  -0.000119  -0.000228
     8  C    0.000000  -0.000005  -0.000003  -0.000000  -0.000051  -0.000154
     9  C    0.000000   0.000002   0.000002   0.000000  -0.000030   0.000004
    10  C    0.000000  -0.000000  -0.000000   0.000000  -0.000000  -0.000001
    11  H   -0.031107  -0.003201  -0.000100   0.004068  -0.000049  -0.000088
    12  H   -0.033018   0.005959   0.005334  -0.000144  -0.000069  -0.000222
    13  H    0.612841  -0.002707  -0.000018  -0.000021  -0.000216   0.004193
    14  H   -0.002707   0.658346   0.006067  -0.003312  -0.002922  -0.003024
    15  H   -0.000018   0.006067   0.620291  -0.031471  -0.032223  -0.000008
    16  H   -0.000021  -0.003312  -0.031471   0.604320  -0.028372  -0.000174
    17  H   -0.000216  -0.002922  -0.032223  -0.028372   0.565662   0.000030
    18  H    0.004193  -0.003024  -0.000008  -0.000174   0.000030   0.590464
    19  H   -0.000242   0.006181   0.005065  -0.000106  -0.000487  -0.031012
    20  H   -0.000000  -0.000003  -0.000000  -0.000000  -0.000013  -0.000020
    21  H   -0.000000  -0.000000  -0.000000  -0.000000  -0.000008   0.000001
    22  H   -0.000000  -0.000005  -0.000003  -0.000000   0.000751   0.000001
    23  H    0.000000  -0.000000  -0.000000  -0.000000  -0.000002   0.000000
    24  H    0.000000   0.000000  -0.000000  -0.000000  -0.000000   0.000001
    25  H   -0.000000  -0.000000  -0.000000  -0.000000  -0.000000  -0.000000
    26  H   -0.000000  -0.000000   0.000000   0.000000  -0.000000  -0.000001
              19         20         21         22         23         24
     1  C   -0.002792   0.000000  -0.000000   0.000000   0.000000   0.000000
     2  C   -0.025021   0.000017   0.000000  -0.000029  -0.000001   0.000000
     3  C   -0.007283   0.000004   0.000005  -0.000048   0.000001   0.000000
     4  C    0.343361   0.000692   0.000043   0.000353   0.000004  -0.000002
     5  C   -0.013096   0.001842   0.001578   0.002513  -0.000324   0.000069
     6  O    0.000751   0.010176   0.000173   0.012399   0.000241  -0.000010
     7  O    0.000849  -0.032620  -0.001133  -0.003910   0.002178  -0.000342
     8  C    0.000048   0.367986  -0.024346  -0.020194  -0.021993  -0.018120
     9  C    0.000045  -0.052651   0.365390   0.370416   0.365063  -0.007336
    10  C   -0.000016  -0.050080  -0.006745   0.004781  -0.000863   0.366790
    11  H   -0.000115  -0.000000   0.000000  -0.000000  -0.000000   0.000000
    12  H    0.004121  -0.000000  -0.000000   0.000000   0.000000  -0.000000
    13  H   -0.000242  -0.000000  -0.000000  -0.000000   0.000000   0.000000
    14  H    0.006181  -0.000003  -0.000000  -0.000005  -0.000000   0.000000
    15  H    0.005065  -0.000000  -0.000000  -0.000003  -0.000000  -0.000000
    16  H   -0.000106  -0.000000  -0.000000  -0.000000  -0.000000  -0.000000
    17  H   -0.000487  -0.000013  -0.000008   0.000751  -0.000002  -0.000000
    18  H   -0.031012  -0.000020   0.000001   0.000001   0.000000   0.000001
    19  H    0.594698   0.000006   0.000001  -0.000059  -0.000001   0.000003
    20  H    0.000006   0.647175   0.005810  -0.004081   0.000461   0.005731
    21  H    0.000001   0.005810   0.599297  -0.032662  -0.028230   0.005048
    22  H   -0.000059  -0.004081  -0.032662   0.551367  -0.026810  -0.000107
    23  H   -0.000001   0.000461  -0.028230  -0.026810   0.592963   0.000161
    24  H    0.000003   0.005731   0.005048  -0.000107   0.000161   0.586059
    25  H   -0.000000  -0.000078   0.000237   0.000022   0.001689  -0.029543
    26  H   -0.000000  -0.003733  -0.000034  -0.000203  -0.000049  -0.032431
              25         26
     1  C    0.000000   0.000000
     2  C   -0.000000   0.000000
     3  C    0.000000   0.000000
     4  C    0.000005   0.000011
     5  C   -0.000075   0.000251
     6  O    0.000017   0.000001
     7  O    0.001904   0.001027
     8  C   -0.022513  -0.018735
     9  C   -0.001170   0.005412
    10  C    0.372714   0.365114
    11  H   -0.000000   0.000000
    12  H    0.000000   0.000000
    13  H   -0.000000  -0.000000
    14  H   -0.000000  -0.000000
    15  H   -0.000000   0.000000
    16  H   -0.000000   0.000000
    17  H   -0.000000  -0.000000
    18  H   -0.000000  -0.000001
    19  H   -0.000000  -0.000000
    20  H   -0.000078  -0.003733
    21  H    0.000237  -0.000034
    22  H    0.000022  -0.000203
    23  H    0.001689  -0.000049
    24  H   -0.029543  -0.032431
    25  H    0.581710  -0.028676
    26  H   -0.028676   0.593619
 Mulliken charges:
               1
     1  C   -0.395019
     2  C    0.062183
     3  C   -0.385056
     4  C   -0.331960
     5  C    0.461989
     6  O   -0.365706
     7  O   -0.266185
     8  C    0.154536
     9  C   -0.396891
    10  C   -0.401427
    11  H    0.113544
    12  H    0.109619
    13  H    0.104478
    14  H    0.091655
    15  H    0.100980
    16  H    0.108076
    17  H    0.135605
    18  H    0.128292
    19  H    0.125102
    20  H    0.103378
    21  H    0.115575
    22  H    0.145509
    23  H    0.115514
    24  H    0.124026
    25  H    0.123756
    26  H    0.118428
 Sum of Mulliken charges =  -0.00000
 Mulliken charges with hydrogens summed into heavy atoms:
               1
     1  C   -0.067377
     2  C    0.153837
     3  C   -0.040395
     4  C   -0.078567
     5  C    0.461989
     6  O   -0.365706
     7  O   -0.266185
     8  C    0.257913
     9  C   -0.020293
    10  C   -0.035216
 Electronic spatial extent (au):  <R**2>=           2221.3179
 Charge=             -0.0000 electrons
 Dipole moment (field-independent basis, Debye):
    X=             -0.6187    Y=             -1.0172    Z=             -0.8179  Tot=              1.4445
 Quadrupole moment (field-independent basis, Debye-Ang):
   XX=            -57.1723   YY=            -64.0553   ZZ=            -63.8516
   XY=             -1.2149   XZ=             -0.4761   YZ=             -2.2536
 Traceless Quadrupole moment (field-independent basis, Debye-Ang):
   XX=              4.5207   YY=             -2.3622   ZZ=             -2.1585
   XY=             -1.2149   XZ=             -0.4761   YZ=             -2.2536
 Octapole moment (field-independent basis, Debye-Ang**2):
  XXX=            -25.3933  YYY=             -1.9085  ZZZ=              0.0689  XYY=             -1.9145
  XXY=              3.9035  XXZ=              7.1354  XZZ=             -2.4372  YZZ=             -3.5247
  YYZ=              2.2668  XYZ=              0.6730
 Hexadecapole moment (field-independent basis, Debye-Ang**3):
 XXXX=          -2367.6928 YYYY=           -412.3565 ZZZZ=           -176.4437 XXXY=             10.6731
 XXXZ=              2.6243 YYYX=              1.0235 YYYZ=              0.9373 ZZZX=              0.3336
 ZZZY=              2.8824 XXYY=           -473.4921 XXZZ=           -430.1542 YYZZ=           -102.2373
 XXYZ=              4.1678 YYXZ=              1.8343 ZZXY=              0.7943
 N-N= 5.667241578674D+02 E-N=-2.215791107828D+03  KE= 4.612475894165D+02
 PrsmSu:  requested number of processors reduced to:  13 ShMem   1 Linda.
 Calling FoFJK, ICntrl=      2127 FMM=F ISym2X=0 I1Cent= 0 IOpClX= 0 NMat=1 NMatS=1 NMatT=0.
 ***** Axes restored to original set *****
 -------------------------------------------------------------------
 Center     Atomic                   Forces (Hartrees/Bohr)
 Number     Number              X              Y              Z
 -------------------------------------------------------------------
      1        6          -0.001548352   -0.002235728    0.002711529
      2        6          -0.001105091    0.001335357   -0.003776986
      3        6           0.006393035   -0.001028001   -0.002880613
      4        6           0.000985479   -0.007905145   -0.009059649
      5        6           0.016015374   -0.011781354   -0.009481990
      6        8          -0.014364213    0.018096499    0.023904507
      7        8          -0.000975157   -0.010453935   -0.010166858
      8        6           0.017599256    0.007131761    0.000402805
      9        6          -0.003797619   -0.002848741   -0.010716745
     10        6          -0.009853068    0.000290663    0.006923360
     11        1           0.000157658    0.001011270    0.001071760
     12        1          -0.001118833    0.000563987    0.000560201
     13        1          -0.001663673    0.000386034    0.001054654
     14        1           0.002034618    0.002891477    0.001002553
     15        1          -0.002562147    0.001105256   -0.000964237
     16        1          -0.002205237    0.001216108   -0.000013429
     17        1          -0.001282451   -0.000945203    0.001734241
     18        1          -0.000488044    0.003534071    0.001597160
     19        1           0.001325061   -0.000087601    0.004066505
     20        1          -0.004634631    0.001038424   -0.004324513
     21        1           0.001855782    0.001627450    0.003305897
     22        1           0.001007953   -0.001842363    0.002859012
     23        1          -0.000368071    0.000918379    0.002318587
     24        1           0.000740480    0.000164658   -0.000994512
     25        1          -0.002637200   -0.001542545   -0.001740306
     26        1           0.000489089   -0.000640778    0.000607065
 -------------------------------------------------------------------
 Cartesian Forces:  Max     0.023904507 RMS     0.006037310

 GradGradGradGradGradGradGradGradGradGradGradGradGradGradGradGradGradGrad
 Berny optimization.
 FormGI is forming the generalized inverse of G from B-inverse, IUseBI=4.
 Internal  Forces:  Max     0.032770007 RMS     0.004773456
 Search for a local minimum.
 Step number   1 out of a maximum of  137
 All quantities printed in internal units (Hartrees-Bohrs-Radians)
 Mixed Optimization -- RFO/linear search
 Second derivative matrix not updated -- first step.
 ITU=  0
     Eigenvalues ---    0.00230   0.00317   0.00371   0.00382   0.00413
     Eigenvalues ---    0.00541   0.00946   0.01053   0.02158   0.03593
     Eigenvalues ---    0.04255   0.04542   0.04726   0.04955   0.04972
     Eigenvalues ---    0.05358   0.05384   0.05419   0.05468   0.05498
     Eigenvalues ---    0.05534   0.05545   0.05580   0.05610   0.06847
     Eigenvalues ---    0.09032   0.12588   0.16000   0.16000   0.16000
     Eigenvalues ---    0.16000   0.16000   0.16000   0.16000   0.16000
     Eigenvalues ---    0.16000   0.16000   0.16000   0.16000   0.16014
     Eigenvalues ---    0.16340   0.16891   0.19737   0.21977   0.25000
     Eigenvalues ---    0.25000   0.25000   0.28018   0.29061   0.29440
     Eigenvalues ---    0.29513   0.29731   0.30658   0.33843   0.33864
     Eigenvalues ---    0.34049   0.34066   0.34075   0.34097   0.34213
     Eigenvalues ---    0.34240   0.34262   0.34280   0.34304   0.34344
     Eigenvalues ---    0.34350   0.34367   0.34437   0.34465   0.38469
     Eigenvalues ---    0.52001   0.91841
 RFO step:  Lambda=-1.31472162D-02 EMin= 2.30000000D-03
 Linear search not attempted -- first point.
 Iteration  1 RMS(Cart)=  0.20614122 RMS(Int)=  0.00947687
 Iteration  2 RMS(Cart)=  0.02389606 RMS(Int)=  0.00049808
 Iteration  3 RMS(Cart)=  0.00025953 RMS(Int)=  0.00048784
 Iteration  4 RMS(Cart)=  0.00000017 RMS(Int)=  0.00048784
 Variable       Old X    -DE/DX   Delta X   Delta X   Delta X     New X
                                 (Linear)    (Quad)   (Total)
    R1        2.88946   0.00427   0.00000   0.01386   0.01386   2.90332
    R2        2.07247  -0.00142   0.00000  -0.00401  -0.00401   2.06846
    R3        2.06927   0.00091   0.00000   0.00255   0.00255   2.07182
    R4        2.06744   0.00129   0.00000   0.00362   0.00362   2.07106
    R5        2.89876   0.00208   0.00000   0.00686   0.00686   2.90562
    R6        2.92099  -0.00144   0.00000  -0.00490  -0.00490   2.91609
    R7        2.07596  -0.00204   0.00000  -0.00581  -0.00581   2.07015
    R8        2.06820   0.00195   0.00000   0.00546   0.00546   2.07366
    R9        2.06859   0.00015   0.00000   0.00043   0.00043   2.06902
   R10        2.06553  -0.00145   0.00000  -0.00405  -0.00405   2.06147
   R11        2.86670   0.00111   0.00000   0.00348   0.00348   2.87018
   R12        2.07220   0.00012   0.00000   0.00033   0.00033   2.07253
   R13        2.07166  -0.00062   0.00000  -0.00175  -0.00175   2.06991
   R14        2.32096  -0.03277   0.00000  -0.03518  -0.03518   2.28578
   R15        2.57898  -0.01180   0.00000  -0.02214  -0.02214   2.55684
   R16        2.73689   0.00029   0.00000   0.00073   0.00073   2.73762
   R17        2.89095   0.00045   0.00000   0.00145   0.00145   2.89240
   R18        2.88503  -0.00077   0.00000  -0.00248  -0.00248   2.88256
   R19        2.07560  -0.00278   0.00000  -0.00790  -0.00790   2.06770
   R20        2.06891   0.00061   0.00000   0.00171   0.00171   2.07061
   R21        2.06598  -0.00177   0.00000  -0.00496  -0.00496   2.06102
   R22        2.06716  -0.00032   0.00000  -0.00089  -0.00089   2.06627
   R23        2.06973  -0.00006   0.00000  -0.00017  -0.00017   2.06956
   R24        2.07204  -0.00269   0.00000  -0.00761  -0.00761   2.06443
   R25        2.06754   0.00061   0.00000   0.00172   0.00172   2.06926
    A1        1.92626   0.00019   0.00000   0.00228   0.00226   1.92852
    A2        1.93935   0.00068   0.00000   0.00261   0.00261   1.94196
    A3        1.94469   0.00157   0.00000   0.00921   0.00920   1.95389
    A4        1.87973  -0.00050   0.00000  -0.00319  -0.00319   1.87653
    A5        1.87953  -0.00055   0.00000  -0.00071  -0.00074   1.87879
    A6        1.89195  -0.00152   0.00000  -0.01091  -0.01091   1.88105
    A7        1.89714   0.00252   0.00000   0.01946   0.01960   1.91675
    A8        1.94803  -0.00529   0.00000  -0.03142  -0.03167   1.91637
    A9        1.88043   0.00147   0.00000   0.00738   0.00689   1.88732
   A10        1.94782   0.00307   0.00000   0.01918   0.01944   1.96725
   A11        1.89367  -0.00139   0.00000   0.00205   0.00201   1.89568
   A12        1.89482  -0.00036   0.00000  -0.01633  -0.01646   1.87835
   A13        1.93372  -0.00005   0.00000  -0.00243  -0.00246   1.93126
   A14        1.93158  -0.00014   0.00000  -0.00307  -0.00309   1.92848
   A15        1.96405  -0.00201   0.00000  -0.00712  -0.00711   1.95694
   A16        1.89409  -0.00113   0.00000  -0.01514  -0.01521   1.87889
   A17        1.87534   0.00171   0.00000   0.01417   0.01418   1.88953
   A18        1.86191   0.00172   0.00000   0.01411   0.01412   1.87603
   A19        1.93349   0.01586   0.00000   0.07875   0.07808   2.01157
   A20        1.91458  -0.00200   0.00000   0.00085   0.00120   1.91578
   A21        1.91642  -0.00232   0.00000   0.00537   0.00502   1.92144
   A22        1.88025  -0.00617   0.00000  -0.03114  -0.03200   1.84825
   A23        1.92256  -0.00549   0.00000  -0.01898  -0.02050   1.90207
   A24        1.89583  -0.00023   0.00000  -0.03770  -0.03837   1.85746
   A25        2.15857   0.00892   0.00000   0.03375   0.03171   2.19028
   A26        1.96467  -0.00930   0.00000  -0.03550  -0.03746   1.92721
   A27        2.15994   0.00036   0.00000   0.00118  -0.00071   2.15922
   A28        1.99132   0.02176   0.00000   0.08270   0.08270   2.07402
   A29        1.93041   0.00408   0.00000   0.02296   0.02405   1.95447
   A30        1.90634  -0.01122   0.00000  -0.06609  -0.06640   1.83994
   A31        1.90949   0.00031   0.00000  -0.02569  -0.02569   1.88381
   A32        1.89739   0.00870   0.00000   0.04850   0.04833   1.94572
   A33        1.93270  -0.00406   0.00000  -0.00509  -0.00612   1.92659
   A34        1.88676   0.00202   0.00000   0.02481   0.02359   1.91035
   A35        1.92676  -0.00145   0.00000  -0.00781  -0.00799   1.91878
   A36        1.95905  -0.00176   0.00000  -0.00382  -0.00384   1.95521
   A37        1.93868  -0.00223   0.00000  -0.01978  -0.01999   1.91869
   A38        1.85696   0.00358   0.00000   0.03401   0.03402   1.89098
   A39        1.90498   0.00018   0.00000  -0.01111  -0.01147   1.89351
   A40        1.87451   0.00202   0.00000   0.01082   0.01077   1.88527
   A41        1.93561   0.00001   0.00000   0.00204   0.00195   1.93756
   A42        1.93385  -0.00352   0.00000  -0.02452  -0.02456   1.90928
   A43        1.94172   0.00099   0.00000   0.00787   0.00783   1.94955
   A44        1.88930   0.00124   0.00000   0.00303   0.00295   1.89225
   A45        1.87052   0.00064   0.00000   0.01167   0.01159   1.88212
   A46        1.89062   0.00081   0.00000   0.00097   0.00097   1.89159
    D1        1.02004  -0.00071   0.00000  -0.00247  -0.00234   1.01769
    D2       -3.10740   0.00140   0.00000   0.01443   0.01438  -3.09302
    D3       -1.02873  -0.00121   0.00000  -0.01935  -0.01944  -1.04817
    D4       -1.06404  -0.00064   0.00000  -0.00164  -0.00151  -1.06555
    D5        1.09171   0.00146   0.00000   0.01526   0.01522   1.10693
    D6       -3.11280  -0.00115   0.00000  -0.01852  -0.01861  -3.13141
    D7        3.10732  -0.00025   0.00000   0.00414   0.00428   3.11159
    D8       -1.02012   0.00186   0.00000   0.02103   0.02101  -0.99912
    D9        1.05855  -0.00076   0.00000  -0.01274  -0.01282   1.04572
   D10        1.07978  -0.00243   0.00000  -0.01690  -0.01677   1.06302
   D11       -1.02212  -0.00089   0.00000   0.00577   0.00586  -1.01626
   D12       -3.10345  -0.00165   0.00000  -0.00532  -0.00521  -3.10866
   D13       -1.07609   0.00046   0.00000  -0.00354  -0.00359  -1.07968
   D14        3.10519   0.00200   0.00000   0.01913   0.01904   3.12423
   D15        1.02386   0.00124   0.00000   0.00804   0.00797   1.03183
   D16        3.12010  -0.00007   0.00000   0.00364   0.00361   3.12371
   D17        1.01820   0.00148   0.00000   0.02631   0.02624   1.04444
   D18       -1.06314   0.00072   0.00000   0.01522   0.01517  -1.04797
   D19        3.04600  -0.00253   0.00000  -0.08897  -0.08887   2.95713
   D20        0.97247  -0.00344   0.00000  -0.09966  -0.09974   0.87273
   D21       -1.10975  -0.00052   0.00000  -0.05723  -0.05661  -1.16635
   D22       -1.11042  -0.00086   0.00000  -0.07259  -0.07272  -1.18314
   D23        3.09923  -0.00178   0.00000  -0.08328  -0.08359   3.01564
   D24        1.01701   0.00115   0.00000  -0.04084  -0.04046   0.97655
   D25        0.97589  -0.00094   0.00000  -0.06889  -0.06920   0.90669
   D26       -1.09764  -0.00186   0.00000  -0.07958  -0.08007  -1.17772
   D27        3.10333   0.00107   0.00000  -0.03715  -0.03694   3.06639
   D28       -0.16873  -0.00164   0.00000  -0.08560  -0.08570  -0.25443
   D29        2.97825   0.00092   0.00000   0.02721   0.02762   3.00587
   D30        1.92545   0.00141   0.00000  -0.05763  -0.05856   1.86689
   D31       -1.21076   0.00397   0.00000   0.05518   0.05476  -1.15600
   D32       -2.29256  -0.00558   0.00000  -0.13202  -0.13175  -2.42431
   D33        0.85442  -0.00302   0.00000  -0.01921  -0.01842   0.83599
   D34       -3.10125  -0.00018   0.00000  -0.02515  -0.02415  -3.12540
   D35        0.04573   0.00235   0.00000   0.08764   0.08664   0.13237
   D36        1.21832   0.00100   0.00000   0.14637   0.14639   1.36470
   D37       -2.97727   0.00716   0.00000   0.17859   0.17762  -2.79965
   D38       -0.91519   0.00321   0.00000   0.15487   0.15582  -0.75937
   D39        0.99407  -0.00058   0.00000   0.01476   0.01488   1.00895
   D40       -1.07447  -0.00299   0.00000  -0.02037  -0.02013  -1.09460
   D41        3.10978  -0.00281   0.00000  -0.01778  -0.01748   3.09230
   D42       -1.09890   0.00526   0.00000   0.05154   0.05113  -1.04777
   D43        3.11574   0.00285   0.00000   0.01642   0.01613   3.13187
   D44        1.01680   0.00303   0.00000   0.01901   0.01878   1.03558
   D45        3.11393  -0.00016   0.00000  -0.00565  -0.00565   3.10827
   D46        1.04538  -0.00257   0.00000  -0.04077  -0.04066   1.00472
   D47       -1.05356  -0.00239   0.00000  -0.03818  -0.03801  -1.09156
   D48       -1.02641  -0.00368   0.00000  -0.04397  -0.04369  -1.07009
   D49       -3.12503  -0.00291   0.00000  -0.03287  -0.03260   3.12555
   D50        1.05379  -0.00222   0.00000  -0.02280  -0.02250   1.03129
   D51        1.08147  -0.00017   0.00000  -0.02632  -0.02705   1.05441
   D52       -1.01715   0.00060   0.00000  -0.01522  -0.01597  -1.03312
   D53       -3.12152   0.00129   0.00000  -0.00515  -0.00586  -3.12739
   D54       -3.10267   0.00114   0.00000   0.00996   0.01041  -3.09226
   D55        1.08190   0.00190   0.00000   0.02106   0.02149   1.10338
   D56       -1.02247   0.00259   0.00000   0.03113   0.03160  -0.99088
         Item               Value     Threshold  Converged?
 Maximum Force            0.032770     0.000450     NO 
 RMS     Force            0.004773     0.000300     NO 
 Maximum Displacement     0.665782     0.001800     NO 
 RMS     Displacement     0.214871     0.001200     NO 
 Predicted change in Energy=-7.984775D-03
 GradGradGradGradGradGradGradGradGradGradGradGradGradGradGradGradGradGrad

                          Input orientation:                          
 ---------------------------------------------------------------------
 Center     Atomic      Atomic             Coordinates (Angstroms)
 Number     Number       Type             X           Y           Z
 ---------------------------------------------------------------------
      1          6           0        1.040945   -0.006141    0.241460
      2          6           0        2.557709   -0.044551   -0.000173
      3          6           0        2.873837    0.472919   -1.413137
      4          6           0        3.283153    0.754104    1.103062
      5          6           0        4.793143    0.593180    1.133013
      6          8           0        5.419363   -0.266544    0.556977
      7          8           0        5.342635    1.457960    2.016686
      8          6           0        6.782428    1.473129    2.176234
      9          6           0        7.476896    2.227359    1.039765
     10          6           0        7.034073    2.139945    3.524871
     11          1           0        0.518229   -0.610356   -0.506742
     12          1           0        0.652606    1.016620    0.169606
     13          1           0        0.773558   -0.396895    1.229861
     14          1           0        2.888337   -1.086392    0.072762
     15          1           0        2.538862    1.511442   -1.528923
     16          1           0        2.355612   -0.129060   -2.166679
     17          1           0        3.940692    0.430882   -1.636927
     18          1           0        2.927108    0.432022    2.089124
     19          1           0        3.039952    1.818762    1.018529
     20          1           0        7.128351    0.435699    2.212434
     21          1           0        7.100460    3.255115    0.988600
     22          1           0        7.310747    1.752366    0.072147
     23          1           0        8.554967    2.261452    1.219133
     24          1           0        6.651406    3.166047    3.533120
     25          1           0        8.108611    2.170723    3.719453
     26          1           0        6.550601    1.595080    4.342435
 ---------------------------------------------------------------------
                    Distance matrix (angstroms):
                    1          2          3          4          5
     1  C    0.000000
     2  C    1.536371   0.000000
     3  C    2.515290   1.537589   0.000000
     4  C    2.519490   1.543129   2.564734   0.000000
     5  C    3.902953   2.586112   3.190780   1.518836   0.000000
     6  O    4.397488   2.923826   3.302704   2.429676   1.209584
     7  O    4.878479   3.752475   4.339235   2.360421   1.353021
     8  C    6.236683   4.988822   5.400101   3.730096   2.412442
     9  C    6.859102   5.517376   5.502994   4.445443   3.143527
    10  C    7.162685   6.102113   6.668618   4.674945   3.624256
    11  H    1.094584   2.176288   2.746620   3.478222   4.734151
    12  H    1.096362   2.187310   2.781106   2.803575   4.272178
    13  H    1.095957   2.195524   3.486142   2.763864   4.140857
    14  H    2.146686   1.095476   2.153963   2.145886   2.751978
    15  H    2.771474   2.181409   1.097336   2.838111   3.607062
    16  H    2.746378   2.177553   1.094879   3.511626   4.165472
    17  H    3.482508   2.194913   1.090884   2.836260   2.902685
    18  H    2.676465   2.174567   3.502905   1.096733   2.102904
    19  H    2.816050   2.177670   2.784221   1.095349   2.142158
    20  H    6.413773   5.100690   5.589906   4.014678   2.577430
    21  H    6.921830   5.701057   5.601188   4.565084   3.525687
    22  H    6.513941   5.081880   4.850693   4.275608   2.967739
    23  H    7.909384   6.539989   6.511754   5.484304   4.116050
    24  H    7.237063   6.288915   6.781477   4.802893   3.979108
    25  H    8.172336   7.039571   7.525216   5.668981   4.491174
    26  H    7.052532   6.122892   6.921303   4.677284   3.793791
                    6          7          8          9         10
     6  O    0.000000
     7  O    2.260653   0.000000
     8  C    2.739781   1.448686   0.000000
     9  C    3.268957   2.470105   1.530592   0.000000
    10  C    4.148117   2.366577   1.525382   2.525765   0.000000
    11  H    5.027009   5.824132   7.125971   7.672506   8.140902
    12  H    4.951619   5.059926   6.466040   6.985270   7.296765
    13  H    4.696091   4.993601   6.363893   7.201221   7.134191
    14  H    2.704202   4.034371   5.112699   5.742030   6.285971
    15  H    3.976116   4.520547   5.633605   5.612029   6.792847
    16  H    4.101679   5.379729   6.405045   6.485487   7.709093
    17  H    2.736071   4.045890   4.868464   4.785054   6.255722
    18  H    3.007790   2.625369   3.994369   5.002495   4.673920
    19  H    3.197363   2.535517   3.932667   4.455769   4.726300
    20  H    2.480792   2.066911   1.094182   2.169489   2.153099
    21  H    3.926126   2.716004   2.164969   1.095721   2.771404
    22  H    2.808628   2.782332   2.187299   1.090646   3.485408
    23  H    4.081817   3.405990   2.163190   1.093423   2.764835
    24  H    4.707233   2.632492   2.173541   2.789156   1.095165
    25  H    4.813895   3.325367   2.151029   2.753725   1.092447
    26  H    4.367497   2.624326   2.181981   3.487897   1.095004
                   11         12         13         14         15
    11  H    0.000000
    12  H    1.767075   0.000000
    13  H    1.768205   1.771101   0.000000
    14  H    2.485930   3.070917   2.507304   0.000000
    15  H    3.103198   2.586079   3.790638   3.071851   0.000000
    16  H    2.522502   3.109829   3.756477   2.493066   1.769622
    17  H    3.751632   3.797125   4.351371   2.516467   1.773247
    18  H    3.691582   3.033095   2.462360   2.524441   3.795543
    19  H    3.819182   2.657728   3.176530   3.058984   2.614392
    20  H    7.223702   6.815122   6.483985   4.987252   6.018172
    21  H    7.778411   6.874331   7.309246   6.117959   5.494224
    22  H    7.214975   6.699377   6.978142   5.255117   5.039083
    23  H    8.707186   8.068359   8.222971   6.680788   6.656414
    24  H    8.258182   7.205475   7.249046   6.649662   6.728671
    25  H    9.121898   8.338188   8.160498   7.152511   7.681289
    26  H    8.047855   7.247997   6.857864   6.231579   7.111532
                   16         17         18         19         20
    16  H    0.000000
    17  H    1.762569   0.000000
    18  H    4.330506   3.861452   0.000000
    19  H    3.795772   3.128736   1.755551   0.000000
    20  H    6.501894   4.997877   4.203054   4.478090   0.000000
    21  H    6.627368   4.985361   5.157313   4.307172   3.073704
    22  H    5.753735   4.003064   5.002778   4.374898   2.519466
    23  H    7.457229   5.727094   5.981346   5.536390   2.520963
    24  H    7.861252   6.446587   4.840497   4.602277   3.070259
    25  H    8.545908   7.006383   5.703422   5.754144   2.498464
    26  H    7.933419   6.627197   4.422647   4.839735   2.492962
                   21         22         23         24         25
    21  H    0.000000
    22  H    1.772671   0.000000
    23  H    1.776543   1.767153   0.000000
    24  H    2.585375   3.796256   3.129916   0.000000
    25  H    3.106418   3.756921   2.541470   1.774496   0.000000
    26  H    3.782363   4.340267   3.770484   1.770054   1.773941
                   26
    26  H    0.000000
 Stoichiometry    C8H16O2
 Framework group  C1[X(C8H16O2)]
 Deg. of freedom    72
 Full point group                 C1      NOp   1
 Largest Abelian subgroup         C1      NOp   1
 Largest concise Abelian subgroup C1      NOp   1
                         Standard orientation:                         
 ---------------------------------------------------------------------
 Center     Atomic      Atomic             Coordinates (Angstroms)
 Number     Number       Type             X           Y           Z
 ---------------------------------------------------------------------
      1          6           0        3.676424   -0.980150   -0.154956
      2          6           0        2.512331   -0.044886    0.206435
      3          6           0        2.710576    1.320548   -0.472142
      4          6           0        1.171623   -0.708986   -0.171347
      5          6           0       -0.069233   -0.009348    0.355577
      6          8           0       -0.084706    0.837369    1.219246
      7          8           0       -1.184557   -0.567564   -0.168935
      8          6           0       -2.476439   -0.023945    0.197410
      9          6           0       -2.791408    1.266653   -0.562763
     10          6           0       -3.484788   -1.122244   -0.124717
     11          1           0        4.630594   -0.541240    0.153317
     12          1           0        3.726722   -1.152874   -1.236458
     13          1           0        3.585550   -1.955850    0.335832
     14          1           0        2.516115    0.100407    1.292227
     15          1           0        2.730337    1.210992   -1.563816
     16          1           0        3.662623    1.766172   -0.165897
     17          1           0        1.920029    2.026424   -0.213678
     18          1           0        1.135932   -1.728220    0.232028
     19          1           0        1.092137   -0.803670   -1.259698
     20          1           0       -2.470746    0.160664    1.275891
     21          1           0       -2.761792    1.081165   -1.642264
     22          1           0       -2.081152    2.061332   -0.331401
     23          1           0       -3.791985    1.619943   -0.298938
     24          1           0       -3.475564   -1.362796   -1.193097
     25          1           0       -4.488073   -0.783831    0.144235
     26          1           0       -3.271139   -2.042908    0.428245
 ---------------------------------------------------------------------
 Rotational constants (GHZ):           2.9785721           0.5719227           0.5273940
 Standard basis: 6-31G(2df,p) (6D, 7F)
 There are   390 symmetry adapted cartesian basis functions of A   symmetry.
 There are   360 symmetry adapted basis functions of A   symmetry.
   360 basis functions,   552 primitive gaussians,   390 cartesian basis functions
    40 alpha electrons       40 beta electrons
       nuclear repulsion energy       561.0015273682 Hartrees.
 NAtoms=   26 NActive=   26 NUniq=   26 SFac= 1.00D+00 NAtFMM=   60 NAOKFM=F Big=F
 Integral buffers will be    131072 words long.
 Raffenetti 2 integral format.
 Two-electron integral symmetry is turned on.
 One-electron integrals computed using PRISM.
 PrsmSu:  requested number of processors reduced to:  13 ShMem   1 Linda.
 NBasis=   360 RedAO= T EigKep=  6.15D-04  NBF=   360
 NBsUse=   360 1.00D-06 EigRej= -1.00D+00 NBFU=   360
 Initial guess from the checkpoint file:  "CCqCrCCqdOrOCqCrC.chk"
 B after Tr=    -0.000000   -0.000000    0.000000
         Rot=    0.999905    0.013621    0.000014   -0.002109 Ang=   1.58 deg.
 ExpMin= 1.61D-01 ExpMax= 5.48D+03 ExpMxC= 8.25D+02 IAcc=2 IRadAn=         4 AccDes= 0.00D+00
 Harris functional with IExCor=  402 and IRadAn=       4 diagonalized for initial guess.
 HarFok:  IExCor=  402 AccDes= 0.00D+00 IRadAn=         4 IDoV= 1 UseB2=F ITyADJ=14
 ICtDFT=  3500011 ScaDFX=  1.000000  1.000000  1.000000  1.000000
 FoFCou: FMM=F IPFlag=           0 FMFlag=      100000 FMFlg1=           0
         NFxFlg=           0 DoJE=T BraDBF=F KetDBF=T FulRan=T
         wScrn=  0.000000 ICntrl=       500 IOpCl=  0 I1Cent=   200000004 NGrid=           0
         NMat0=    1 NMatS0=      1 NMatT0=    0 NMatD0=    1 NMtDS0=    0 NMtDT0=    0
 Petite list used in FoFCou.
 Requested convergence on RMS density matrix=1.00D-08 within 128 cycles.
 Requested convergence on MAX density matrix=1.00D-06.
 Requested convergence on             energy=1.00D-06.
 No special actions if energy rises.
 Integral accuracy reduced to 1.0D-05 until final iterations.
 Initial convergence to 1.0D-05 achieved.  Increase integral accuracy.
 SCF Done:  E(RB3LYP) =  -465.004536834     A.U. after   12 cycles
            NFock= 12  Conv=0.54D-08     -V/T= 2.0080
 PrsmSu:  requested number of processors reduced to:  13 ShMem   1 Linda.
 Calling FoFJK, ICntrl=      2127 FMM=F ISym2X=0 I1Cent= 0 IOpClX= 0 NMat=1 NMatS=1 NMatT=0.
 ***** Axes restored to original set *****
 -------------------------------------------------------------------
 Center     Atomic                   Forces (Hartrees/Bohr)
 Number     Number              X              Y              Z
 -------------------------------------------------------------------
      1        6           0.000168281   -0.001397147    0.000727720
      2        6          -0.000330781    0.001889808    0.001221784
      3        6           0.000548981   -0.000327717    0.001650999
      4        6          -0.000736281   -0.000020880   -0.006619280
      5        6           0.003585513   -0.010636289    0.008059317
      6        8          -0.001350548    0.006291470   -0.002635181
      7        8          -0.002390222    0.005513382   -0.008125061
      8        6           0.002852359   -0.000413272    0.005231571
      9        6          -0.005235858   -0.000230485   -0.000652476
     10        6          -0.001067069   -0.000432407    0.001340805
     11        1          -0.000345400    0.000140354   -0.000096827
     12        1           0.000142619    0.000237761    0.000204817
     13        1           0.000364233    0.000250734   -0.000139089
     14        1           0.001472536   -0.000055647   -0.000517654
     15        1          -0.000001583   -0.000167069   -0.000149653
     16        1          -0.000440680    0.000303217    0.000118347
     17        1           0.001713374   -0.000243528    0.001134812
     18        1          -0.000402924    0.001133181    0.000768981
     19        1           0.000351656    0.000964771    0.001791454
     20        1          -0.000452486   -0.000404028   -0.002649500
     21        1           0.000832942   -0.000049403    0.000216394
     22        1          -0.000956039   -0.001978689   -0.000172457
     23        1           0.000156845   -0.000056061    0.000710484
     24        1           0.000375919   -0.000265341   -0.000827187
     25        1           0.000894964    0.000392168    0.000988540
     26        1           0.000249646   -0.000438881   -0.001581660
 -------------------------------------------------------------------
 Cartesian Forces:  Max     0.010636289 RMS     0.002522331

 GradGradGradGradGradGradGradGradGradGradGradGradGradGradGradGradGradGrad
 Berny optimization.
 Using GEDIIS/GDIIS optimizer.
 FormGI is forming the generalized inverse of G from B-inverse, IUseBI=4.
 Internal  Forces:  Max     0.008937850 RMS     0.001784981
 Search for a local minimum.
 Step number   2 out of a maximum of  137
 All quantities printed in internal units (Hartrees-Bohrs-Radians)
 Mixed Optimization -- RFO/linear search
 Update second derivatives using D2CorX and points    1    2
 DE= -4.82D-03 DEPred=-7.98D-03 R= 6.03D-01
 TightC=F SS=  1.41D+00  RLast= 4.66D-01 DXNew= 5.0454D-01 1.3969D+00
 Trust test= 6.03D-01 RLast= 4.66D-01 DXMaxT set to 5.05D-01
 ITU=  1  0
 Use linear search instead of GDIIS.
     Eigenvalues ---    0.00245   0.00317   0.00371   0.00382   0.00413
     Eigenvalues ---    0.00546   0.00963   0.01406   0.02219   0.03537
     Eigenvalues ---    0.03728   0.04229   0.04579   0.04835   0.04961
     Eigenvalues ---    0.05238   0.05377   0.05407   0.05466   0.05516
     Eigenvalues ---    0.05567   0.05580   0.05706   0.05717   0.07475
     Eigenvalues ---    0.09617   0.13102   0.15207   0.16000   0.16000
     Eigenvalues ---    0.16000   0.16000   0.16000   0.16000   0.16000
     Eigenvalues ---    0.16000   0.16000   0.16000   0.16034   0.16368
     Eigenvalues ---    0.16712   0.17310   0.18626   0.22707   0.24608
     Eigenvalues ---    0.24913   0.26839   0.28605   0.29193   0.29457
     Eigenvalues ---    0.29728   0.30232   0.31193   0.33850   0.33855
     Eigenvalues ---    0.34046   0.34064   0.34089   0.34140   0.34215
     Eigenvalues ---    0.34237   0.34265   0.34281   0.34298   0.34346
     Eigenvalues ---    0.34363   0.34373   0.34449   0.34717   0.38562
     Eigenvalues ---    0.51096   0.87591
 RFO step:  Lambda=-3.49320736D-03 EMin= 2.45143381D-03
 Quartic linear search produced a step of -0.17386.
 Iteration  1 RMS(Cart)=  0.09092231 RMS(Int)=  0.00310307
 Iteration  2 RMS(Cart)=  0.00634391 RMS(Int)=  0.00159228
 Iteration  3 RMS(Cart)=  0.00001107 RMS(Int)=  0.00159227
 Iteration  4 RMS(Cart)=  0.00000000 RMS(Int)=  0.00159227
 Variable       Old X    -DE/DX   Delta X   Delta X   Delta X     New X
                                 (Linear)    (Quad)   (Total)
    R1        2.90332  -0.00024  -0.00241   0.00630   0.00389   2.90721
    R2        2.06846   0.00015   0.00070  -0.00164  -0.00095   2.06752
    R3        2.07182   0.00016  -0.00044   0.00166   0.00122   2.07304
    R4        2.07106  -0.00030  -0.00063   0.00110   0.00047   2.07152
    R5        2.90562  -0.00230  -0.00119  -0.00303  -0.00422   2.90140
    R6        2.91609  -0.00484   0.00085  -0.01657  -0.01572   2.90037
[...]
 00006467,-0.00230838,0.00060727,0.00015436,-0.00038574,0.00048817,-0.0
 0007975,0.00006900,-0.00001375,0.00014115,-0.00003904,0.00001748,0.000
 01838,0.00034621,0.00002760,-0.00022458,0.00047849,-0.00011836,-0.0000
 3104,-0.00003827,-0.00002362,-0.00140371,-0.00145864,-0.00234973,0.000
 12920,0.00030911,0.00001559,-0.00010256,-0.00006891,0.00018563,-0.0000
 4098,0.00016574,-0.00008766,0.00296280,-0.01188215,0.00105016,0.064002
 26,0.00072246,0.00024649,0.00028986,0.00382088,-0.01693526,0.00070480,
 0.00016785,0.00101125,0.00132898,0.05521544,-0.28980447,0.01830383,0.0
 0039059,-0.00614416,-0.00174170,0.00056883,0.00126821,0.00115264,-0.00
 184721,0.00094189,-0.00012180,0.00051875,0.00053950,-0.00005075,0.0000
 5590,-0.00003840,-0.00001769,-0.00001980,0.00000318,-0.00001069,-0.000
 19411,0.00037053,-0.00007078,-0.00086541,0.00032606,-0.00004816,0.0000
 1164,0.00000746,-0.00003628,-0.00202248,-0.00049857,-0.00261793,-0.000
 02151,0.00060298,-0.00093180,-0.00015134,0.00038283,0.00009942,0.00004
 987,-0.00002587,-0.00009699,0.00253492,-0.01043444,0.00108266,-0.05870
 625,0.31810074,0.00107042,0.00030564,0.00027811,0.00588486,-0.02415378
 ,0.00096131,0.00074633,-0.00127499,0.00199383,-0.00741944,0.01718930,-
 0.04524908,0.00365005,-0.00057517,-0.00156370,0.00062402,-0.00014403,0
 .00071718,-0.00158234,-0.00101021,-0.00046370,0.00029796,0.00009538,-0
 .00007779,-0.00000118,0.00001423,0.00000591,-0.00002929,0.00004212,0.0
 0000235,0.00007470,0.00017492,-0.00003699,-0.00028956,0.00038822,0.000
 28763,-0.00010360,0.00009642,-0.00000961,-0.00232261,-0.00299936,-0.00
 332458,-0.00031712,0.00072538,-0.00017424,-0.00002959,0.00034349,0.000
 23900,0.00009464,0.00002919,-0.00014833,-0.00680590,0.02805289,-0.0029
 2817,0.00646098,-0.01722252,0.04956248,0.00000765,-0.00005083,-0.00006
 586,-0.00003693,-0.00002366,0.00015534,-0.00004268,-0.00003034,0.00001
 468,-0.00041248,-0.00042267,0.00008462,0.00103297,0.00924682,0.0055935
 1,0.00207776,-0.00366932,-0.00162634,-0.03302363,0.03125733,-0.0073144
 4,-0.06159289,0.05428892,0.00014089,0.00568087,-0.01521796,0.00165187,
 0.00321308,-0.00611810,0.00049031,-0.00003897,-0.00000722,-0.00001449,
 0.00001256,0.00000640,0.00000712,0.00000845,0.00000602,0.00000038,-0.0
 0004552,-0.00006609,-0.00005680,0.00001330,0.00000040,0.00001112,0.000
 00349,-0.00000434,-0.00002971,0.00002177,0.00001261,-0.00001213,-0.000
 06316,-0.00004029,-0.00002589,0.00026122,-0.00024707,-0.00001256,0.082
 11866,-0.00000090,0.00001009,0.00001989,0.00001678,-0.00002749,-0.0000
 3391,-0.00000245,-0.00000437,0.00000473,0.00007459,-0.00028669,0.00047
 995,-0.00071084,-0.00152723,-0.00276274,-0.00343755,0.00021331,-0.0009
 8983,0.00651620,0.00273990,0.00051382,0.06363517,-0.29470607,0.0071050
 6,0.00262566,-0.01482992,0.00141738,0.00224954,-0.01144877,-0.00054535
 ,0.00001361,0.00000527,0.00000217,-0.00000553,0.00000219,-0.00000204,0
 .00000333,0.00000220,-0.00000617,-0.00001734,0.00002641,0.00001102,-0.
 00000442,0.00000225,-0.00000476,0.00000957,0.00000587,0.00000885,0.000
 00350,0.00000094,-0.00002151,-0.00008396,-0.00000239,0.00002888,0.0000
 6795,0.00004535,-0.00001768,-0.06798177,0.31709683,-0.00000617,-0.0000
 1964,0.00001175,-0.00006030,-0.00002131,-0.00003901,-0.00002574,0.0000
 0157,-0.00000015,0.00008788,-0.00050335,0.00001752,-0.00148593,0.00339
 358,0.00275797,0.00085760,-0.00152954,-0.00163685,-0.00438404,0.003070
 19,-0.00060009,0.00151462,0.00298848,-0.04927411,-0.00516608,0.0266610
 8,-0.00219050,0.00722315,-0.02964060,-0.00097566,0.00000820,0.00000643
 ,0.00000367,0.00001236,-0.00000020,-0.00000286,0.00000292,0.00000128,-
 0.00000538,-0.00005660,-0.00003510,-0.00000151,0.00002682,-0.00001508,
 0.00000278,0.00001028,-0.00000288,0.00000781,0.00000718,0.00003498,-0.
 00004431,0.00002837,-0.00004115,-0.00001460,0.00020993,-0.00005674,-0.
 00001870,0.00023115,-0.00468313,0.05669782,-0.00000389,0.00000705,0.00
 001097,-0.00000125,-0.00001345,-0.00001647,0.00000613,0.00000084,0.000
 00773,0.00001716,-0.00002854,0.00005370,-0.00008760,-0.00097563,-0.000
 86870,-0.00047875,0.00036152,0.00026626,0.00270243,0.00085793,-0.00053
 307,0.00315265,-0.01635829,0.00187477,-0.07044250,0.07667502,-0.005363
 80,0.00004165,0.00004675,-0.00091856,0.00000848,0.00000373,0.00000396,
 -0.00000263,-0.00000136,-0.00000129,0.00000117,0.00000043,-0.00000386,
 0.00000424,0.00001113,0.00000696,-0.00001340,0.00000356,-0.00000641,0.
 00000787,0.00001037,0.00000647,0.00000523,-0.00001182,-0.00001057,-0.0
 0000275,0.00000992,0.00000746,-0.00003371,0.00000900,0.00000919,-0.000
 87081,-0.00171043,0.00267315,0.07239056,0.00000074,-0.00000744,-0.0000
 1927,-0.00001840,0.00002183,0.00003981,0.00001566,-0.00001764,0.000010
 00,-0.00003852,-0.00005615,0.00001982,0.00040778,-0.00086926,-0.000561
 67,-0.00069816,0.00033513,0.00032036,0.00011282,0.00197795,-0.00090685
 ,0.00527651,-0.01740048,0.00161414,0.07535188,-0.28396336,0.01399265,-
 0.00001603,0.00072666,-0.00101724,-0.00000967,-0.00000172,-0.00000136,
 -0.00000966,0.00000643,0.00000105,0.00000559,0.00000229,-0.00000381,0.
 00002065,0.00002729,0.00000183,-0.00003836,0.00002208,-0.00000687,0.00
 000510,0.00001518,-0.00000828,0.00001613,-0.00003597,0.00001141,-0.000
 02286,0.00001358,-0.00000919,-0.00008185,0.00002194,-0.00000303,-0.001
 82524,0.00009357,0.00272785,-0.08263668,0.31017206,-0.00000072,0.00000
 585,0.00000122,0.00000917,0.00000091,-0.00000356,0.00001277,-0.0000036
 7,0.00000283,-0.00000839,0.00009522,-0.00003576,0.00014844,-0.00043938
 ,-0.00006126,-0.00036687,-0.00023115,0.00042693,-0.00136631,-0.0017580
 3,0.00119563,-0.00917559,0.02757581,-0.00328779,-0.00390947,0.01279892
 ,-0.04880239,-0.00068396,0.00101485,0.00186284,0.00000224,-0.00000074,
 0.00000120,-0.00000244,-0.00000030,0.00000194,0.00000046,0.00000137,-0
 .00000194,0.00000729,0.00000801,-0.00000432,-0.00002429,0.00000994,0.0
 0000047,0.00000504,0.00000820,-0.00000096,0.00001589,-0.00002468,0.000
 00227,0.00001855,0.00001554,-0.00000921,-0.00003858,0.00000981,0.00001
 442,0.00287667,0.00194754,-0.00384738,0.00354781,-0.01838804,0.0509918
 7,-0.00001573,0.00001468,0.00000930,-0.00000884,-0.00005446,-0.0000188
 0,-0.00007294,0.00003142,0.00003671,-0.00002189,-0.00013245,0.00000527
 ,-0.00126370,0.00059293,0.00122967,0.00013835,-0.00056033,-0.00071408,
 0.00150674,0.00051847,-0.00113971,0.00197936,0.00805516,0.01476764,-0.
 05926084,-0.02604938,-0.05063507,-0.00143302,-0.00180727,0.00207987,0.
 00001900,0.00000727,0.00001047,0.00000306,-0.00000466,-0.00000033,0.00
 000913,0.00000172,-0.00001113,-0.00001768,-0.00000425,-0.00000392,-0.0
 0000612,-0.00000308,-0.00000529,0.00005481,0.00001719,0.00001136,-0.00
 000022,-0.00005013,-0.00007925,0.00003774,0.00001703,-0.00000012,0.000
 03767,-0.00000729,0.00003295,0.00024339,0.00015318,-0.00083814,0.00158
 643,0.00484112,0.00979581,0.06125690,-0.00000170,-0.00000956,0.0000286
 0,-0.00003100,-0.00000757,-0.00005576,0.00001456,-0.00000649,-0.000010
 28,0.00003169,-0.00020936,-0.00003791,-0.00075377,0.00163559,0.0009891
 4,0.00040700,-0.00119417,-0.00053393,0.00080550,-0.00030957,-0.0014628
 5,0.00467346,0.00782589,0.01520257,-0.02653713,-0.10903228,-0.11183791
 ,-0.00191565,-0.00143710,0.00212786,0.00001086,0.00000613,0.00000276,0
 .00000838,-0.00000299,-0.00000442,-0.00000760,-0.00000297,0.00000474,-
 0.00002441,-0.00002803,0.00000572,0.00004446,-0.00002157,0.00000195,-0
 .00001176,-0.00001336,0.00001488,-0.00003257,0.00006931,-0.00001788,0.
 00001342,-0.00000755,0.00001517,0.00011530,-0.00001445,-0.00001793,0.0
 0052228,0.00084048,-0.00036034,-0.00754272,-0.01306888,-0.02582752,0.0
 3006744,0.11431987,0.00001190,0.00000222,-0.00001795,0.00004328,0.0000
 2850,0.00003838,0.00001766,-0.00000950,-0.00001481,0.00004146,0.000354
 51,-0.00001600,0.00146924,-0.00191435,-0.00162187,-0.00182702,0.000104
 40,0.00146684,-0.00028005,0.00037825,0.00271234,-0.00708805,-0.0127215
 2,-0.02347410,-0.04775818,-0.10856003,-0.24333132,0.00340901,0.0038161
 0,-0.00255624,-0.00001392,-0.00000797,-0.00000699,-0.00000726,0.000003
 84,0.00000110,-0.00000378,-0.00000282,0.00000778,0.00002950,0.00002201
 ,0.00000393,-0.00000077,0.00000654,0.00000165,-0.00002347,-0.00000951,
 -0.00001232,-0.00001784,-0.00000062,0.00005153,-0.00002924,-0.00001606
 ,-0.00000053,-0.00010400,0.00003403,-0.00002862,-0.00032592,-0.0001619
 3,0.00085010,0.00093580,0.00192427,0.00316300,0.05219693,0.11863210,0.
 26641133,0.00001358,-0.00003608,-0.00006338,-0.00002964,0.00012230,0.0
 0010725,0.00000192,-0.00002971,-0.00001665,-0.00004304,0.00000076,-0.0
 0025271,0.00064574,0.00212253,0.00169241,0.00033373,-0.00090251,-0.000
 32494,-0.00223678,-0.00351030,0.00217518,-0.01426139,0.00237038,-0.005
 01927,-0.30452152,0.00400712,-0.03585665,-0.00001175,0.00034310,-0.000
 96605,-0.00004079,-0.00001235,-0.00001342,-0.00000131,0.00000746,0.000
 00436,0.00000084,0.00000175,0.00001025,0.00001658,-0.00000377,-0.00000
 841,0.00000435,0.00000674,0.00000451,-0.00002718,-0.00001061,-0.000031
 65,-0.00000795,0.00000649,0.00005006,0.00000230,-0.00002413,-0.0000289
 5,-0.00002495,-0.00000546,-0.00001929,0.00047432,-0.00051569,0.0000391
 1,-0.00820245,-0.00050036,-0.00125598,-0.00558540,0.00052890,-0.000435
 55,0.33239281,0.00000411,-0.00002662,-0.00004143,-0.00004937,0.0000800
 6,0.00006701,0.00001000,-0.00002716,-0.00000192,-0.00002844,-0.0000344
 6,-0.00025385,0.00045881,0.00093858,0.00059732,-0.00004517,-0.00060970
 ,0.00011376,-0.00353016,-0.00108794,0.00255106,-0.01403501,-0.00022247
 ,-0.00443199,0.00478513,-0.04653539,0.00170784,0.00021439,0.00024840,-
 0.00046049,-0.00002449,-0.00000583,-0.00000507,-0.00000335,0.00000431,
 0.00000210,0.00000206,0.00000218,0.00000287,0.00001494,0.00000515,-0.0
 0000291,-0.00001393,0.00001067,-0.00000290,-0.00001112,0.00000488,-0.0
 0001775,0.00000703,-0.00000432,0.00002730,0.00000829,0.00000040,-0.000
 02253,-0.00004343,0.00001824,0.00000101,0.00052008,0.00011197,-0.00063
 127,0.03093045,0.00091511,0.00431449,-0.01554588,-0.00008855,-0.001192
 95,-0.00384445,0.04614594,0.00000122,0.00002467,0.00006157,0.00006569,
 -0.00008121,-0.00008164,0.00005100,0.00000988,-0.00002067,0.00010239,0
 .00016090,0.00031582,0.00030796,-0.00224148,-0.00239703,-0.00084912,0.
 00068853,0.00086214,0.00655703,0.00415740,-0.00239520,0.02277730,-0.00
 321723,0.00515044,-0.03831413,0.00165296,-0.05258453,-0.00023738,-0.00
 050382,0.00067947,0.00002577,0.00000497,0.00000061,0.00000175,-0.00000
 419,-0.00000307,-0.00000944,-0.00000294,0.00000222,-0.00000660,0.00000
 030,0.00000924,0.00001518,-0.00001059,0.00000456,-0.00002210,-0.000012
 99,0.00001972,-0.00001140,0.00003800,0.00001076,-0.00002778,0.00000436
 ,0.00003491,0.00001290,0.00000046,-0.00001427,-0.00078432,-0.00005388,
 0.00086402,-0.00145761,-0.00043040,-0.00139659,-0.02765552,0.00202140,
 -0.00272170,0.03960505,-0.00231086,0.05414380,-0.00000194,0.00000772,0
 .00001765,0.00000083,-0.00001024,-0.00003427,0.00000857,0.00000697,0.0
 0000082,0.00003486,0.00005681,0.00000711,-0.00000172,-0.00055626,-0.00
 035109,-0.00034651,0.00020245,0.00011169,0.00164440,-0.00003757,0.0009
 4675,0.00046928,-0.00661809,-0.00054173,-0.00029545,0.00034613,0.00020
 563,-0.06959095,0.07459338,-0.00035156,0.00001055,0.00000451,0.0000055
 1,-0.00000215,-0.00000072,-0.00000388,-0.00000272,-0.00000311,-0.00000
 060,0.00000164,0.00000900,0.00000955,-0.00000057,-0.00000174,-0.000002
 57,0.00000222,0.00000184,0.00000988,-0.00000277,0.00000108,-0.00000540
 ,0.00001403,-0.00001180,0.00000661,-0.00002461,0.00001830,-0.00001828,
 0.00056857,-0.00066042,-0.00117246,0.00022369,0.00005760,0.00026721,-0
 .00004256,-0.00019676,0.00003985,0.00000624,0.00014252,0.00003629,0.07
 062071,0.00000329,-0.00000954,-0.00001171,-0.00001962,0.00001965,0.000
 01889,0.00001127,-0.00000907,0.00000179,-0.00000572,-0.00006726,0.0000
 2980,0.00010271,-0.00048278,-0.00029984,-0.00053165,0.00045112,0.00003
 334,0.00013835,0.00148356,0.00072864,0.00511071,-0.01663926,-0.0003169
 9,-0.00039679,0.00085754,0.00103807,0.07378526,-0.28671183,0.00457997,
 -0.00000789,0.00000050,-0.00000015,-0.00000760,0.00000731,-0.00000318,
 0.00000117,-0.00000256,0.00000077,0.00001052,0.00001988,0.00000886,-0.
 00000926,0.00000919,-0.00000401,-0.00000381,0.00000195,-0.00000312,-0.
 00000268,-0.00000667,0.00001339,-0.00002015,-0.00002011,-0.00000270,-0
 .00003122,0.00001989,-0.00003663,-0.00082377,0.00064954,-0.00273089,0.
 00029288,0.00068719,-0.00069849,-0.00021544,0.00025195,-0.00000568,-0.
 00004932,0.00004826,-0.00002587,-0.08185028,0.31278314,0.00000080,0.00
 000478,-0.00000552,0.00000652,0.00000105,0.00001122,0.00000581,-0.0000
 0408,0.00000088,0.00001496,0.00003991,0.00000748,0.00043540,-0.0008002
 8,-0.00051593,-0.00096048,0.00022220,-0.00019689,0.00174561,0.00179979
 ,0.00189250,0.01014624,-0.03194459,-0.00055744,0.00004658,-0.00097207,
 0.00233155,-0.00156210,0.00648059,-0.04782008,-0.00000224,-0.00000125,
 -0.00000087,-0.00000450,0.00000013,0.00000161,-0.00000035,0.00000106,0
 .00000057,0.00001059,0.00001415,0.00000010,-0.00000941,0.00000542,-0.0
 0000225,-0.00000243,0.00000282,-0.00000249,-0.00000086,-0.00000983,0.0
 0001161,-0.00001359,0.00001047,0.00000635,-0.00003473,0.00001092,0.000
 00491,-0.00153193,-0.00194389,-0.00494524,-0.00008890,0.00074113,-0.00
 036812,-0.00027037,0.00028758,0.00020508,0.00006077,0.00006639,-0.0001
 0247,0.00138563,-0.00240299,0.05126527,0.00000786,-0.00002370,-0.00004
 545,-0.00001324,0.00005779,0.00008300,-0.00001111,-0.00001959,-0.00000
 414,-0.00001196,-0.00011666,-0.00002775,0.00040219,0.00160127,0.000780
 50,0.00024034,-0.00071068,-0.00040053,0.00015079,-0.00180957,-0.002049
 11,-0.00641310,0.00114038,0.00121509,-0.00033405,0.00012996,0.00054450
 ,-0.30042941,0.00856860,-0.05270383,-0.00002775,-0.00000857,-0.0000119
 5,-0.00000044,0.00000439,0.00000536,0.00000583,0.00000534,0.00000394,0
 .00001142,-0.00000280,-0.00000890,-0.00000179,0.00000661,0.00000184,-0
 .00001060,-0.00000344,-0.00002417,0.00000051,-0.00000417,0.00002407,-0
 .00001873,0.00001092,-0.00001772,0.00001310,-0.00000388,0.00001044,0.0
 0032535,-0.00045907,-0.00022944,0.00004738,-0.00005798,0.00000025,0.00
 033751,-0.00007094,-0.00003978,0.00071860,0.00005951,0.00004257,-0.008
 02329,-0.00048844,-0.00118721,0.32707684,0.00000077,-0.00002877,-0.000
 04405,-0.00006701,0.00004839,0.00007030,-0.00000309,-0.00001552,0.0000
 0311,-0.00008798,-0.00030567,-0.00000853,-0.00057799,0.00164031,0.0003
 9333,0.00037797,-0.00037733,-0.00012980,-0.00216514,-0.00143653,-0.004
 34033,-0.01373797,-0.00028737,-0.00042948,0.00009245,0.00015007,0.0004
 3029,0.00964472,-0.04683379,0.00114927,-0.00002396,-0.00000215,-0.0000
 0551,-0.00000249,0.00000482,0.00000051,0.00000391,0.00000139,0.0000023
 4,0.00000819,0.00000136,0.00000052,-0.00000309,0.00000539,-0.00000147,
 -0.00000552,0.00000066,-0.00001273,0.00000144,-0.00000162,0.00001301,-
 0.00005279,-0.00001400,-0.00001347,0.00001858,-0.00000184,-0.00002250,
 0.00015627,0.00011029,0.00071594,0.00014354,0.00006501,0.00000673,-0.0
 0003532,-0.00017027,0.00010128,0.00004469,0.00030462,0.00002848,0.0307
 4954,0.00045577,0.00637608,-0.00911514,0.04673486,0.00000055,-0.000050
 53,-0.00009074,-0.00013962,0.00008004,0.00015264,-0.00000905,-0.000017
 84,0.00000914,-0.00014486,-0.00048857,-0.00020861,-0.00113614,0.002415
 94,0.00092064,0.00063245,-0.00066683,-0.00046000,-0.00392877,-0.004916
 43,-0.00648188,-0.02704689,0.00419384,-0.00249731,-0.00006659,0.000487
 50,0.00089960,-0.04996619,0.00104165,-0.05829707,-0.00004523,-0.000006
 70,-0.00000770,-0.00000222,0.00000758,0.00000268,0.00000599,0.00000074
 ,0.00000448,0.00001621,-0.00000170,-0.00000551,-0.00000428,0.00000875,
 -0.00000093,-0.00000841,-0.00000090,-0.00002125,0.00000263,-0.00000607
 ,0.00002239,-0.00009973,-0.00002605,-0.00001509,0.00003635,0.00000123,
 -0.00001709,0.00054480,-0.00014019,0.00102661,0.00001533,-0.00000308,-
 0.00009026,0.00022864,-0.00018354,0.00037181,0.00050979,0.00003729,-0.
 00077754,-0.00018102,0.00029358,-0.00111475,0.05760450,-0.00009141,0.0
 6102968,-0.00000315,0.00001116,0.00002008,0.00000828,-0.00003304,-0.00
 002806,0.00000471,0.00001244,0.00000256,0.00002502,0.00005354,0.000034
 27,0.00005358,-0.00058886,-0.00038909,-0.00011055,0.00031697,0.0001000
 9,0.00144910,0.00075181,0.00040035,0.00113755,0.00338187,-0.00591715,-
 0.00004179,-0.00027640,-0.00103349,-0.11133817,-0.06328646,0.09657373,
 0.00001328,0.00000406,0.00000648,-0.00000030,-0.00000134,-0.00000272,-
 0.00000159,-0.00000304,-0.00000326,-0.00000408,0.00000395,0.00000470,-
 0.00000039,-0.00000199,-0.00000152,0.00000514,0.00000163,0.00001204,0.
 00000038,-0.00000066,-0.00001072,-0.00000428,-0.00001192,-0.00000037,-
 0.00000441,0.00000737,-0.00000579,0.00006366,0.00022131,0.00049218,-0.
 00005535,-0.00015781,0.00012498,0.00051883,-0.00011722,-0.00023979,0.0
 0038315,0.00001747,-0.00022671,0.00472965,0.00500745,-0.00818982,-0.01
 404223,-0.01536457,0.02318176,0.11721397,-0.00000086,0.00000169,0.0000
 0499,0.00001317,0.00000210,-0.00000783,0.00000002,-0.00000468,-0.00000
 185,0.00000088,0.00001139,-0.00000692,0.00010466,0.00004322,0.00002240
 ,0.00004596,-0.00011659,0.00003141,0.00090608,0.00033934,0.00082106,0.
 00844555,0.00730469,-0.01220758,-0.00110613,-0.00090900,-0.00227708,-0
 .06400028,-0.11042381,0.09399303,0.00000231,-0.00000093,-0.00000166,0.
 00000218,-0.00000280,0.00000295,-0.00000010,0.00000397,-0.00000101,-0.
 00000226,-0.00000597,-0.00000502,-0.00000039,-0.00000087,0.00000121,0.
 00000009,0.00000094,-0.00000146,0.00000249,0.00000208,-0.00000311,0.00
 001275,0.00002911,0.00000007,0.00000144,-0.00000906,0.00001964,0.00051
 153,0.00087649,0.00066987,-0.00008521,0.00031762,-0.00044119,0.0001523
 4,0.00067551,-0.00080510,-0.00011748,-0.00019632,0.00010315,-0.0162508
 7,-0.01379737,0.02201450,0.00130984,-0.00004806,-0.00196828,0.07005228
 ,0.11590732,-0.00000006,0.00000275,0.00000667,-0.00003087,-0.00001158,
 -0.00001358,0.00003182,0.00001284,0.00000291,0.00001200,0.00004343,-0.
 00010426,-0.00004565,-0.00073070,-0.00053590,-0.00034977,0.00029098,0.
 00030396,0.00085791,0.00038795,0.00324442,0.01602188,0.01602276,-0.022
 71427,-0.00256665,-0.00435073,-0.00434191,0.09414593,0.09202412,-0.185
 37466,0.00000654,0.00000356,0.00000627,0.00000029,-0.00000210,-0.00000
 304,-0.00001162,-0.00000712,0.00000768,0.00000154,-0.00000069,0.000002
 35,0.00000602,-0.00000610,0.00000153,-0.00000560,-0.00000492,0.0000143
 0,-0.00000924,0.00001205,-0.00000070,-0.00005442,-0.00002452,0.0000189
 5,-0.00000080,0.00000516,-0.00001227,-0.00000209,-0.00017227,0.0013563
 1,-0.00015032,-0.00004523,0.00024490,0.00096712,0.00101582,-0.00148242
 ,0.00003417,-0.00011250,0.00033541,-0.00038732,-0.00020486,-0.00010707
 ,-0.00356607,-0.00419191,0.00564606,-0.10490473,-0.09995620,0.20349833
 \\-0.00000784,-0.00000089,0.00000244,0.00000800,0.00000271,-0.00000256
 ,-0.00000032,-0.00000135,-0.00000024,0.00000100,-0.00000430,0.00000088
 ,-0.00000659,-0.00000668,-0.00000441,-0.00000400,-0.00000470,-0.000005
 24,0.00001230,0.00001194,0.00000514,-0.00000805,-0.00000615,0.00000015
 ,-0.00000059,0.00000008,0.00000049,0.00000356,0.00000239,0.00000598,0.
 00000233,0.00000043,0.00000040,0.00000148,0.00000012,-0.00000017,0.000
 00176,0.00000003,-0.00000007,-0.00000006,-0.00000156,0.00000099,0.0000
 0025,0.00000131,-0.00000155,-0.00000092,0.00000101,0.00000055,-0.00000
 079,0.00000098,0.00000054,-0.00000012,-0.00000029,-0.00000002,0.000000
 74,0.00000082,0.00000041,0.00000080,0.00000222,-0.00000097,0.00000063,
 0.00000120,-0.00000077,-0.00000007,0.00000075,-0.00000114,-0.00000126,
 0.00000003,0.00000025,-0.00000098,0.00000021,-0.00000031,-0.00000157,0
 .00000036,-0.00000080,0.00000032,-0.00000068,0.00000002\\\@


0EVERYBODY IS IGNORANT, ONLY ON DIFFERENT SUBJECTS.
0          WILL ROGERS
 Job cpu time:       0 days  2 hours 41 minutes 51.1 seconds.
 Elapsed time:       0 days  0 hours 40 minutes 28.3 seconds.
 File lengths (MBytes):  RWF=    249 Int=      0 D2E=      0 Chk=     12 Scr=      1
 Normal termination of Gaussian 16 at Mon May 15 20:31:16 2023.
### All Done ###
