### Starting Gaussian ###
 Entering Gaussian System, Link 0=g16
 Initial command:
 /cluster/software/gaussian/gaussian-16-A.03/avx2/g16/l1.exe "/local/scratch/ks29c/Gau-7320.inp" -scrdir="/local/scratch/ks29c/"
 Entering Link 1 = /cluster/software/gaussian/gaussian-16-A.03/avx2/g16/l1.exe PID=      7334.
  
 Copyright (c) 1988,1990,1992,1993,1995,1998,2003,2009,2016,
            Gaussian, Inc.  All Rights Reserved.
  
 This is part of the Gaussian(R) 16 program.  It is based on
 the Gaussian(R) 09 system (copyright 2009, Gaussian, Inc.),
 the Gaussian(R) 03 system (copyright 2003, Gaussian, Inc.),
 the Gaussian(R) 98 system (copyright 1998, Gaussian, Inc.),
 the Gaussian(R) 94 system (copyright 1995, Gaussian, Inc.),
 the Gaussian 92(TM) system (copyright 1992, Gaussian, Inc.),
 the Gaussian 90(TM) system (copyright 1990, Gaussian, Inc.),
 the Gaussian 88(TM) system (copyright 1988, Gaussian, Inc.),
 the Gaussian 86(TM) system (copyright 1986, Carnegie Mellon
 University), and the Gaussian 82(TM) system (copyright 1983,
 Carnegie Mellon University). Gaussian is a federally registered
 trademark of Gaussian, Inc.
  
 This software contains proprietary and confidential information,
 including trade secrets, belonging to Gaussian, Inc.
  
 This software is provided under written license and may be
 used, copied, transmitted, or stored only in accord with that
 written license.
  
 The following legend is applicable only to US Government
 contracts under FAR:
  
                    RESTRICTED RIGHTS LEGEND
  
 Use, reproduction and disclosure by the US Government is
 subject to restrictions as set forth in subparagraphs (a)
 and (c) of the Commercial Computer Software - Restricted
 Rights clause in FAR 52.227-19.
  
 Gaussian, Inc.
 340 Quinnipiac St., Bldg. 40, Wallingford CT 06492
  
  
 ---------------------------------------------------------------
 Warning -- This program may not be used in any manner that
 competes with the business of Gaussian, Inc. or will provide
 assistance to any competitor of Gaussian, Inc.  The licensee
 of this program is prohibited from giving any competitor of
 Gaussian, Inc. access to this program.  By using this program,
 the user acknowledges that Gaussian, Inc. is engaged in the
 business of creating and licensing software in the field of
 computational chemistry and represents and warrants to the
 licensee that it is not a competitor of Gaussian, Inc. and that
 it will not use this program in any manner prohibited above.
 ---------------------------------------------------------------
  

 Cite this work as:
 Gaussian 16, Revision A.03,
 M. J. Frisch, G. W. Trucks, H. B. Schlegel, G. E. Scuseria, 
 M. A. Robb, J. R. Cheeseman, G. Scalmani, V. Barone, 
 G. A. Petersson, H. Nakatsuji, X. Li, M. Caricato, A. V. Marenich, 
 J. Bloino, B. G. Janesko, R. Gomperts, B. Mennucci, H. P. Hratchian, 
 J. V. Ortiz, A. F. Izmaylov, J. L. Sonnenberg, D. Williams-Young, 
 F. Ding, F. Lipparini, F. Egidi, J. Goings, B. Peng, A. Petrone, 
 T. Henderson, D. Ranasinghe, V. G. Zakrzewski, J. Gao, N. Rega, 
 G. Zheng, W. Liang, M. Hada, M. Ehara, K. Toyota, R. Fukuda, 
 J. Hasegawa, M. Ishida, T. Nakajima, Y. Honda, O. Kitao, H. Nakai, 
 T. Vreven, K. Throssell, J. A. Montgomery, Jr., J. E. Peralta, 
 F. Ogliaro, M. J. Bearpark, J. J. Heyd, E. N. Brothers, K. N. Kudin, 
 V. N. Staroverov, T. A. Keith, R. Kobayashi, J. Normand, 
 K. Raghavachari, A. P. Rendell, J. C. Burant, S. S. Iyengar, 
 J. Tomasi, M. Cossi, J. M. Millam, M. Klene, C. Adamo, R. Cammi, 
 J. W. Ochterski, R. L. Martin, K. Morokuma, O. Farkas, 
 J. B. Foresman, and D. J. Fox, Gaussian, Inc., Wallingford CT, 2016.
 
 ******************************************
 Gaussian 16:  ES64L-G16RevA.03 25-Dec-2016
                15-May-2023 
 ******************************************
 %chk=CCqdOrOCCOCCOCCCqCrC.chk
 %NProcShared=20
 Will use up to   20 processors via shared memory.
 -----------------------------
 # opt freq b3lyp/6-31g(2df,p)
 -----------------------------
 1/18=20,19=15,26=3,38=1/1,3;
 2/9=110,12=2,17=6,18=5,40=1/2;
 3/5=1,6=6,7=104,11=2,25=1,30=1,71=1,74=-5/1,2,3;
 4//1;
 5/5=2,38=5/2;
 6/7=2,8=2,9=2,10=2,28=1/1;
 7//1,2,3,16;
 1/18=20,19=15,26=3/3(2);
 2/9=110/2;
 99//99;
 2/9=110/2;
 3/5=1,6=6,7=104,11=2,25=1,30=1,71=1,74=-5/1,2,3;
 4/5=5,16=3,69=1/1;
 5/5=2,38=5/2;
 7//1,2,3,16;
 1/18=20,19=15,26=3/3(-5);
 2/9=110/2;
 6/7=2,8=2,9=2,10=2,19=2,28=1/1;
 99/9=1/99;
 -------------------
 Title Card Required
 -------------------
 Symbolic Z-matrix:
 Charge =  0 Multiplicity = 1
 C                     1.00004  -0.05154   0.01923 
 C                     2.50019  -0.05027  -0.0568 
 O                     3.12517  -0.03281  -1.11101 
 O                     3.06151  -0.07078   1.18448 
 C                     4.50228  -0.0707    1.18133 
 C                     5.01966  -0.09445   2.61759 
 O                     6.44801  -0.09466   2.63146 
 C                     6.94033  -0.12046   3.97246 
 C                     8.45718  -0.12786   3.96238 
 O                     8.93475  -0.17663   5.30853 
 C                     10.3563  -0.15544   5.30558 
 C                     10.88295  -0.16243   6.73266 
 C                     12.41845  -0.142     6.75847 
 C                     12.97421   1.1043    6.06513 
 C                     12.92156  -0.193     8.19825 
 H                     0.59286  -0.03471  -0.99769 
 H                     0.64043   0.83907   0.54067 
 H                     0.64043  -0.95892   0.51091 
 H                     4.87704   0.82639   0.67327 
 H                     4.87704  -0.95054   0.64391 
 H                     4.6496   -0.98937   3.13098 
 H                     4.64971   0.78287   3.16056 
 H                     6.57621  -1.01434   4.49185 
 H                     6.58304   0.7586    4.52191 
 H                     8.83169   0.77308   3.45959 
 H                     8.82819  -0.99806   3.40799 
 H                     10.67419   0.75152   4.78437 
 H                     10.73446  -1.0313    4.76609 
 H                     10.50437  -1.05146   7.25434 
 H                     10.47636   0.69733   7.28075 
 H                     12.79098  -1.03036   6.23132 
 H                     12.60383   2.01369   6.55044 
 H                     12.69003   1.14553   5.0097 
 H                     14.06707   1.11441   6.09334 
 H                     12.57516   0.6782    8.76436 
 H                     14.01616  -0.20121   8.22342 
 H                     12.56492  -1.09438   8.70667 
 

 GradGradGradGradGradGradGradGradGradGradGradGradGradGradGradGradGradGrad
 Berny optimization.
 Initialization pass.
                           ----------------------------
                           !    Initial Parameters    !
                           ! (Angstroms and Degrees)  !
 --------------------------                            --------------------------
 ! Name  Definition              Value          Derivative Info.                !
 --------------------------------------------------------------------------------
 ! R1    R(1,2)                  1.5021         estimate D2E/DX2                !
 ! R2    R(1,16)                 1.0955         estimate D2E/DX2                !
 ! R3    R(1,17)                 1.0929         estimate D2E/DX2                !
 ! R4    R(1,18)                 1.0929         estimate D2E/DX2                !
 ! R5    R(2,3)                  1.2257         estimate D2E/DX2                !
 ! R6    R(2,4)                  1.3625         estimate D2E/DX2                !
 ! R7    R(4,5)                  1.4408         estimate D2E/DX2                !
 ! R8    R(5,6)                  1.5268         estimate D2E/DX2                !
 ! R9    R(5,19)                 1.097          estimate D2E/DX2                !
 ! R10   R(5,20)                 1.097          estimate D2E/DX2                !
 ! R11   R(6,7)                  1.4284         estimate D2E/DX2                !
 ! R12   R(6,21)                 1.0961         estimate D2E/DX2                !
 ! R13   R(6,22)                 1.0961         estimate D2E/DX2                !
 ! R14   R(7,8)                  1.4287         estimate D2E/DX2                !
 ! R15   R(8,9)                  1.5169         estimate D2E/DX2                !
 ! R16   R(8,23)                 1.0961         estimate D2E/DX2                !
 ! R17   R(8,24)                 1.0965         estimate D2E/DX2                !
 ! R18   R(9,10)                 1.4292         estimate D2E/DX2                !
 ! R19   R(9,25)                 1.0976         estimate D2E/DX2                !
 ! R20   R(9,26)                 1.0965         estimate D2E/DX2                !
 ! R21   R(10,11)                1.4217         estimate D2E/DX2                !
 ! R22   R(11,12)                1.5212         estimate D2E/DX2                !
 ! R23   R(11,27)                1.0933         estimate D2E/DX2                !
 ! R24   R(11,28)                1.096          estimate D2E/DX2                !
 ! R25   R(12,13)                1.5359         estimate D2E/DX2                !
 ! R26   R(12,29)                1.0981         estimate D2E/DX2                !
 ! R27   R(12,30)                1.0977         estimate D2E/DX2                !
 ! R28   R(13,14)                1.5306         estimate D2E/DX2                !
 ! R29   R(13,15)                1.526          estimate D2E/DX2                !
 ! R30   R(13,31)                1.0981         estimate D2E/DX2                !
 ! R31   R(14,32)                1.0953         estimate D2E/DX2                !
 ! R32   R(14,33)                1.0938         estimate D2E/DX2                !
 ! R33   R(14,34)                1.0933         estimate D2E/DX2                !
 ! R34   R(15,35)                1.0952         estimate D2E/DX2                !
 ! R35   R(15,36)                1.0949         estimate D2E/DX2                !
 ! R36   R(15,37)                1.0946         estimate D2E/DX2                !
 ! A1    A(2,1,16)             108.9169         estimate D2E/DX2                !
 ! A2    A(2,1,17)             110.6149         estimate D2E/DX2                !
 ! A3    A(2,1,18)             110.6156         estimate D2E/DX2                !
 ! A4    A(16,1,17)            107.9427         estimate D2E/DX2                !
 ! A5    A(16,1,18)            107.9425         estimate D2E/DX2                !
 ! A6    A(17,1,18)            110.7117         estimate D2E/DX2                !
 ! A7    A(1,2,3)              123.5596         estimate D2E/DX2                !
 ! A8    A(1,2,4)              111.4283         estimate D2E/DX2                !
 ! A9    A(3,2,4)              125.0122         estimate D2E/DX2                !
 ! A10   A(2,4,5)              114.2047         estimate D2E/DX2                !
 ! A11   A(4,5,6)              109.6826         estimate D2E/DX2                !
 ! A12   A(4,5,19)             110.0408         estimate D2E/DX2                !
 ! A13   A(4,5,20)             110.0385         estimate D2E/DX2                !
 ! A14   A(6,5,19)             109.4291         estimate D2E/DX2                !
 ! A15   A(6,5,20)             109.4275         estimate D2E/DX2                !
 ! A16   A(19,5,20)            108.1978         estimate D2E/DX2                !
 ! A17   A(5,6,7)              110.3643         estimate D2E/DX2                !
 ! A18   A(5,6,21)             109.8102         estimate D2E/DX2                !
 ! A19   A(5,6,22)             109.8268         estimate D2E/DX2                !
 ! A20   A(7,6,21)             109.4471         estimate D2E/DX2                !
 ! A21   A(7,6,22)             109.4398         estimate D2E/DX2                !
 ! A22   A(21,6,22)            107.911          estimate D2E/DX2                !
 ! A23   A(6,7,8)              110.7126         estimate D2E/DX2                !
 ! A24   A(7,8,9)              109.7807         estimate D2E/DX2                !
 ! A25   A(7,8,23)             110.1828         estimate D2E/DX2                !
 ! A26   A(7,8,24)             110.0941         estimate D2E/DX2                !
 ! A27   A(9,8,23)             109.3516         estimate D2E/DX2                !
 ! A28   A(9,8,24)             109.4557         estimate D2E/DX2                !
 ! A29   A(23,8,24)            107.9455         estimate D2E/DX2                !
 ! A30   A(8,9,10)             109.1505         estimate D2E/DX2                !
 ! A31   A(8,9,25)             109.8911         estimate D2E/DX2                !
 ! A32   A(8,9,26)             110.2177         estimate D2E/DX2                !
 ! A33   A(10,9,25)            110.2097         estimate D2E/DX2                !
 ! A34   A(10,9,26)            109.6387         estimate D2E/DX2                !
 ! A35   A(25,9,26)            107.7203         estimate D2E/DX2                !
 ! A36   A(9,10,11)            109.3692         estimate D2E/DX2                !
 ! A37   A(10,11,12)           110.1305         estimate D2E/DX2                !
 ! A38   A(10,11,27)           107.7031         estimate D2E/DX2                !
 ! A39   A(10,11,28)           109.5186         estimate D2E/DX2                !
 ! A40   A(12,11,27)           110.5112         estimate D2E/DX2                !
 ! A41   A(12,11,28)           109.7955         estimate D2E/DX2                !
 ! A42   A(27,11,28)           109.1448         estimate D2E/DX2                !
 ! A43   A(11,12,13)           111.2131         estimate D2E/DX2                !
 ! A44   A(11,12,29)           109.2716         estimate D2E/DX2                !
 ! A45   A(11,12,30)           109.6693         estimate D2E/DX2                !
 ! A46   A(13,12,29)           110.3322         estimate D2E/DX2                !
 ! A47   A(13,12,30)           110.5799         estimate D2E/DX2                !
 ! A48   A(29,12,30)           105.6172         estimate D2E/DX2                !
 ! A49   A(12,13,14)           111.483          estimate D2E/DX2                !
 ! A50   A(12,13,15)           110.1834         estimate D2E/DX2                !
 ! A51   A(12,13,31)           108.6835         estimate D2E/DX2                !
 ! A52   A(14,13,15)           109.5655         estimate D2E/DX2                !
 ! A53   A(14,13,31)           108.5468         estimate D2E/DX2                !
 ! A54   A(15,13,31)           108.3031         estimate D2E/DX2                !
 ! A55   A(13,14,32)           110.643          estimate D2E/DX2                !
 ! A56   A(13,14,33)           111.9281         estimate D2E/DX2                !
 ! A57   A(13,14,34)           111.0262         estimate D2E/DX2                !
 ! A58   A(32,14,33)           107.9621         estimate D2E/DX2                !
 ! A59   A(32,14,34)           108.5973         estimate D2E/DX2                !
 ! A60   A(33,14,34)           106.5148         estimate D2E/DX2                !
 ! A61   A(13,15,35)           110.9057         estimate D2E/DX2                !
 ! A62   A(13,15,36)           110.5812         estimate D2E/DX2                !
 ! A63   A(13,15,37)           110.998          estimate D2E/DX2                !
 ! A64   A(35,15,36)           108.076          estimate D2E/DX2                !
 ! A65   A(35,15,37)           108.1743         estimate D2E/DX2                !
 ! A66   A(36,15,37)           107.991          estimate D2E/DX2                !
 ! D1    D(16,1,2,3)             0.0003         estimate D2E/DX2                !
 ! D2    D(16,1,2,4)           179.9985         estimate D2E/DX2                !
 ! D3    D(17,1,2,3)          -118.4796         estimate D2E/DX2                !
 ! D4    D(17,1,2,4)            61.5186         estimate D2E/DX2                !
 ! D5    D(18,1,2,3)           118.4804         estimate D2E/DX2                !
 ! D6    D(18,1,2,4)           -61.5214         estimate D2E/DX2                !
 ! D7    D(1,2,4,5)           -179.9993         estimate D2E/DX2                !
 ! D8    D(3,2,4,5)             -0.0011         estimate D2E/DX2                !
 ! D9    D(2,4,5,6)           -179.9994         estimate D2E/DX2                !
 ! D10   D(2,4,5,19)            59.5673         estimate D2E/DX2                !
 ! D11   D(2,4,5,20)           -59.5694         estimate D2E/DX2                !
 ! D12   D(4,5,6,7)            179.9996         estimate D2E/DX2                !
 ! D13   D(4,5,6,21)            59.257          estimate D2E/DX2                !
 ! D14   D(4,5,6,22)           -59.2562         estimate D2E/DX2                !
 ! D15   D(19,5,6,7)           -59.1962         estimate D2E/DX2                !
 ! D16   D(19,5,6,21)         -179.9388         estimate D2E/DX2                !
 ! D17   D(19,5,6,22)           61.548          estimate D2E/DX2                !
 ! D18   D(20,5,6,7)            59.1993         estimate D2E/DX2                !
 ! D19   D(20,5,6,21)          -61.5433         estimate D2E/DX2                !
 ! D20   D(20,5,6,22)          179.9435         estimate D2E/DX2                !
 ! D21   D(5,6,7,8)           -179.8446         estimate D2E/DX2                !
 ! D22   D(21,6,7,8)           -58.8852         estimate D2E/DX2                !
 ! D23   D(22,6,7,8)            59.1801         estimate D2E/DX2                !
 ! D24   D(6,7,8,9)            179.6928         estimate D2E/DX2                !
 ! D25   D(6,7,8,23)            59.2034         estimate D2E/DX2                !
 ! D26   D(6,7,8,24)           -59.745          estimate D2E/DX2                !
 ! D27   D(7,8,9,10)          -179.026          estimate D2E/DX2                !
 ! D28   D(7,8,9,25)            60.007          estimate D2E/DX2                !
 ! D29   D(7,8,9,26)           -58.5599         estimate D2E/DX2                !
 ! D30   D(23,8,9,10)          -58.0342         estimate D2E/DX2                !
 ! D31   D(23,8,9,25)         -179.0012         estimate D2E/DX2                !
 ! D32   D(23,8,9,26)           62.4319         estimate D2E/DX2                !
 ! D33   D(24,8,9,10)           60.026          estimate D2E/DX2                !
 ! D34   D(24,8,9,25)          -60.941          estimate D2E/DX2                !
 ! D35   D(24,8,9,26)         -179.5078         estimate D2E/DX2                !
 ! D36   D(8,9,10,11)         -178.7896         estimate D2E/DX2                !
 ! D37   D(25,9,10,11)         -58.0172         estimate D2E/DX2                !
 ! D38   D(26,9,10,11)          60.3899         estimate D2E/DX2                !
 ! D39   D(9,10,11,12)         178.2199         estimate D2E/DX2                !
 ! D40   D(9,10,11,27)          57.6398         estimate D2E/DX2                !
 ! D41   D(9,10,11,28)         -60.9412         estimate D2E/DX2                !
 ! D42   D(10,11,12,13)        179.9137         estimate D2E/DX2                !
 ! D43   D(10,11,12,29)         57.8711         estimate D2E/DX2                !
 ! D44   D(10,11,12,30)        -57.4594         estimate D2E/DX2                !
 ! D45   D(27,11,12,13)        -61.21           estimate D2E/DX2                !
 ! D46   D(27,11,12,29)        176.7474         estimate D2E/DX2                !
 ! D47   D(27,11,12,30)         61.4169         estimate D2E/DX2                !
 ! D48   D(28,11,12,13)         59.241          estimate D2E/DX2                !
 ! D49   D(28,11,12,29)        -62.8017         estimate D2E/DX2                !
 ! D50   D(28,11,12,30)       -178.1321         estimate D2E/DX2                !
 ! D51   D(11,12,13,14)         59.8651         estimate D2E/DX2                !
 ! D52   D(11,12,13,15)       -178.2572         estimate D2E/DX2                !
 ! D53   D(11,12,13,31)        -59.7342         estimate D2E/DX2                !
 ! D54   D(29,12,13,14)       -178.7098         estimate D2E/DX2                !
 ! D55   D(29,12,13,15)        -56.832          estimate D2E/DX2                !
 ! D56   D(29,12,13,31)         61.6909         estimate D2E/DX2                !
 ! D57   D(30,12,13,14)        -62.2353         estimate D2E/DX2                !
 ! D58   D(30,12,13,15)         59.6425         estimate D2E/DX2                !
 ! D59   D(30,12,13,31)        178.1654         estimate D2E/DX2                !
 ! D60   D(12,13,14,32)         58.984          estimate D2E/DX2                !
 ! D61   D(12,13,14,33)        -61.474          estimate D2E/DX2                !
 ! D62   D(12,13,14,34)        179.6422         estimate D2E/DX2                !
 ! D63   D(15,13,14,32)        -63.2504         estimate D2E/DX2                !
 ! D64   D(15,13,14,33)        176.2915         estimate D2E/DX2                !
 ! D65   D(15,13,14,34)         57.4078         estimate D2E/DX2                !
 ! D66   D(31,13,14,32)        178.6642         estimate D2E/DX2                !
 ! D67   D(31,13,14,33)         58.2062         estimate D2E/DX2                !
 ! D68   D(31,13,14,34)        -60.6775         estimate D2E/DX2                !
 ! D69   D(12,13,15,35)        -61.3742         estimate D2E/DX2                !
 ! D70   D(12,13,15,36)        178.7433         estimate D2E/DX2                !
 ! D71   D(12,13,15,37)         58.9073         estimate D2E/DX2                !
 ! D72   D(14,13,15,35)         61.6329         estimate D2E/DX2                !
 ! D73   D(14,13,15,36)        -58.2495         estimate D2E/DX2                !
 ! D74   D(14,13,15,37)       -178.0855         estimate D2E/DX2                !
 ! D75   D(31,13,15,35)        179.8699         estimate D2E/DX2                !
 ! D76   D(31,13,15,36)         59.9875         estimate D2E/DX2                !
 ! D77   D(31,13,15,37)        -59.8485         estimate D2E/DX2                !
 --------------------------------------------------------------------------------
 Trust Radius=3.00D-01 FncErr=1.00D-07 GrdErr=1.00D-06 EigMax=2.50D+02 EigMin=1.00D-04
 Number of steps in this run=    189 maximum allowed number of steps=    222.
 GradGradGradGradGradGradGradGradGradGradGradGradGradGradGradGradGradGrad

                          Input orientation:                          
 ---------------------------------------------------------------------
 Center     Atomic      Atomic             Coordinates (Angstroms)
 Number     Number       Type             X           Y           Z
 ---------------------------------------------------------------------
      1          6           0        1.000040   -0.051540    0.019230
      2          6           0        2.500190   -0.050270   -0.056800
      3          8           0        3.125170   -0.032810   -1.111010
      4          8           0        3.061510   -0.070780    1.184480
      5          6           0        4.502280   -0.070700    1.181330
      6          6           0        5.019660   -0.094450    2.617590
      7          8           0        6.448010   -0.094660    2.631460
      8          6           0        6.940330   -0.120460    3.972460
      9          6           0        8.457180   -0.127860    3.962380
     10          8           0        8.934750   -0.176630    5.308530
     11          6           0       10.356300   -0.155440    5.305580
     12          6           0       10.882950   -0.162430    6.732660
     13          6           0       12.418450   -0.142000    6.758470
     14          6           0       12.974210    1.104300    6.065130
     15          6           0       12.921560   -0.193000    8.198250
     16          1           0        0.592860   -0.034710   -0.997690
     17          1           0        0.640430    0.839070    0.540670
     18          1           0        0.640430   -0.958920    0.510910
     19          1           0        4.877040    0.826390    0.673270
     20          1           0        4.877040   -0.950540    0.643910
     21          1           0        4.649600   -0.989370    3.130980
     22          1           0        4.649710    0.782870    3.160560
     23          1           0        6.576210   -1.014340    4.491850
     24          1           0        6.583040    0.758600    4.521910
     25          1           0        8.831690    0.773080    3.459590
     26          1           0        8.828190   -0.998060    3.407990
     27          1           0       10.674190    0.751520    4.784370
     28          1           0       10.734460   -1.031300    4.766090
     29          1           0       10.504370   -1.051460    7.254340
     30          1           0       10.476360    0.697330    7.280750
     31          1           0       12.790980   -1.030360    6.231320
     32          1           0       12.603830    2.013690    6.550440
     33          1           0       12.690030    1.145530    5.009700
     34          1           0       14.067070    1.114410    6.093340
     35          1           0       12.575160    0.678200    8.764360
     36          1           0       14.016160   -0.201210    8.223420
     37          1           0       12.564920   -1.094380    8.706670
 ---------------------------------------------------------------------
                    Distance matrix (angstroms):
                    1          2          3          4          5
     1  C    0.000000
     2  C    1.502076   0.000000
     3  O    2.407067   1.225669   0.000000
     4  O    2.368087   1.362453   2.296686   0.000000
     5  C    3.690058   2.354092   2.674451   1.440773   0.000000
     6  C    4.786508   3.674513   4.182744   2.426668   1.526790
     7  O    6.042018   4.776400   5.005115   3.682758   2.426791
     8  C    7.135813   5.996224   6.356477   4.777085   3.706342
     9  C    8.435828   7.186484   7.360615   6.069040   4.835157
    10  O    9.536874   8.378920   8.659238   7.177321   6.057375
    11  C   10.746902   9.512342   9.668346   8.378818   7.161436
    12  C   11.947985  10.787957  11.032820   9.589871   8.458051
    13  C   13.259171  12.034459  12.178082  10.891591   9.683766
    14  C   13.463641  12.186720  12.239019  11.111399   9.849148
    15  C   14.458182  13.295532  13.515075  12.100764  10.960675
    16  H    1.095539   2.126834   2.534845   3.295057   4.475823
    17  H    1.092888   2.146300   3.108401   2.665323   4.018957
    18  H    1.092889   2.146310   3.108414   2.665355   4.018990
    19  H    4.028605   2.636466   2.644036   2.088636   1.096969
    20  H    4.028592   2.636455   2.644054   2.088622   1.096988
    21  H    4.886901   3.957754   4.607968   2.674827   2.160276
    22  H    4.887155   3.958025   4.608239   2.675068   2.160479
    23  H    7.212835   6.183331   6.653204   4.917532   4.018854
    24  H    7.218057   6.187772   6.656800   4.922142   4.022036
    25  H    8.593650   7.289087   7.355557   6.259649   4.964496
    26  H    8.582513   7.276446   7.340130   6.249675   4.952929
    27  H   10.813910   9.533838   9.610327   8.460986   7.193776
    28  H   10.874352   9.593013   9.666363   8.522012   7.253504
    29  H   11.986615  10.886783  11.201309   9.654072   8.594674
    30  H   11.962070  10.863601  11.180104   9.629875   8.572189
    31  H   13.363174  12.099644  12.179195  11.002453   9.753250
    32  H   13.474785  12.247412  12.358437  11.144255   9.940178
    33  H   12.766896  11.442561  11.416572  10.431688   9.120026
    34  H   14.456885  13.151936  13.150815  12.108837  10.817464
    35  H   14.525606  13.410763  13.686883  12.187087  11.101107
    36  H   15.386699  14.184583  14.344811  13.021830  11.837313
    37  H   14.501916  13.386088  13.660990  12.163301  11.076318
                    6          7          8          9         10
     6  C    0.000000
     7  O    1.428417   0.000000
     8  C    2.350600   1.428750   0.000000
     9  C    3.691357   2.410231   1.516902   0.000000
    10  O    4.751404   3.654764   2.401239   1.429186   0.000000
    11  C    5.975679   4.735963   3.667054   2.326285   1.421711
    12  C    7.163560   6.040954   4.812974   3.682391   2.413262
    13  C    8.478870   7.258141   6.145902   4.848709   3.773552
    14  C    8.751994   7.471203   6.502847   5.132576   4.304702
    15  C    9.674373   8.538482   7.323775   6.154472   4.923962
    16  H    5.715801   6.888912   8.062265   9.298306  10.458283
    17  H    4.935860   6.242695   7.237860   8.587470   9.620805
    18  H    4.935896   6.242729   7.236994   8.585155   9.613786
    19  H    2.156077   2.674096   4.004790   4.954416   6.241530
    20  H    2.156071   2.674104   4.003179   4.950399   6.230781
    21  H    1.096082   2.069856   2.590470   3.991377   4.874913
    22  H    1.096070   2.069756   2.592706   3.996145   4.888352
    23  H    2.604207   2.079254   1.096071   2.145748   2.632762
    24  H    2.607352   2.078482   1.096493   2.147390   2.650277
    25  H    3.999143   2.668464   2.153762   1.097610   2.081141
    26  H    3.993262   2.661651   2.157040   1.096469   2.073199
    27  H    6.114271   4.817846   3.919344   2.522719   2.040063
    28  H    6.176786   4.879303   3.981821   2.578402   2.064863
    29  H    7.245506   6.224190   4.933546   3.985100   2.648624
    30  H    7.221326   6.202479   4.910913   3.971096   2.651418
    31  H    8.621391   7.353081   6.337229   4.974376   4.055972
    32  H    8.799500   7.595898   6.578435   5.336572   4.449943
    33  H    8.129841   6.793888   5.978097   4.542623   3.992435
    34  H    9.767180   8.455563   7.537470   6.128221   5.350086
    35  H    9.770637   8.703548   7.439857   6.377029   5.091766
    36  H   10.600648   9.410540   8.254971   7.004577   5.858149
    37  H    9.747190   8.678952   7.416015   6.349486   5.056457
                   11         12         13         14         15
    11  C    0.000000
    12  C    1.521173   0.000000
    13  C    2.522604   1.535853   0.000000
    14  C    3.002884   2.534476   1.530638   0.000000
    15  C    3.866460   2.510940   1.526004   2.497190   0.000000
    16  H   11.621986  12.870920  14.142634  14.299601  15.381392
    17  H   10.866993  12.010535  13.354598  13.517105  14.509647
    18  H   10.864280  12.010570  13.357437  13.683142  14.508893
    19  H    7.241863   8.588651   9.738599   9.732089  11.062494
    20  H    7.237793   8.588652   9.742405   9.958723  11.061475
    21  H    6.163664   7.246418   8.615785   9.071484   9.733281
    22  H    6.168201   7.246156   8.611252   8.822536   9.734174
    23  H    3.960927   4.928995   6.326951   6.920856   7.394286
    24  H    3.960694   4.921884   6.313897   6.583927   7.389036
    25  H    2.567930   3.974397   4.958309   4.904999   6.333660
    26  H    2.577979   3.996717   4.984829   5.354418   6.352196
    27  H    1.093293   2.162110   2.781707   2.656105   4.194922
    28  H    1.095986   2.155083   2.756130   3.356303   4.155223
    29  H    2.149987   1.098111   2.176398   3.487353   2.733263
    30  H    2.154745   1.097682   2.179212   2.807599   2.759257
    31  H    2.747753   2.155278   1.098112   2.148945   2.141737
    32  H    3.362468   2.780311   2.173624   1.095307   2.772311
    33  H    2.688190   2.818668   2.188535   1.093796   3.465851
    34  H    4.000362   3.489652   2.176904   1.093271   2.729864
    35  H    4.193024   2.774534   2.172759   2.761638   1.095200
    36  H    4.680861   3.469996   2.168470   2.729145   1.094920
    37  H    4.162574   2.755770   2.173468   3.461134   1.094609
                   16         17         18         19         20
    16  H    0.000000
    17  H    1.769832   0.000000
    18  H    1.769831   1.798236   0.000000
    19  H    4.678440   4.238704   4.600278   0.000000
    20  H    4.678439   4.600242   4.238705   1.777173   0.000000
    21  H    5.866381   5.111393   4.789482   3.064156   2.497750
    22  H    5.866644   4.789709   5.111634   2.498036   3.064297
    23  H    8.178949   7.367526   7.147338   4.566949   4.206886
    24  H    8.183983   7.153416   7.372422   4.210352   4.568422
    25  H    9.402031   8.696044   8.876445   4.837941   5.151522
    26  H    9.389287   8.867693   8.685276   5.139932   4.822238
    27  H   11.648330  10.894631  11.039221   7.107299   7.324436
    28  H   11.707536  11.101437  10.954508   7.383194   7.162978
    29  H   12.937071  12.080761  11.949047   8.860228   8.681867
    30  H   12.913250  11.924525  12.054850   8.661861   8.838298
    31  H   14.214220  13.546739  13.429969   9.847329   9.687929
    32  H   14.332955  13.439494  13.727173   9.780291  10.167450
    33  H   13.558142  12.855310  13.033061   8.941437   9.192195
    34  H   15.269496  14.532124  14.687984  10.673180  10.881956
    35  H   15.471954  14.494576  14.602650  11.169098  11.307323
    36  H   16.286239  15.460174  15.458560  11.898918  11.896806
    37  H   15.447580  14.581332  14.470048  11.283987  11.141467
                   21         22         23         24         25
    21  H    0.000000
    22  H    1.772487   0.000000
    23  H    2.358902   2.951898   0.000000
    24  H    2.954366   2.364662   1.773208   0.000000
    25  H    4.550175   4.192669   3.057388   2.486998   0.000000
    26  H    4.187771   4.548915   2.499286   3.060616   1.771895
    27  H    6.485374   6.239559   4.471831   4.099566   2.269430
    28  H    6.300862   6.549284   4.167318   4.527433   2.929721
    29  H    7.161305   7.375693   4.802413   5.110706   4.530666
    30  H    7.349604   7.136745   5.091065   4.772095   4.160762
    31  H    8.711823   8.888062   6.453633   6.682887   5.158572
    32  H    9.164107   8.733512   7.052585   6.476117   5.032048
    33  H    8.528535   8.258183   6.504768   6.138646   4.174727
    34  H   10.094068   9.869032   7.950430   7.655501   5.870464
    35  H    9.865610   9.707023   7.556880   7.342367   6.493316
    36  H   10.690491  10.692584   8.362933   8.359048   7.107886
    37  H    9.682543   9.845504   7.323644   7.531842   6.704943
                   26         27         28         29         30
    26  H    0.000000
    27  H    2.891914   0.000000
    28  H    2.340813   1.783932   0.000000
    29  H    4.196050   3.062732   2.498947   0.000000
    30  H    4.537519   2.504793   3.062400   1.749214   0.000000
    31  H    4.865793   3.122429   2.525109   2.505115   3.073057
    32  H    5.762038   2.904408   3.993797   3.781316   2.606201
    33  H    4.698325   2.066308   2.936356   3.826524   3.202950
    34  H    6.254558   3.654686   4.179947   4.328019   3.804878
    35  H    6.748358   4.411279   4.721941   3.091934   2.570297
    36  H    7.123087   4.889123   4.838567   3.740950   3.771762
    37  H    6.484477   4.729339   4.345427   2.521303   3.099283
                   31         32         33         34         35
    31  H    0.000000
    32  H    3.066448   0.000000
    33  H    2.497407   1.770597   0.000000
    34  H    2.499496   1.777278   1.752565   0.000000
    35  H    3.063013   2.585691   3.785375   3.090376   0.000000
    36  H    2.481334   3.114373   3.728314   2.504134   1.772698
    37  H    2.486475   3.782980   4.324400   3.736937   1.773548
                   36         37
    36  H    0.000000
    37  H    1.771265   0.000000
 Stoichiometry    C11H22O4
 Framework group  C1[X(C11H22O4)]
 Deg. of freedom   105
 Full point group                 C1      NOp   1
 Largest Abelian subgroup         C1      NOp   1
 Largest concise Abelian subgroup C1      NOp   1
                         Standard orientation:                         
 ---------------------------------------------------------------------
 Center     Atomic      Atomic             Coordinates (Angstroms)
 Number     Number       Type             X           Y           Z
 ---------------------------------------------------------------------
      1          6           0       -7.275103   -0.647074    0.280327
      2          6           0       -6.084768    0.223977   -0.003585
      3          8           0       -6.170280    1.398592   -0.343041
      4          8           0       -4.917398   -0.458042    0.164863
      5          6           0       -3.734451    0.323070   -0.092681
      6          6           0       -2.492346   -0.537479    0.125765
      7          8           0       -1.309935    0.223407   -0.125892
      8          6           0       -0.142657   -0.576125    0.072949
      9          6           0        1.098794    0.249383   -0.206922
     10          8           0        2.256523   -0.568898   -0.026219
     11          6           0        3.424100    0.207840   -0.260105
     12          6           0        4.668861   -0.635558   -0.029417
     13          6           0        5.946488    0.179846   -0.277671
     14          6           0        6.028058    1.391532    0.654004
     15          6           0        7.178446   -0.699158   -0.081920
     16          1           0       -8.188151   -0.059852    0.132959
     17          1           0       -7.260618   -0.992490    1.317093
     18          1           0       -7.304933   -1.494580   -0.409057
     19          1           0       -3.701638    1.188679    0.580361
     20          1           0       -3.745405    0.692429   -1.125559
     21          1           0       -2.518229   -1.404119   -0.544803
     22          1           0       -2.474319   -0.909355    1.156664
     23          1           0       -0.160227   -1.443985   -0.596290
     24          1           0       -0.110506   -0.945763    1.104759
     25          1           0        1.134458    1.111824    0.471069
     26          1           0        1.075250    0.632922   -1.233853
     27          1           0        3.402819    1.055976    0.429462
     28          1           0        3.414826    0.581833   -1.290264
     29          1           0        4.640778   -1.511621   -0.690909
     30          1           0        4.659405   -1.036406    0.992413
     31          1           0        5.939413    0.537407   -1.315914
     32          1           0        6.013420    1.074292    1.702261
     33          1           0        5.194616    2.082740    0.499097
     34          1           0        6.942912    1.962819    0.475363
     35          1           0        7.228909   -1.078353    0.944300
     36          1           0        8.092723   -0.129886   -0.279095
     37          1           0        7.160673   -1.556512   -0.762211
 ---------------------------------------------------------------------
 Rotational constants (GHZ):           3.3438964           0.1020872           0.1002382
 Standard basis: 6-31G(2df,p) (6D, 7F)
 There are   575 symmetry adapted cartesian basis functions of A   symmetry.
 There are   530 symmetry adapted basis functions of A   symmetry.
   530 basis functions,   814 primitive gaussians,   575 cartesian basis functions
    60 alpha electrons       60 beta electrons
       nuclear repulsion energy       958.1756581524 Hartrees.
 NAtoms=   37 NActive=   37 NUniq=   37 SFac= 1.00D+00 NAtFMM=   60 NAOKFM=F Big=F
 Integral buffers will be    131072 words long.
 Raffenetti 2 integral format.
 Two-electron integral symmetry is turned on.
 One-electron integrals computed using PRISM.
 PrsmSu:  requested number of processors reduced to:  12 ShMem   1 Linda.
 NBasis=   530 RedAO= T EigKep=  7.18D-04  NBF=   530
 NBsUse=   530 1.00D-06 EigRej= -1.00D+00 NBFU=   530
 ExpMin= 1.61D-01 ExpMax= 5.48D+03 ExpMxC= 8.25D+02 IAcc=3 IRadAn=         5 AccDes= 0.00D+00
 Harris functional with IExCor=  402 and IRadAn=       5 diagonalized for initial guess.
 HarFok:  IExCor=  402 AccDes= 0.00D+00 IRadAn=         5 IDoV= 1 UseB2=F ITyADJ=14
 ICtDFT=  3500011 ScaDFX=  1.000000  1.000000  1.000000  1.000000
 FoFCou: FMM=F IPFlag=           0 FMFlag=      100000 FMFlg1=           0
         NFxFlg=           0 DoJE=T BraDBF=F KetDBF=T FulRan=T
         wScrn=  0.000000 ICntrl=       500 IOpCl=  0 I1Cent=   200000004 NGrid=           0
         NMat0=    1 NMatS0=      1 NMatT0=    0 NMatD0=    1 NMtDS0=    0 NMtDT0=    0
 Petite list used in FoFCou.
 Requested convergence on RMS density matrix=1.00D-08 within 128 cycles.
 Requested convergence on MAX density matrix=1.00D-06.
 Requested convergence on             energy=1.00D-06.
 No special actions if energy rises.
 Integral accuracy reduced to 1.0D-05 until final iterations.
 Initial convergence to 1.0D-05 achieved.  Increase integral accuracy.
 SCF Done:  E(RB3LYP) =  -733.360936655     A.U. after   13 cycles
            NFock= 13  Conv=0.87D-08     -V/T= 2.0076

 **********************************************************************

            Population analysis using the SCF density.

 **********************************************************************

 Orbital symmetries:
       Occupied  (A) (A) (A) (A) (A) (A) (A) (A) (A) (A) (A) (A)
                 (A) (A) (A) (A) (A) (A) (A) (A) (A) (A) (A) (A)
                 (A) (A) (A) (A) (A) (A) (A) (A) (A) (A) (A) (A)
                 (A) (A) (A) (A) (A) (A) (A) (A) (A) (A) (A) (A)
                 (A) (A) (A) (A) (A) (A) (A) (A) (A) (A) (A) (A)
       Virtual   (A) (A) (A) (A) (A) (A) (A) (A) (A) (A) (A) (A)
                 (A) (A) (A) (A) (A) (A) (A) (A) (A) (A) (A) (A)
                 (A) (A) (A) (A) (A) (A) (A) (A) (A) (A) (A) (A)
                 (A) (A) (A) (A) (A) (A) (A) (A) (A) (A) (A) (A)
                 (A) (A) (A) (A) (A) (A) (A) (A) (A) (A) (A) (A)
                 (A) (A) (A) (A) (A) (A) (A) (A) (A) (A) (A) (A)
                 (A) (A) (A) (A) (A) (A) (A) (A) (A) (A) (A) (A)
                 (A) (A) (A) (A) (A) (A) (A) (A) (A) (A) (A) (A)
                 (A) (A) (A) (A) (A) (A) (A) (A) (A) (A) (A) (A)
                 (A) (A) (A) (A) (A) (A) (A) (A) (A) (A) (A) (A)
                 (A) (A) (A) (A) (A) (A) (A) (A) (A) (A) (A) (A)
                 (A) (A) (A) (A) (A) (A) (A) (A) (A) (A) (A) (A)
                 (A) (A) (A) (A) (A) (A) (A) (A) (A) (A) (A) (A)
                 (A) (A) (A) (A) (A) (A) (A) (A) (A) (A) (A) (A)
                 (A) (A) (A) (A) (A) (A) (A) (A) (A) (A) (A) (A)
                 (A) (A) (A) (A) (A) (A) (A) (A) (A) (A) (A) (A)
                 (A) (A) (A) (A) (A) (A) (A) (A) (A) (A) (A) (A)
                 (A) (A) (A) (A) (A) (A) (A) (A) (A) (A) (A) (A)
                 (A) (A) (A) (A) (A) (A) (A) (A) (A) (A) (A) (A)
                 (A) (A) (A) (A) (A) (A) (A) (A) (A) (A) (A) (A)
                 (A) (A) (A) (A) (A) (A) (A) (A) (A) (A) (A) (A)
                 (A) (A) (A) (A) (A) (A) (A) (A) (A) (A) (A) (A)
                 (A) (A) (A) (A) (A) (A) (A) (A) (A) (A) (A) (A)
                 (A) (A) (A) (A) (A) (A) (A) (A) (A) (A) (A) (A)
                 (A) (A) (A) (A) (A) (A) (A) (A) (A) (A) (A) (A)
                 (A) (A) (A) (A) (A) (A) (A) (A) (A) (A) (A) (A)
                 (A) (A) (A) (A) (A) (A) (A) (A) (A) (A) (A) (A)
                 (A) (A) (A) (A) (A) (A) (A) (A) (A) (A) (A) (A)
                 (A) (A) (A) (A) (A) (A) (A) (A) (A) (A) (A) (A)
                 (A) (A) (A) (A) (A) (A) (A) (A) (A) (A) (A) (A)
                 (A) (A) (A) (A) (A) (A) (A) (A) (A) (A) (A) (A)
                 (A) (A) (A) (A) (A) (A) (A) (A) (A) (A) (A) (A)
                 (A) (A) (A) (A) (A) (A) (A) (A) (A) (A) (A) (A)
                 (A) (A) (A) (A) (A) (A) (A) (A) (A) (A) (A) (A)
                 (A) (A) (A) (A) (A) (A) (A) (A) (A) (A) (A) (A)
                 (A) (A) (A) (A) (A) (A) (A) (A) (A) (A) (A) (A)
                 (A) (A) (A) (A) (A) (A) (A) (A) (A) (A) (A) (A)
                 (A) (A) (A) (A) (A) (A) (A) (A) (A) (A) (A) (A)
                 (A) (A) (A) (A) (A) (A) (A) (A) (A) (A) (A) (A)
                 (A) (A)
 The electronic state is 1-A.
 Alpha  occ. eigenvalues --  -19.18840 -19.14851 -19.13866 -19.12563 -10.31097
 Alpha  occ. eigenvalues --  -10.24116 -10.23668 -10.23029 -10.22681 -10.22221
 Alpha  occ. eigenvalues --  -10.19546 -10.18783 -10.17652 -10.17192 -10.17071
 Alpha  occ. eigenvalues --   -1.09544  -1.03585  -1.02521  -1.00674  -0.81423
 Alpha  occ. eigenvalues --   -0.78683  -0.75866  -0.73217  -0.70218  -0.68260
 Alpha  occ. eigenvalues --   -0.63062  -0.61303  -0.60876  -0.56926  -0.55917
 Alpha  occ. eigenvalues --   -0.50924  -0.50043  -0.49352  -0.48535  -0.47622
 Alpha  occ. eigenvalues --   -0.47139  -0.45770  -0.45406  -0.44655  -0.43816
 Alpha  occ. eigenvalues --   -0.42218  -0.41597  -0.40842  -0.40145  -0.38807
 Alpha  occ. eigenvalues --   -0.38205  -0.37735  -0.36449  -0.35739  -0.35180
 Alpha  occ. eigenvalues --   -0.34743  -0.33262  -0.32624  -0.32346  -0.32102
 Alpha  occ. eigenvalues --   -0.31022  -0.30104  -0.26907  -0.26365  -0.25419
 Alpha virt. eigenvalues --    0.00847   0.06956   0.08178   0.09158   0.09824
 Alpha virt. eigenvalues --    0.11767   0.11927   0.12642   0.13239   0.13551
 Alpha virt. eigenvalues --    0.14222   0.14948   0.15106   0.15808   0.15978
 Alpha virt. eigenvalues --    0.16549   0.17097   0.17622   0.17913   0.18850
 Alpha virt. eigenvalues --    0.19466   0.19781   0.20558   0.20774   0.21118
 Alpha virt. eigenvalues --    0.21324   0.22174   0.22376   0.22901   0.23663
 Alpha virt. eigenvalues --    0.24793   0.25710   0.26856   0.27341   0.28093
 Alpha virt. eigenvalues --    0.32005   0.35945   0.40041   0.40392   0.42731
 Alpha virt. eigenvalues --    0.45574   0.46806   0.47308   0.47973   0.48029
 Alpha virt. eigenvalues --    0.48866   0.49456   0.49970   0.51461   0.51834
 Alpha virt. eigenvalues --    0.52361   0.52954   0.54009   0.54779   0.55604
 Alpha virt. eigenvalues --    0.56501   0.57670   0.59662   0.60381   0.61178
 Alpha virt. eigenvalues --    0.61499   0.62673   0.63810   0.64820   0.65083
 Alpha virt. eigenvalues --    0.65659   0.66612   0.68304   0.68981   0.69337
 Alpha virt. eigenvalues --    0.69492   0.70057   0.70598   0.70971   0.72046
 Alpha virt. eigenvalues --    0.73055   0.73437   0.73749   0.73876   0.74235
 Alpha virt. eigenvalues --    0.74482   0.75380   0.76158   0.77463   0.77837
 Alpha virt. eigenvalues --    0.79348   0.80060   0.80137   0.80753   0.81326
 Alpha virt. eigenvalues --    0.81628   0.81927   0.83475   0.84430   0.85027
 Alpha virt. eigenvalues --    0.86113   0.86498   0.88017   0.88511   0.88937
 Alpha virt. eigenvalues --    0.89269   0.89954   0.91259   0.93072   0.93808
 Alpha virt. eigenvalues --    0.95940   0.96047   0.96750   0.99029   1.01032
 Alpha virt. eigenvalues --    1.01775   1.02505   1.03576   1.06578   1.07494
 Alpha virt. eigenvalues --    1.08191   1.09821   1.10150   1.12151   1.12511
 Alpha virt. eigenvalues --    1.15603   1.17141   1.19060   1.21412   1.22126
 Alpha virt. eigenvalues --    1.23323   1.23793   1.25193   1.26661   1.29758
 Alpha virt. eigenvalues --    1.30575   1.31503   1.32738   1.33616   1.33732
 Alpha virt. eigenvalues --    1.35710   1.36309   1.37081   1.37330   1.38155
 Alpha virt. eigenvalues --    1.39267   1.40154   1.40671   1.42212   1.42400
 Alpha virt. eigenvalues --    1.43286   1.43454   1.44602   1.46460   1.47979
 Alpha virt. eigenvalues --    1.49152   1.49732   1.51557   1.53624   1.54775
 Alpha virt. eigenvalues --    1.55628   1.57528   1.57886   1.58876   1.60894
 Alpha virt. eigenvalues --    1.62339   1.64187   1.64650   1.65211   1.66291
 Alpha virt. eigenvalues --    1.67350   1.69448   1.72801   1.73622   1.75602
 Alpha virt. eigenvalues --    1.76874   1.77933   1.79105   1.79672   1.80853
 Alpha virt. eigenvalues --    1.83031   1.83777   1.84854   1.85582   1.86553
 Alpha virt. eigenvalues --    1.87348   1.88552   1.90575   1.91773   1.92889
 Alpha virt. eigenvalues --    1.93586   1.94768   1.94895   1.96247   1.96771
 Alpha virt. eigenvalues --    1.98356   2.01130   2.12168   2.15296   2.15831
 Alpha virt. eigenvalues --    2.15897   2.16530   2.19662   2.20894   2.23081
 Alpha virt. eigenvalues --    2.23639   2.23843   2.26087   2.26278   2.27128
 Alpha virt. eigenvalues --    2.28066   2.29692   2.30488   2.35598   2.36013
 Alpha virt. eigenvalues --    2.40833   2.42313   2.42999   2.43585   2.45988
 Alpha virt. eigenvalues --    2.46619   2.50037   2.51581   2.54589   2.55853
 Alpha virt. eigenvalues --    2.58496   2.60011   2.64276   2.65544   2.66124
 Alpha virt. eigenvalues --    2.69752   2.70328   2.72621   2.73418   2.73906
 Alpha virt. eigenvalues --    2.73953   2.75607   2.76881   2.77522   2.78682
 Alpha virt. eigenvalues --    2.80105   2.80568   2.82683   2.83171   2.84053
 Alpha virt. eigenvalues --    2.84359   2.85100   2.86101   2.86413   2.87027
 Alpha virt. eigenvalues --    2.87656   2.88248   2.88779   2.89188   2.90442
 Alpha virt. eigenvalues --    2.90901   2.91308   2.92782   2.93935   2.95691
 Alpha virt. eigenvalues --    2.96050   2.96409   2.98175   3.02004   3.02133
 Alpha virt. eigenvalues --    3.03296   3.05014   3.05877   3.08701   3.08742
 Alpha virt. eigenvalues --    3.10539   3.12084   3.13485   3.15513   3.17796
 Alpha virt. eigenvalues --    3.18954   3.20049   3.23475   3.26299   3.28443
 Alpha virt. eigenvalues --    3.29301   3.29502   3.30468   3.30609   3.31202
 Alpha virt. eigenvalues --    3.32745   3.33906   3.35987   3.37519   3.39003
 Alpha virt. eigenvalues --    3.40879   3.41786   3.43030   3.43931   3.44790
 Alpha virt. eigenvalues --    3.47718   3.48508   3.49502   3.51869   3.54597
 Alpha virt. eigenvalues --    3.55579   3.58884   3.60251   3.60492   3.61657
 Alpha virt. eigenvalues --    3.62104   3.62538   3.65083   3.66563   3.66673
 Alpha virt. eigenvalues --    3.67587   3.69408   3.70903   3.71375   3.71564
 Alpha virt. eigenvalues --    3.72119   3.73121   3.74010   3.74652   3.75296
 Alpha virt. eigenvalues --    3.76305   3.82634   3.83667   3.84641   3.86846
 Alpha virt. eigenvalues --    3.91357   3.92315   3.95685   4.00384   4.02870
 Alpha virt. eigenvalues --    4.04053   4.07559   4.10616   4.10867   4.12119
 Alpha virt. eigenvalues --    4.21550   4.23717   4.23788   4.25047   4.26435
 Alpha virt. eigenvalues --    4.26746   4.29376   4.30549   4.32308   4.33614
 Alpha virt. eigenvalues --    4.36966   4.37799   4.38974   4.40477   4.41034
 Alpha virt. eigenvalues --    4.41468   4.42847   4.43019   4.44224   4.44271
 Alpha virt. eigenvalues --    4.45503   4.45926   4.46700   4.49320   4.49520
 Alpha virt. eigenvalues --    4.49664   4.51099   4.51998   4.52223   4.53415
 Alpha virt. eigenvalues --    4.55316   4.56750   4.56981   4.57242   4.57431
 Alpha virt. eigenvalues --    4.58489   4.59356   4.60522   4.61298   4.61508
 Alpha virt. eigenvalues --    4.62959   4.62991   4.64780   4.65770   4.66250
 Alpha virt. eigenvalues --    4.66927   4.67750   4.68933   4.69432   4.70862
 Alpha virt. eigenvalues --    4.72709   4.72975   4.73286   4.75053   4.76012
 Alpha virt. eigenvalues --    4.76856   4.77536   4.78068   4.79219   4.80117
 Alpha virt. eigenvalues --    4.80936   4.82065   4.82678   4.84364   4.85161
 Alpha virt. eigenvalues --    4.85835   4.86484   4.88395   4.90492   4.90853
 Alpha virt. eigenvalues --    4.91783   4.91840   4.94798   4.96741   4.98937
 Alpha virt. eigenvalues --    5.01070   5.03682   5.06182   5.08656   5.09196
 Alpha virt. eigenvalues --    5.12554   5.22428   5.28222   5.31131   5.33202
 Alpha virt. eigenvalues --    5.35875   5.38692   5.40164   5.42396   5.46032
 Alpha virt. eigenvalues --    5.46638   5.48716   5.48927   5.50510   5.52924
 Alpha virt. eigenvalues --    5.53973   5.54358   5.56601   5.58669   5.59892
 Alpha virt. eigenvalues --    5.65695   5.67733   5.82181   5.84373   5.85124
 Alpha virt. eigenvalues --    5.86098   5.87033   5.87388   5.93307   5.99607
 Alpha virt. eigenvalues --    6.02246   6.05153   6.08418   6.10182   6.15074
 Alpha virt. eigenvalues --    6.24718   6.27248   6.32606   6.35743   6.43455
 Alpha virt. eigenvalues --    6.65221   6.77123   7.04678   7.06278   7.13980
 Alpha virt. eigenvalues --   10.85035  11.19205  11.23857  11.36229  11.62860
 Alpha virt. eigenvalues --   11.76934  11.82722  11.87999  12.03331  12.20869
 Alpha virt. eigenvalues --   12.52421  13.02624  13.41333  13.46176  13.51014
          Condensed to atoms (all electrons):
               1          2          3          4          5          6
     1  C    5.130186   0.360928  -0.048619  -0.060451   0.005787   0.000125
     2  C    0.360928   4.158343   0.734157   0.390251  -0.062134   0.004340
     3  O   -0.048619   0.734157   7.714928  -0.057556   0.003427   0.001471
     4  O   -0.060451   0.390251  -0.057556   7.739344   0.293811  -0.021248
     5  C    0.005787  -0.062134   0.003427   0.293811   4.812327   0.389521
     6  C    0.000125   0.004340   0.001471  -0.021248   0.389521   4.805479
     7  O    0.000000   0.000017   0.000002   0.000411  -0.026691   0.339978
     8  C    0.000000   0.000002   0.000000  -0.000026   0.001888  -0.067083
     9  C    0.000000   0.000000   0.000000   0.000000  -0.000193   0.002388
    10  O   -0.000000   0.000000  -0.000000   0.000000   0.000000  -0.000033
    11  C    0.000000   0.000000   0.000000   0.000000   0.000000  -0.000001
    12  C   -0.000000   0.000000  -0.000000  -0.000000   0.000000  -0.000000
    13  C    0.000000   0.000000   0.000000   0.000000   0.000000   0.000000
    14  C    0.000000   0.000000   0.000000   0.000000  -0.000000  -0.000000
    15  C    0.000000   0.000000   0.000000   0.000000   0.000000  -0.000000
    16  H    0.364962  -0.012091   0.000423   0.001873  -0.000263   0.000000
    17  H    0.361255  -0.012832   0.000948   0.001372  -0.000018  -0.000028
    18  H    0.361257  -0.012830   0.000948   0.001372  -0.000018  -0.000028
    19  H    0.000345   0.001000   0.005316  -0.023850   0.359728  -0.032794
    20  H    0.000345   0.001001   0.005314  -0.023837   0.359688  -0.032762
    21  H    0.000013   0.000311  -0.000010   0.003782  -0.027640   0.345118
    22  H    0.000014   0.000312  -0.000010   0.003798  -0.027761   0.345084
    23  H    0.000000   0.000000  -0.000000   0.000004   0.000286  -0.005659
    24  H    0.000000   0.000000  -0.000000   0.000004   0.000279  -0.005522
    25  H    0.000000   0.000000   0.000000   0.000000   0.000019   0.000136
    26  H    0.000000   0.000000   0.000000   0.000000   0.000020   0.000161
    27  H   -0.000000  -0.000000   0.000000  -0.000000   0.000000   0.000000
    28  H   -0.000000  -0.000000   0.000000  -0.000000   0.000000   0.000000
    29  H   -0.000000  -0.000000   0.000000  -0.000000   0.000000   0.000000
    30  H   -0.000000  -0.000000   0.000000  -0.000000   0.000000   0.000000
    31  H    0.000000  -0.000000   0.000000  -0.000000  -0.000000   0.000000
    32  H    0.000000  -0.000000   0.000000  -0.000000   0.000000   0.000000
    33  H    0.000000   0.000000  -0.000000   0.000000   0.000000  -0.000000
    34  H    0.000000   0.000000   0.000000   0.000000   0.000000   0.000000
    35  H    0.000000   0.000000   0.000000   0.000000   0.000000   0.000000
    36  H    0.000000   0.000000   0.000000   0.000000  -0.000000   0.000000
    37  H    0.000000   0.000000   0.000000   0.000000  -0.000000   0.000000
               7          8          9         10         11         12
     1  C    0.000000   0.000000   0.000000  -0.000000   0.000000  -0.000000
     2  C    0.000017   0.000002   0.000000   0.000000   0.000000   0.000000
     3  O    0.000002   0.000000   0.000000  -0.000000   0.000000  -0.000000
     4  O    0.000411  -0.000026   0.000000   0.000000   0.000000  -0.000000
     5  C   -0.026691   0.001888  -0.000193   0.000000   0.000000   0.000000
     6  C    0.339978  -0.067083   0.002388  -0.000033  -0.000001  -0.000000
     7  O    7.748394   0.333125  -0.025012   0.000459  -0.000033   0.000000
     8  C    0.333125   4.766534   0.430851  -0.026109   0.002577  -0.000243
     9  C   -0.025012   0.430851   4.778660   0.334089  -0.072934   0.003214
    10  O    0.000459  -0.026109   0.334089   7.737796   0.355881  -0.027382
    11  C   -0.000033   0.002577  -0.072934   0.355881   4.724322   0.435233
    12  C    0.000000  -0.000243   0.003214  -0.027382   0.435233   4.881228
    13  C    0.000000   0.000002  -0.000239   0.001321  -0.031068   0.393426
    14  C   -0.000000  -0.000000   0.000023   0.000151  -0.003981  -0.036620
    15  C    0.000000  -0.000000  -0.000001  -0.000031   0.001534  -0.033611
    16  H   -0.000000   0.000000  -0.000000   0.000000  -0.000000   0.000000
    17  H   -0.000000  -0.000000  -0.000000   0.000000  -0.000000  -0.000000
    18  H   -0.000000  -0.000000  -0.000000   0.000000  -0.000000  -0.000000
    19  H    0.004366   0.000087   0.000018   0.000000   0.000000   0.000000
    20  H    0.004382   0.000089   0.000018   0.000000   0.000000   0.000000
    21  H   -0.029472  -0.005512   0.000255   0.000005   0.000000   0.000000
    22  H   -0.029452  -0.005454   0.000260   0.000004   0.000000   0.000000
    23  H   -0.028516   0.347213  -0.029839   0.004994   0.000229   0.000021
    24  H   -0.028546   0.346509  -0.029162   0.004908   0.000247   0.000021
    25  H    0.004407  -0.029397   0.344981  -0.029579  -0.004971   0.000279
    26  H    0.004606  -0.029923   0.346849  -0.029133  -0.004739   0.000207
    27  H    0.000005   0.000377  -0.006210  -0.032569   0.355518  -0.031154
    28  H    0.000005   0.000317  -0.006022  -0.030651   0.347068  -0.036350
    29  H    0.000000   0.000019   0.000174   0.002563  -0.027399   0.353916
    30  H    0.000000   0.000017   0.000121   0.002596  -0.029285   0.353539
    31  H    0.000000   0.000000   0.000012   0.000025  -0.003969  -0.044685
    32  H    0.000000   0.000000   0.000001  -0.000012  -0.000489  -0.006066
    33  H    0.000000  -0.000000  -0.000016  -0.000006  -0.002118  -0.004280
    34  H    0.000000   0.000000  -0.000000  -0.000001   0.000134   0.004275
    35  H   -0.000000   0.000000   0.000000   0.000000   0.000209  -0.006555
    36  H   -0.000000   0.000000  -0.000000   0.000000  -0.000152   0.003614
    37  H   -0.000000   0.000000   0.000000   0.000001   0.000191  -0.003293
              13         14         15         16         17         18
     1  C    0.000000   0.000000   0.000000   0.364962   0.361255   0.361257
     2  C    0.000000   0.000000   0.000000  -0.012091  -0.012832  -0.012830
     3  O    0.000000   0.000000   0.000000   0.000423   0.000948   0.000948
     4  O    0.000000   0.000000   0.000000   0.001873   0.001372   0.001372
     5  C    0.000000  -0.000000   0.000000  -0.000263  -0.000018  -0.000018
     6  C    0.000000  -0.000000  -0.000000   0.000000  -0.000028  -0.000028
     7  O    0.000000  -0.000000   0.000000  -0.000000  -0.000000  -0.000000
     8  C    0.000002  -0.000000  -0.000000   0.000000  -0.000000  -0.000000
     9  C   -0.000239   0.000023  -0.000001  -0.000000  -0.000000  -0.000000
    10  O    0.001321   0.000151  -0.000031   0.000000   0.000000   0.000000
    11  C   -0.031068  -0.003981   0.001534  -0.000000  -0.000000  -0.000000
    12  C    0.393426  -0.036620  -0.033611   0.000000  -0.000000  -0.000000
    13  C    4.590024   0.414523   0.410203   0.000000   0.000000   0.000000
    14  C    0.414523   4.992191  -0.046094   0.000000   0.000000   0.000000
    15  C    0.410203  -0.046094   5.000036   0.000000   0.000000   0.000000
    16  H    0.000000   0.000000   0.000000   0.546561  -0.026654  -0.026653
    17  H    0.000000   0.000000   0.000000  -0.026654   0.550012  -0.023474
    18  H    0.000000   0.000000   0.000000  -0.026653  -0.023474   0.549997
    19  H    0.000000   0.000000   0.000000   0.000007  -0.000024   0.000003
    20  H    0.000000   0.000000   0.000000   0.000007   0.000003  -0.000024
    21  H    0.000000   0.000000   0.000000   0.000000   0.000001   0.000001
    22  H    0.000000   0.000000   0.000000   0.000000   0.000001   0.000001
    23  H    0.000000  -0.000000   0.000000   0.000000  -0.000000   0.000000
    24  H    0.000000   0.000000   0.000000  -0.000000   0.000000  -0.000000
    25  H    0.000032  -0.000023   0.000000   0.000000  -0.000000   0.000000
    26  H    0.000041  -0.000000   0.000000   0.000000   0.000000  -0.000000
    27  H   -0.003647   0.001098  -0.000001  -0.000000   0.000000  -0.000000
    28  H    0.002194  -0.001110   0.000085   0.000000  -0.000000   0.000000
    29  H   -0.024066   0.005258  -0.004066   0.000000   0.000000  -0.000000
    30  H   -0.023460  -0.008979  -0.004279   0.000000  -0.000000   0.000000
    31  H    0.367230  -0.048337  -0.042309   0.000000   0.000000   0.000000
    32  H   -0.026700   0.373695  -0.005515   0.000000   0.000000   0.000000
    33  H   -0.022953   0.371393   0.004982   0.000000   0.000000   0.000000
    34  H   -0.024534   0.370419  -0.004371   0.000000   0.000000   0.000000
    35  H   -0.024836  -0.006335   0.373506   0.000000   0.000000   0.000000
    36  H   -0.022282  -0.003300   0.369461   0.000000   0.000000   0.000000
    37  H   -0.021785   0.005122   0.367900   0.000000   0.000000   0.000000
              19         20         21         22         23         24
     1  C    0.000345   0.000345   0.000013   0.000014   0.000000   0.000000
     2  C    0.001000   0.001001   0.000311   0.000312   0.000000   0.000000
     3  O    0.005316   0.005314  -0.000010  -0.000010  -0.000000  -0.000000
     4  O   -0.023850  -0.023837   0.003782   0.003798   0.000004   0.000004
     5  C    0.359728   0.359688  -0.027640  -0.027761   0.000286   0.000279
     6  C   -0.032794  -0.032762   0.345118   0.345084  -0.005659  -0.005522
     7  O    0.004366   0.004382  -0.029472  -0.029452  -0.028516  -0.028546
     8  C    0.000087   0.000089  -0.005512  -0.005454   0.347213   0.346509
     9  C    0.000018   0.000018   0.000255   0.000260  -0.029839  -0.029162
    10  O    0.000000   0.000000   0.000005   0.000004   0.004994   0.004908
    11  C    0.000000   0.000000   0.000000   0.000000   0.000229   0.000247
    12  C    0.000000   0.000000   0.000000   0.000000   0.000021   0.000021
    13  C    0.000000   0.000000   0.000000   0.000000   0.000000   0.000000
    14  C    0.000000   0.000000   0.000000   0.000000  -0.000000   0.000000
    15  C    0.000000   0.000000   0.000000   0.000000   0.000000   0.000000
    16  H    0.000007   0.000007   0.000000   0.000000   0.000000  -0.000000
    17  H   -0.000024   0.000003   0.000001   0.000001  -0.000000   0.000000
    18  H    0.000003  -0.000024   0.000001   0.000001   0.000000  -0.000000
    19  H    0.601498  -0.046367   0.006579  -0.007552   0.000033  -0.000038
    20  H   -0.046367   0.601445  -0.007558   0.006581  -0.000038   0.000033
    21  H    0.006579  -0.007558   0.661170  -0.058369   0.013592  -0.002747
    22  H   -0.007552   0.006581  -0.058369   0.661433  -0.002746   0.013509
    23  H    0.000033  -0.000038   0.013592  -0.002746   0.657930  -0.057989
    24  H   -0.000038   0.000033  -0.002747   0.013509  -0.057989   0.658999
    25  H    0.000002  -0.000000   0.000033  -0.000034   0.007258  -0.008604
    26  H   -0.000000   0.000002  -0.000035   0.000034  -0.008329   0.007209
    27  H   -0.000000   0.000000  -0.000000   0.000000   0.000042  -0.000049
    28  H    0.000000  -0.000000   0.000000  -0.000000  -0.000041   0.000036
    29  H    0.000000  -0.000000  -0.000000   0.000000   0.000002  -0.000000
    30  H   -0.000000   0.000000   0.000000  -0.000000  -0.000000   0.000003
    31  H   -0.000000   0.000000  -0.000000  -0.000000   0.000000  -0.000000
    32  H   -0.000000  -0.000000  -0.000000  -0.000000   0.000000  -0.000000
    33  H    0.000000  -0.000000   0.000000  -0.000000   0.000000   0.000000
    34  H    0.000000   0.000000  -0.000000   0.000000   0.000000   0.000000
    35  H   -0.000000   0.000000  -0.000000   0.000000   0.000000  -0.000000
    36  H    0.000000   0.000000  -0.000000  -0.000000   0.000000   0.000000
    37  H   -0.000000  -0.000000  -0.000000  -0.000000  -0.000000   0.000000
              25         26         27         28         29         30
     1  C    0.000000   0.000000  -0.000000  -0.000000  -0.000000  -0.000000
     2  C    0.000000   0.000000  -0.000000  -0.000000  -0.000000  -0.000000
     3  O    0.000000   0.000000   0.000000   0.000000   0.000000   0.000000
     4  O    0.000000   0.000000  -0.000000  -0.000000  -0.000000  -0.000000
     5  C    0.000019   0.000020   0.000000   0.000000   0.000000   0.000000
     6  C    0.000136   0.000161   0.000000   0.000000   0.000000   0.000000
     7  O    0.004407   0.004606   0.000005   0.000005   0.000000   0.000000
     8  C   -0.029397  -0.029923   0.000377   0.000317   0.000019   0.000017
     9  C    0.344981   0.346849  -0.006210  -0.006022   0.000174   0.000121
    10  O   -0.029579  -0.029133  -0.032569  -0.030651   0.002563   0.002596
    11  C   -0.004971  -0.004739   0.355518   0.347068  -0.027399  -0.029285
    12  C    0.000279   0.000207  -0.031154  -0.036350   0.353916   0.353539
    13  C    0.000032   0.000041  -0.003647   0.002194  -0.024066  -0.023460
    14  C   -0.000023  -0.000000   0.001098  -0.001110   0.005258  -0.008979
    15  C    0.000000   0.000000  -0.000001   0.000085  -0.004066  -0.004279
    16  H    0.000000   0.000000  -0.000000   0.000000   0.000000   0.000000
    17  H   -0.000000   0.000000   0.000000  -0.000000   0.000000  -0.000000
    18  H    0.000000  -0.000000  -0.000000   0.000000  -0.000000   0.000000
    19  H    0.000002  -0.000000  -0.000000   0.000000   0.000000  -0.000000
    20  H   -0.000000   0.000002   0.000000  -0.000000  -0.000000   0.000000
    21  H    0.000033  -0.000035  -0.000000   0.000000  -0.000000   0.000000
    22  H   -0.000034   0.000034   0.000000  -0.000000   0.000000  -0.000000
    23  H    0.007258  -0.008329   0.000042  -0.000041   0.000002  -0.000000
    24  H   -0.008604   0.007209  -0.000049   0.000036  -0.000000   0.000003
    25  H    0.664134  -0.059307   0.015479  -0.003042   0.000038  -0.000050
    26  H   -0.059307   0.662589  -0.003157   0.014202  -0.000041   0.000038
    27  H    0.015479  -0.003157   0.669541  -0.059773   0.006659  -0.006719
    28  H   -0.003042   0.014202  -0.059773   0.680979  -0.007056   0.006783
    29  H    0.000038  -0.000041   0.006659  -0.007056   0.636835  -0.041961
    30  H   -0.000050   0.000038  -0.006719   0.006783  -0.041961   0.634790
    31  H   -0.000000  -0.000001  -0.000166   0.006155  -0.004298   0.006605
    32  H    0.000000  -0.000000   0.001074   0.000106  -0.000026   0.005119
    33  H    0.000015   0.000003   0.003675   0.000705  -0.000053   0.000049
    34  H    0.000000  -0.000000  -0.000124  -0.000072  -0.000169  -0.000076
    35  H    0.000000  -0.000000   0.000010   0.000009  -0.000249   0.004786
    36  H    0.000000   0.000000   0.000004   0.000006  -0.000056  -0.000060
    37  H   -0.000000   0.000000   0.000000  -0.000008   0.004420  -0.000279
              31         32         33         34         35         36
     1  C    0.000000   0.000000   0.000000   0.000000   0.000000   0.000000
     2  C   -0.000000  -0.000000   0.000000   0.000000   0.000000   0.000000
     3  O    0.000000   0.000000  -0.000000   0.000000   0.000000   0.000000
     4  O   -0.000000  -0.000000   0.000000   0.000000   0.000000   0.000000
     5  C   -0.000000   0.000000   0.000000   0.000000   0.000000  -0.000000
     6  C    0.000000   0.000000  -0.000000   0.000000   0.000000   0.000000
     7  O    0.000000   0.000000   0.000000   0.000000  -0.000000  -0.000000
     8  C    0.000000   0.000000  -0.000000   0.000000   0.000000   0.000000
     9  C    0.000012   0.000001  -0.000016  -0.000000   0.000000  -0.000000
    10  O    0.000025  -0.000012  -0.000006  -0.000001   0.000000   0.000000
    11  C   -0.003969  -0.000489  -0.002118   0.000134   0.000209  -0.000152
    12  C   -0.044685  -0.006066  -0.004280   0.004275  -0.006555   0.003614
    13  C    0.367230  -0.026700  -0.022953  -0.024534  -0.024836  -0.022282
    14  C   -0.048337   0.373695   0.371393   0.370419  -0.006335  -0.003300
    15  C   -0.042309  -0.005515   0.004982  -0.004371   0.373506   0.369461
    16  H    0.000000   0.000000   0.000000   0.000000   0.000000   0.000000
    17  H    0.000000   0.000000   0.000000   0.000000   0.000000   0.000000
    18  H    0.000000   0.000000   0.000000   0.000000   0.000000   0.000000
    19  H   -0.000000  -0.000000   0.000000   0.000000  -0.000000   0.000000
    20  H    0.000000  -0.000000  -0.000000   0.000000   0.000000   0.000000
    21  H   -0.000000  -0.000000   0.000000  -0.000000  -0.000000  -0.000000
    22  H   -0.000000  -0.000000  -0.000000   0.000000   0.000000  -0.000000
    23  H    0.000000   0.000000   0.000000   0.000000   0.000000   0.000000
    24  H   -0.000000  -0.000000   0.000000   0.000000  -0.000000   0.000000
    25  H   -0.000000   0.000000   0.000015   0.000000   0.000000   0.000000
    26  H   -0.000001  -0.000000   0.000003  -0.000000  -0.000000   0.000000
    27  H   -0.000166   0.001074   0.003675  -0.000124   0.000010   0.000004
    28  H    0.006155   0.000106   0.000705  -0.000072   0.000009   0.000006
    29  H   -0.004298  -0.000026  -0.000053  -0.000169  -0.000249  -0.000056
    30  H    0.006605   0.005119   0.000049  -0.000076   0.004786  -0.000060
    31  H    0.691447   0.006233  -0.003246  -0.002876   0.006217  -0.003034
    32  H    0.006233   0.600511  -0.033985  -0.031601   0.004994  -0.000139
    33  H   -0.003246  -0.033985   0.601276  -0.030356  -0.000046  -0.000037
    34  H   -0.002876  -0.031601  -0.030356   0.606140  -0.000141   0.004355
    35  H    0.006217   0.004994  -0.000046  -0.000141   0.601041  -0.032667
    36  H   -0.003034  -0.000139  -0.000037   0.004355  -0.032667   0.607654
    37  H   -0.003099  -0.000044  -0.000226  -0.000037  -0.032302  -0.031147
              37
     1  C    0.000000
     2  C    0.000000
     3  O    0.000000
     4  O    0.000000
     5  C   -0.000000
     6  C    0.000000
     7  O   -0.000000
     8  C    0.000000
     9  C    0.000000
    10  O    0.000001
    11  C    0.000191
    12  C   -0.003293
    13  C   -0.021785
    14  C    0.005122
    15  C    0.367900
    16  H    0.000000
    17  H    0.000000
    18  H    0.000000
    19  H   -0.000000
    20  H   -0.000000
    21  H   -0.000000
    22  H   -0.000000
    23  H   -0.000000
    24  H    0.000000
    25  H   -0.000000
    26  H    0.000000
    27  H    0.000000
    28  H   -0.000008
    29  H    0.004420
    30  H   -0.000279
    31  H   -0.003099
    32  H   -0.000044
    33  H   -0.000226
    34  H   -0.000037
    35  H   -0.032302
    36  H   -0.031147
    37  H    0.605971
 Mulliken charges:
               1
     1  C   -0.476147
     2  C    0.449224
     3  O   -0.360739
     4  O   -0.249056
     5  C   -0.082064
     6  C   -0.068646
     7  O   -0.272435
     8  C   -0.065860
     9  C   -0.072287
    10  O   -0.269287
    11  C   -0.042005
    12  C   -0.198736
    13  C    0.046572
    14  C   -0.379092
    15  C   -0.387428
    16  H    0.151828
    17  H    0.149438
    18  H    0.149449
    19  H    0.131643
    20  H    0.131677
    21  H    0.100484
    22  H    0.100347
    23  H    0.101552
    24  H    0.100901
    25  H    0.098195
    26  H    0.098706
    27  H    0.090086
    28  H    0.085472
    29  H    0.099554
    30  H    0.100703
    31  H    0.072094
    32  H    0.112843
    33  H    0.115224
    34  H    0.109035
    35  H    0.112359
    36  H    0.107778
    37  H    0.108614
 Sum of Mulliken charges =  -0.00000
 Mulliken charges with hydrogens summed into heavy atoms:
               1
     1  C   -0.025433
     2  C    0.449224
     3  O   -0.360739
     4  O   -0.249056
     5  C    0.181256
     6  C    0.132186
     7  O   -0.272435
     8  C    0.136594
     9  C    0.124614
    10  O   -0.269287
    11  C    0.133554
    12  C    0.001521
    13  C    0.118666
    14  C   -0.041990
    15  C   -0.058677
 Electronic spatial extent (au):  <R**2>=          10414.4307
 Charge=             -0.0000 electrons
 Dipole moment (field-independent basis, Debye):
    X=              1.0285    Y=             -1.6256    Z=              0.4489  Tot=              1.9753
 Quadrupole moment (field-independent basis, Debye-Ang):
   XX=            -87.7932   YY=            -97.2789   ZZ=            -90.6405
   XY=             16.0024   XZ=             -4.9917   YZ=              1.4324
 Traceless Quadrupole moment (field-independent basis, Debye-Ang):
   XX=              4.1110   YY=             -5.3747   ZZ=              1.2637
   XY=             16.0024   XZ=             -4.9917   YZ=              1.4324
 Octapole moment (field-independent basis, Debye-Ang**2):
  XXX=            -54.9923  YYY=             -4.5633  ZZZ=             -0.3733  XYY=              4.5835
  XXY=            -77.9036  XXZ=             20.1324  XZZ=            -19.1348  YZZ=             -1.2364
  YYZ=             -0.1624  XYZ=             -9.1006
 Hexadecapole moment (field-independent basis, Debye-Ang**3):
 XXXX=         -12539.4379 YYYY=           -448.9431 ZZZZ=           -191.5957 XXXY=            597.3590
 XXXZ=           -198.9501 YYYX=              7.1801 YYYZ=              3.6615 ZZZX=             -0.0069
 ZZZY=             -5.6948 XXYY=          -2402.6181 XXZZ=          -2167.4052 YYZZ=           -104.5136
 XXYZ=             39.1255 YYXZ=            -11.2540 ZZXY=             -9.5665
 N-N= 9.581756581524D+02 E-N=-3.626876570456D+03  KE= 7.278159844582D+02
 PrsmSu:  requested number of processors reduced to:  13 ShMem   1 Linda.
 Calling FoFJK, ICntrl=      2127 FMM=F ISym2X=0 I1Cent= 0 IOpClX= 0 NMat=1 NMatS=1 NMatT=0.
 ***** Axes restored to original set *****
 -------------------------------------------------------------------
 Center     Atomic                   Forces (Hartrees/Bohr)
 Number     Number              X              Y              Z
 -------------------------------------------------------------------
      1        6          -0.005243551    0.000126651   -0.007730986
      2        6           0.014123051    0.000404692   -0.024243457
      3        8          -0.010446218   -0.000556242    0.033502177
      4        8           0.005339868    0.000141142   -0.008307526
      5        6           0.013182703    0.000041752   -0.001976390
      6        6           0.002544814   -0.000026490    0.003212138
      7        8          -0.005748727   -0.000174610    0.001567735
      8        6          -0.003950195   -0.000080441   -0.005041563
      9        6           0.002320578   -0.000651750    0.006811019
     10        8          -0.003417160   -0.000585467   -0.011795185
     11        6          -0.011995319    0.001526758    0.008597758
     12        6          -0.001863607   -0.002727434   -0.002431903
     13        6          -0.001532487    0.004498442    0.004291260
     14        6           0.002202930   -0.000573003   -0.005438836
     15        6           0.002548113   -0.004064285    0.001785402
     16        1           0.003123305   -0.000037556    0.002284799
     17        1          -0.000527970   -0.002529818    0.004457786
     18        1          -0.000528020    0.002381055    0.004538784
     19        1          -0.001789110   -0.002415163   -0.001125092
     20        1          -0.001785756    0.002463479   -0.001026585
     21        1          -0.002840016   -0.001936735    0.001689208
     22        1          -0.002886405    0.001894849    0.001750725
     23        1          -0.001310721   -0.001914121    0.002078366
     24        1          -0.001069214    0.001598843    0.002178173
     25        1           0.000451587    0.001622766   -0.001800800
     26        1          -0.000198729   -0.001807721   -0.003130770
     27        1           0.003752276    0.000871310   -0.003227747
     28        1           0.003058047   -0.001765653   -0.003728284
     29        1           0.000862386   -0.000280442   -0.001601358
     30        1           0.001282341    0.001411111   -0.001411811
     31        1          -0.000497358   -0.000546930   -0.000622104
     32        1           0.000701452    0.000863302    0.000124486
     33        1           0.000674430    0.001255396    0.000329595
     34        1           0.001139232    0.000994213    0.001885848
     35        1           0.000055470    0.000201597    0.000584395
     36        1           0.000172028    0.000185144    0.001508294
     37        1           0.000095954    0.000191362    0.001462446
 -------------------------------------------------------------------
 Cartesian Forces:  Max     0.033502177 RMS     0.005409990

 GradGradGradGradGradGradGradGradGradGradGradGradGradGradGradGradGradGrad
 Berny optimization.
 FormGI is forming the generalized inverse of G from B-inverse, IUseBI=4.
 Internal  Forces:  Max     0.034150410 RMS     0.004622720
 Search for a local minimum.
 Step number   1 out of a maximum of  189
 All quantities printed in internal units (Hartrees-Bohrs-Radians)
 Mixed Optimization -- RFO/linear search
 Second derivative matrix not updated -- first step.
 ITU=  0
     Eigenvalues ---    0.00292   0.00361   0.00412   0.00422   0.00486
     Eigenvalues ---    0.00542   0.00738   0.01110   0.01152   0.01306
     Eigenvalues ---    0.01311   0.01316   0.01405   0.02188   0.03636
     Eigenvalues ---    0.03712   0.04639   0.04843   0.04902   0.05072
     Eigenvalues ---    0.05142   0.05192   0.05219   0.05258   0.05452
     Eigenvalues ---    0.05514   0.05567   0.05617   0.05849   0.05874
     Eigenvalues ---    0.05943   0.05956   0.06036   0.07225   0.07578
     Eigenvalues ---    0.08162   0.11198   0.11255   0.11256   0.11387
     Eigenvalues ---    0.11449   0.12068   0.13721   0.13723   0.13757
     Eigenvalues ---    0.13787   0.13804   0.16000   0.16000   0.16000
     Eigenvalues ---    0.16000   0.16000   0.16000   0.16000   0.16000
     Eigenvalues ---    0.16000   0.16369   0.16683   0.21834   0.21989
     Eigenvalues ---    0.22018   0.22021   0.22025   0.22060   0.25000
     Eigenvalues ---    0.25000   0.25000   0.25000   0.25000   0.28889
     Eigenvalues ---    0.29365   0.29722   0.29796   0.30254   0.30667
     Eigenvalues ---    0.32160   0.33892   0.33892   0.33940   0.33948
     Eigenvalues ---    0.34017   0.34020   0.34073   0.34076   0.34119
     Eigenvalues ---    0.34120   0.34120   0.34130   0.34180   0.34206
     Eigenvalues ---    0.34219   0.34250   0.34285   0.34378   0.34435
     Eigenvalues ---    0.34437   0.34481   0.34481   0.39480   0.41107
     Eigenvalues ---    0.41169   0.41218   0.42204   0.52455   0.92915
 RFO step:  Lambda=-1.24859598D-02 EMin= 2.91683855D-03
 Linear search not attempted -- first point.
 Iteration  1 RMS(Cart)=  0.13474931 RMS(Int)=  0.00431710
 Iteration  2 RMS(Cart)=  0.01572241 RMS(Int)=  0.00018002
 Iteration  3 RMS(Cart)=  0.00011701 RMS(Int)=  0.00017658
 Iteration  4 RMS(Cart)=  0.00000002 RMS(Int)=  0.00017658
 Variable       Old X    -DE/DX   Delta X   Delta X   Delta X     New X
                                 (Linear)    (Quad)   (Total)
    R1        2.83851   0.00335   0.00000   0.01004   0.01004   2.84855
    R2        2.07027  -0.00328   0.00000  -0.00926  -0.00926   2.06100
    R3        2.06526   0.00024   0.00000   0.00067   0.00067   2.06593
    R4        2.06526   0.00024   0.00000   0.00067   0.00067   2.06593
    R5        2.31618  -0.03415   0.00000  -0.03627  -0.03627   2.27991
    R6        2.57466  -0.01188   0.00000  -0.02212  -0.02212   2.55254
    R7        2.72267  -0.00583   0.00000  -0.01431  -0.01431   2.70835
    R8        2.88522  -0.00559   0.00000  -0.01804  -0.01804   2.86717
    R9        2.07297  -0.00207   0.00000  -0.00586  -0.00586   2.06711
   R10        2.07301  -0.00208   0.00000  -0.00591  -0.00591   2.06710
   R11        2.69932  -0.01233   0.00000  -0.02904  -0.02904   2.67028
   R12        2.07129   0.00333   0.00000   0.00942   0.00942   2.08071
   R13        2.07127   0.00336   0.00000   0.00949   0.00949   2.08077
   R14        2.69995  -0.01032   0.00000  -0.02432  -0.02432   2.67562
   R15        2.86653  -0.00014   0.00000  -0.00043  -0.00043   2.86610
   R16        2.07127   0.00298   0.00000   0.00843   0.00843   2.07970
   R17        2.07207   0.00272   0.00000   0.00770   0.00770   2.07978
[...]
 6,-0.00000104,-0.00002316,-0.00008257,-0.00000358,0.00000497,0.0001274
 7,0.00000425,0.00006242,-0.00008418,0.00000278,-0.00002951,-0.00013154
 ,-0.00005190,-0.00029737,0.00052698,0.00021837,0.00005845,-0.00127219,
 -0.00092404,0.00019382,0.00088616,0.00079701,0.00026377,0.00219430,0.0
 0025231,0.01716964,-0.05226373,0.00301694,-0.03844600,-0.00176731,-0.0
 0258194,0.00050739,0.00000216,0.00000003,0.00000118,-0.00000030,0.0000
 0027,-0.00000025,-0.00000019,-0.00000024,-0.00000031,0.00000188,0.0000
 0030,-0.00000046,0.00000211,0.00000019,0.00000007,0.00000929,0.0000041
 7,-0.00000279,0.00000871,-0.00000272,-0.00000240,0.00000971,0.00000297
 ,0.00000361,0.00000407,-0.00000135,0.00000462,-0.00000904,-0.00000158,
 0.00002145,0.00000023,0.00002455,0.00003202,-0.00151596,-0.00008111,-0
 .00061388,0.00007441,0.00013098,-0.00008930,0.00016522,-0.00001783,-0.
 00017600,-0.00010791,-0.00005311,0.00000399,0.00048302,0.00052894,-0.0
 0059694,0.00080534,-0.00113889,0.01073012,0.05500250,0.00000195,0.0000
 0018,0.00000077,-0.00001009,0.00000127,-0.00001336,0.00000345,-0.00000
 131,0.00000582,0.00001469,-0.00000180,0.00001223,-0.00000710,0.0000031
 5,-0.00000593,-0.00002988,0.00000226,0.00000396,0.00004393,-0.00000478
 ,0.00001404,-0.00003191,-0.00000342,-0.00000414,-0.00007259,0.00004420
 ,-0.00013401,0.00027365,-0.00005117,-0.00009931,-0.00061330,0.00029018
 ,0.00015482,0.00079305,0.00074301,-0.00042120,0.00564128,-0.00157936,0
 .02650220,0.00278673,-0.04862821,0.01954930,-0.00345350,-0.00441223,0.
 00097833,0.00000063,0.00000016,0.00000027,0.00000015,-0.00000013,-0.00
 000016,-0.00000007,0.00000003,0.00000011,0.00000053,0.00000002,0.00000
 050,-0.00000002,-0.00000114,-0.00000067,0.00000295,0.00000089,-0.00000
 069,0.00000411,-0.00000246,-0.00000215,0.00000144,0.00000012,0.0000011
 4,0.00000922,-0.00000286,-0.00000165,-0.00000516,-0.00001065,0.0000196
 8,-0.00000922,-0.00001540,0.00000690,-0.00025410,0.00023351,-0.0001014
 9,0.00001578,-0.00026798,-0.00006394,0.00017074,-0.00006877,-0.0000421
 2,-0.00010426,0.00003194,-0.00007479,0.00084452,0.00099743,-0.00048058
 ,-0.00515028,0.00267318,-0.02735309,-0.00130114,0.05108124,-0.00000639
 ,0.00000042,-0.00000139,0.00003422,0.00000114,0.00003693,-0.00001287,-
 0.00000164,-0.00001532,-0.00004410,-0.00000177,-0.00003323,0.00002369,
 0.00000310,0.00001326,0.00007658,0.00000678,-0.00000691,-0.00010441,-0
 .00000703,-0.00003098,0.00007260,-0.00000501,0.00002328,0.00019585,0.0
 0007817,0.00025763,-0.00074027,-0.00051179,0.00039662,-0.00007493,0.00
 108330,-0.00110916,-0.00041034,0.00004415,-0.00024508,-0.00218867,-0.0
 0069471,-0.01057513,-0.03714131,0.02068428,-0.30218856,0.00202618,0.00
 293776,0.00047071,-0.00000161,0.00000001,-0.00000089,0.00000018,0.0000
 0029,-0.00000025,-0.00000007,-0.00000048,0.00000010,-0.00000051,-0.000
 00218,0.00000164,-0.00000102,0.00000077,0.00000047,-0.00000873,-0.0000
 0674,0.00000363,-0.00000772,0.00000392,0.00000233,-0.00001719,-0.00000
 859,-0.00000246,-0.00000726,0.00000543,-0.00000301,0.00002509,-0.00001
 237,-0.00000645,-0.00000146,-0.00001239,-0.00002017,-0.00061504,-0.001
 01647,0.00074452,0.00012653,-0.00007437,0.00002936,0.00008563,0.000020
 30,0.00012590,0.00001461,0.00002827,0.00003372,-0.00008035,0.00042941,
 0.00080962,-0.00255966,0.00135104,-0.01318738,0.04223167,-0.02411215,0
 .32935064,-0.00000700,-0.00000059,-0.00000312,0.00004165,0.00000025,0.
 00008047,-0.00000864,0.00000015,-0.00003868,-0.00006618,-0.00000102,-0
 .00006841,0.00003422,0.00000076,0.00003265,0.00011102,0.00000267,-0.00
 000405,-0.00017244,-0.00000305,-0.00009366,0.00010624,-0.00000018,0.00
 004823,0.00011611,0.00004870,0.00032904,-0.00049933,-0.00003011,-0.000
 41839,0.00053904,0.00016318,0.00060792,0.00040230,-0.00363395,0.001448
 23,-0.01628222,0.00259628,-0.00257024,-0.29768830,0.02722026,-0.041797
 51,0.00039073,0.00107864,-0.00096635,-0.00000304,0.00000007,-0.0000018
 9,0.00000041,-0.00000021,0.00000060,0.00000038,0.00000045,0.00000044,-
 0.00000305,-0.00000028,0.00000026,-0.00000313,0.00000030,-0.00000020,-
 0.00001169,-0.00000457,0.00000362,-0.00001150,0.00000354,0.00000347,-0
 .00000623,0.00000017,-0.00000542,-0.00000375,-0.00000085,-0.00000640,-
 0.00000524,0.00001604,-0.00004823,-0.00000165,-0.00002451,-0.00004205,
 -0.00003513,-0.00004916,0.00004715,-0.00005489,-0.00009260,-0.00006267
 ,-0.00111590,-0.00007646,-0.00024410,0.00040767,0.00004486,-0.00004022
 ,0.00062489,-0.00034964,-0.00027556,-0.00896357,0.00077216,-0.00183436
 ,-0.00397953,0.00064902,-0.00059201,0.32499813,-0.00000059,-0.00000015
 ,-0.00000061,0.00000407,-0.00000044,0.00001075,-0.00000032,0.00000043,
 -0.00000530,-0.00000858,0.00000073,-0.00001019,0.00000284,-0.00000089,
 0.00000674,0.00002000,-0.00000322,-0.00000328,-0.00003963,0.00000481,-
 0.00002059,0.00002638,-0.00000760,-0.00000322,0.00000542,-0.00001051,0
 .00009014,-0.00007632,0.00012022,-0.00028674,0.00015818,-0.00021679,0.
 00077789,-0.00128366,-0.00450090,0.00250155,-0.02709555,0.00266628,-0.
 00410891,0.02839080,-0.04930846,0.00418833,-0.00031484,0.00100750,-0.0
 0114612,-0.00000044,0.00000003,-0.00000020,-0.00000003,-0.00000013,0.0
 0000009,0.00000009,0.00000016,0.00000005,-0.00000058,0.00000028,-0.000
 00076,-0.00000036,0.00000017,0.00000011,-0.00000201,0.00000050,0.00000
 063,-0.00000302,0.00000126,0.00000126,0.00000319,0.00000519,-0.0000002
 5,-0.00000454,0.00000130,0.00000086,-0.00000787,0.00001555,-0.00003423
 ,0.00000045,-0.00000133,-0.00001572,0.00001615,0.00012009,-0.00023900,
 0.00000830,0.00003609,-0.00006857,-0.00171327,0.00026822,-0.00009577,-
 0.00021522,0.00017553,0.00023482,0.00054197,0.00094439,-0.00068041,0.0
 2695906,-0.00265612,0.00573013,0.00179678,-0.00116942,-0.00010448,-0.0
 2790288,0.05250333,-0.00000175,-0.00000004,-0.00000102,0.00001210,0.00
 000028,0.00002511,-0.00000232,-0.00000041,-0.00001235,-0.00002099,-0.0
 0000052,-0.00002107,0.00001083,0.00000097,0.00001004,0.00003847,0.0000
 0195,-0.00000233,-0.00005564,-0.00000185,-0.00002322,0.00003929,-0.000
 00692,0.00001752,0.00010626,0.00004521,0.00015989,-0.00043741,-0.00028
 248,0.00019255,0.00010886,0.00074319,-0.00074137,0.00126098,0.00248142
 ,-0.00110023,0.01232142,-0.00210379,0.00068993,-0.04295115,0.00421495,
 -0.05360733,0.00129288,-0.00044854,0.00078502,-0.00000105,0.00000002,-
 0.00000057,0.00000010,-0.00000008,0.00000012,0.00000004,0.00000013,0.0
 0000013,-0.00000075,-0.00000046,0.00000049,-0.00000093,0.00000011,0.00
 000005,-0.00000435,-0.00000219,0.00000149,-0.00000402,0.00000142,0.000
 00107,-0.00000835,-0.00000236,-0.00000177,-0.00000391,0.00000170,-0.00
 000168,0.00001923,-0.00000684,-0.00000331,0.00000086,-0.00000858,-0.00
 001115,0.00001241,-0.00054225,0.00040619,0.00004552,-0.00007611,0.0000
 6501,0.00087883,0.00018979,0.00041222,-0.00037330,0.00012620,0.0000358
 1,-0.00054117,-0.00023586,0.00018711,0.01490468,-0.00117638,0.00195158
 ,-0.03194465,0.00380298,-0.00468339,0.04569928,-0.00687597,0.05533346,
 0.00000125,-0.00000010,0.00000037,-0.00000927,0.00000054,-0.00001656,0
 .00000211,-0.00000043,0.00000819,0.00001453,-0.00000053,0.00001417,-0.
 00000794,0.00000076,-0.00000675,-0.00002131,-0.00000038,-0.00000004,0.
 00003223,0.00000028,0.00002238,-0.00001657,-0.00000164,-0.00001341,-0.
 00000595,0.00000908,-0.00004808,0.00001468,0.00003766,0.00011507,0.000
 00434,-0.00008573,-0.00015897,0.00094516,-0.00111525,-0.00010807,0.001
 32668,-0.00633461,-0.00391813,-0.00012862,0.00025569,0.00040370,-0.069
 37768,0.06072040,0.03901282,0.00000064,0.00000012,0.00000055,-0.000000
 10,0.00000015,-0.00000021,-0.00000015,-0.00000015,-0.00000013,0.000000
 73,-0.00000004,0.00000016,0.00000073,-0.00000009,-0.00000009,0.0000021
 3,0.00000028,-0.00000063,0.00000224,-0.00000040,-0.00000095,0.00000032
 ,-0.00000167,0.00000096,-0.00000043,0.00000238,0.00000044,0.00000003,-
 0.00000475,0.00000779,0.00000396,0.00000274,0.00001205,0.00001834,-0.0
 0000918,0.00004147,-0.00009510,0.00009276,0.00005231,-0.00000881,-0.00
 007762,0.00000379,0.00014904,0.00032589,-0.00005659,0.00045178,-0.0000
 4433,-0.00166177,0.00020811,-0.00009653,0.00025526,-0.00008583,-0.0002
 1029,-0.00005629,-0.00002070,0.00017100,0.00004468,0.07088230,-0.00000
 147,-0.00000008,-0.00000024,0.00000880,-0.00000124,0.00000462,-0.00000
 440,0.00000101,-0.00000123,-0.00001070,0.00000189,-0.00000501,0.000005
 94,-0.00000188,0.00000178,0.00001895,-0.00000482,-0.00000461,-0.000031
 36,0.00000586,-0.00000082,0.00002153,-0.00001229,-0.00001214,-0.000001
 73,-0.00001713,0.00003275,-0.00012630,0.00000292,-0.00013162,-0.000181
 57,0.00028383,0.00020298,-0.00007376,0.00022594,0.00013498,-0.00130435
 ,0.00221768,0.00159359,-0.00026976,0.00117224,0.00034396,0.06058809,-0
 .21399870,-0.10646114,-0.00000046,-0.00000019,-0.00000020,-0.00000022,
 0.00000050,-0.00000006,0.00000008,-0.00000047,-0.00000031,-0.00000015,
 -0.00000025,-0.00000008,-0.00000002,0.00000093,0.00000137,-0.00000139,
 -0.00000102,0.00000014,-0.00000275,0.00000386,0.00000139,-0.00000045,-
 0.00000151,-0.00000183,-0.00000558,0.00000829,0.00000011,0.00000016,0.
 00000376,-0.00000537,-0.00000557,0.00000300,-0.00000222,-0.00001564,0.
 00000131,0.00000063,0.00009133,-0.00002828,0.00014235,0.00007325,-0.00
 009594,-0.00008992,-0.00047007,0.00025118,-0.00025688,-0.00013347,0.00
 134694,0.00103124,0.00032235,0.00035474,-0.00031999,-0.00000691,0.0001
 8402,-0.00010323,-0.00003166,-0.00002539,-0.00001336,-0.06740229,0.231
 23637,-0.00000162,0.,-0.00000036,0.00000714,-0.00000115,0.00000604,-0.
 00000293,0.00000116,-0.00000206,-0.00000866,0.00000146,-0.00000590,0.0
 0000392,-0.00000192,0.00000249,0.00001712,-0.00000379,-0.00000323,-0.0
 0002742,0.00000482,-0.00000365,0.00002120,-0.00000819,-0.00000710,0.00
 003440,-0.00002312,0.00006349,-0.00022902,0.00012892,-0.00002650,0.000
 12544,0.00012321,-0.00001388,0.00177145,-0.00074040,0.00127173,0.00984
 230,-0.02748128,-0.01891439,-0.00004603,-0.00161862,0.00164138,0.03874
 140,-0.10588212,-0.11437067,-0.00000031,-0.00000017,-0.00000012,-0.000
 00011,0.00000012,0.00000006,0.00000011,-0.00000012,-0.00000012,-0.0000
 0006,0.00000002,-0.00000046,0.00000013,0.00000069,0.00000083,-0.000001
 52,-0.00000026,0.00000018,-0.00000275,0.00000248,0.00000132,-0.0000001
 7,0.00000023,-0.00000090,-0.00000606,0.00000514,0.00000042,0.00000003,
 0.00000663,-0.00001040,0.00000392,0.00000472,-0.00000367,-0.00000260,0
 .00002846,-0.00000742,-0.00000841,0.00017197,0.00030323,-0.00017930,0.
 00007049,0.00000479,-0.00088999,0.00063469,0.00017565,-0.00181174,0.00
 125919,-0.00634793,0.00004798,0.00113997,0.00002526,-0.00029468,0.0002
 9051,0.00041974,0.00006139,0.00013042,-0.00006226,-0.04193850,0.118155
 10,0.12788827,-0.00000664,-0.00000003,-0.00000254,0.00003918,0.0000000
 9,0.00007150,-0.00000876,-0.00000010,-0.00003412,-0.00005971,-0.000000
 52,-0.00006084,0.00003023,0.00000048,0.00002876,0.00009684,0.00000269,
 -0.00000425,-0.00015548,-0.00000260,-0.00008347,0.00009148,0.00000058,
 0.00002948,0.00002473,0.00000106,0.00029563,-0.00034873,0.00003947,-0.
 00050304,-0.00006112,0.00018927,0.00075439,0.00087110,-0.00041979,-0.0
 0253042,-0.00702131,0.00031676,0.00025416,0.00040216,-0.00022069,0.000
 82437,-0.30077597,0.02975047,-0.03147485,-0.00000262,0.00000002,-0.000
 00180,0.00000047,-0.00000037,0.00000049,0.00000039,0.00000035,0.000000
 55,-0.00000262,-0.00000028,-0.00000007,-0.00000268,0.00000004,-0.00000
 021,-0.00001013,-0.00000353,0.00000320,-0.00001022,0.00000280,0.000003
 11,-0.00000520,0.00000105,-0.00000376,-0.00000491,-0.00000108,-0.00000
 422,-0.00000195,0.00001508,-0.00003401,0.00000044,-0.00001542,-0.00003
 367,-0.00005338,0.00005511,-0.00021714,-0.00002096,-0.00005184,-0.0000
 9197,0.00041143,0.00015569,0.00010262,0.00021713,-0.00003384,0.0001550
 2,0.00047497,-0.00041473,-0.00035446,-0.00000979,-0.00002262,-0.000015
 52,0.00040274,-0.00006063,-0.00000033,0.00068013,0.00041539,-0.0002529
 1,-0.00861980,0.00035462,-0.00088618,0.32721499,0.00000092,-0.00000007
 ,0.00000040,-0.00000347,0.00000040,-0.00000671,0.00000061,-0.00000026,
 0.00000304,0.00000484,-0.00000063,0.00000557,-0.00000160,0.00000095,-0
 .00000260,-0.00000911,-0.00000064,0.00000146,0.00001854,0.00000086,0.0
 0000658,-0.00001119,-0.00000835,0.00000772,0.00002363,0.00000821,-0.00
 003925,0.00006338,0.00000200,0.00014005,0.00020247,0.00063831,-0.00019
 931,-0.00027247,0.00004484,0.00091210,0.00274482,-0.00196395,0.0000175
 5,0.00103795,0.00009192,-0.00013530,0.02938219,-0.05054107,0.00383473,
 0.00000022,0.00000010,0.00000010,-0.00000007,0.00000004,-0.00000008,-0
 .00000007,-0.00000002,0.,0.00000021,-0.00000020,0.00000009,0.00000013,
 0.00000001,0.00000001,0.00000109,0.00000044,-0.00000009,0.00000103,-0.
 00000029,-0.00000041,0.00000071,0.00000170,0.00000046,0.00000091,0.000
 00033,-0.00000018,0.00000065,-0.00000484,0.00000514,-0.00000140,0.0000
 0035,0.00000252,-0.00002041,-0.00004282,-0.00009077,0.00001765,-0.0000
 0665,0.00009579,0.00039819,0.00025379,-0.00016413,-0.00045394,0.000295
 10,-0.00005047,-0.00048557,0.00017157,0.00010680,0.00007981,-0.0000152
 3,0.00003759,-0.00020338,-0.00001425,-0.00016076,-0.00032280,0.0000450
 4,0.00034101,0.02644798,-0.00280388,0.00370999,-0.03242478,0.05017657,
 -0.00000455,-0.00000003,-0.00000241,0.00002698,-0.00000009,0.00004967,
 -0.00000634,0.00000020,-0.00002345,-0.00004519,-0.00000041,-0.00004502
 ,0.00001908,0.00000005,0.00002450,0.00008556,0.00000256,-0.00001599,-0
 .00017002,-0.00000253,-0.00005925,0.00010737,0.00000128,-0.00005694,-0
 .00012649,-0.00002834,0.00032670,-0.00063295,0.00001111,-0.00108470,-0
 .00158551,0.00026909,0.00128872,0.00011122,0.00064133,-0.00708358,-0.0
 3269372,0.00442266,-0.00394845,-0.00118759,-0.00077676,0.00143473,-0.0
 2979156,0.00370362,-0.05015840,-0.00000215,-0.00000002,-0.00000104,0.0
 0000013,-0.00000008,0.00000013,0.00000011,0.00000006,0.00000014,-0.000
 00172,-0.00000046,0.00000016,-0.00000177,0.00000038,0.00000016,-0.0000
 0994,-0.00000488,0.00000319,-0.00001025,0.00000428,0.00000329,-0.00000
 730,-0.00000626,-0.00000188,-0.00000778,0.00000600,-0.00000177,-0.0000
 0212,0.00002262,-0.00003831,-0.00000329,-0.00002059,-0.00004390,0.0000
 3257,0.00011199,-0.00007310,0.00002045,-0.00009521,-0.00000720,0.00021
 535,-0.00025076,-0.00002040,-0.00001301,0.00028301,0.00002625,0.000415
 13,-0.00045256,0.00141485,0.00016129,0.00007386,-0.00004198,0.00023582
 ,-0.00038850,0.00024518,0.00083152,0.00039921,-0.00011427,0.01678071,-
 0.00087902,0.00167405,0.03556566,-0.00466669,0.05552645,0.00000164,0.0
 0000011,0.00000086,-0.00001168,-0.00000124,-0.00002107,0.00000300,0.00
 000136,0.00001006,0.00001846,0.00000117,0.00001805,-0.00000982,-0.0000
 0152,-0.00000878,-0.00003058,-0.00000325,0.00000198,0.00004832,0.00000
 361,0.00002577,-0.00002789,-0.00000369,-0.00001024,-0.00001589,-0.0000
 1248,-0.00008726,0.00010292,0.00000328,0.00013171,0.00009037,-0.000018
 60,-0.00000885,0.00087698,0.00098370,-0.00040964,0.00176131,0.00654655
 ,-0.00256216,-0.00020769,0.00034093,-0.00100223,-0.10337763,-0.0977688
 6,0.04545088,0.00000088,-0.00000017,0.00000055,-0.00000011,-0.00000006
 ,-0.00000003,0.00000005,0.,-0.00000017,0.00000079,0.00000067,-0.000000
 44,0.00000086,-0.00000020,0.00000045,0.00000350,0.00000197,-0.00000160
 ,0.00000292,-0.00000043,-0.00000083,0.00000231,0.00000009,0.00000037,0
 .00000013,0.00000198,0.00000167,0.00000233,-0.00000206,0.00001351,-0.0
 0000071,0.00000698,0.00001410,0.00002313,0.00003341,-0.00000524,-0.000
 00701,0.00001850,0.00002953,-0.00001926,-0.00016423,-0.00021381,-0.000
 04602,0.00002563,-0.00002802,0.00006617,-0.00007720,0.00053371,-0.0000
 6216,-0.00021716,-0.00000765,0.00058837,0.00005571,-0.00024023,0.00049
 017,0.00014965,-0.00019207,0.00433694,0.00859690,-0.00433986,-0.013776
 44,-0.02621767,0.01169431,0.10917135,0.00000051,0.00000006,-0.00000016
 ,-0.00000339,-0.00000180,0.00000713,0.00000377,0.00000168,-0.00000489,
 0.00000207,0.00000177,-0.00000409,-0.00000126,-0.00000182,0.00000228,-
 0.00000692,-0.00000528,0.00000539,0.00001326,0.00000697,-0.00001465,-0
 .00001314,-0.00001326,0.00002397,0.00000494,-0.00001038,-0.00000746,0.
 00015316,0.00002560,0.00004640,0.00018481,0.00029227,-0.00005627,-0.00
 052968,-0.00023737,-0.00037243,-0.00120309,-0.00289143,-0.00008077,0.0
 0065943,0.00111735,0.00132024,-0.09707506,-0.21585084,0.07846560,-0.00
 000006,-0.00000019,-0.00000023,0.00000009,-0.00000055,0.00000043,0.000
 00033,0.00000054,0.00000028,-0.00000055,0.00000126,-0.00000136,-0.0000
 0037,-0.00000062,0.00000003,0.00000146,0.00000371,-0.00000095,0.000000
 38,-0.00000096,0.00000004,0.00000640,0.00000972,-0.00000072,0.00000157
 ,-0.00000274,0.00000067,0.00000087,0.00000631,-0.00000420,-0.00000044,
 -0.00000067,0.00000110,-0.00004952,0.00005980,-0.00020423,0.00001089,-
 0.00002914,-0.00001916,0.00069683,0.00041280,0.00011968,-0.00005532,-0
 .00000678,0.00006186,0.00023603,0.00076853,0.00038214,0.00003903,0.000
 49308,-0.00026134,-0.00041082,-0.00005142,0.00015762,-0.00007296,-0.00
 001576,-0.00016631,-0.01268170,-0.02031320,0.00989074,0.00237184,0.003
 67062,-0.00238013,0.10771664,0.23256211,0.00000029,0.00000010,0.000000
 42,-0.00000117,0.00000186,-0.00000966,-0.00000143,-0.00000183,0.000005
 45,0.00000363,-0.00000217,0.00000707,-0.00000161,0.00000267,-0.0000036
 3,-0.00000503,0.00000595,-0.00000183,0.00000864,-0.00000826,0.00001550
 ,-0.00000044,0.00001377,-0.00001268,0.00001247,0.00002463,-0.00002222,
 -0.00011033,-0.00009217,0.00007411,0.00016765,-0.00027504,0.00005299,0
 .00177812,0.00055330,0.00093117,0.01533577,0.02681315,-0.01157905,-0.0
 0259606,-0.00070154,-0.00655363,0.04437631,0.07710721,-0.08236653,0.00
 000031,0.00000019,0.00000023,0.,0.00000017,-0.00000028,-0.00000032,-0.
 00000022,-0.00000002,0.00000079,-0.00000116,0.00000103,0.00000042,0.00
 000016,-0.00000068,-0.00000058,-0.00000218,0.00000088,0.00000100,-0.00
 000107,-0.00000060,-0.00000671,-0.00000625,0.00000239,0.00000104,-0.00
 000199,0.00000016,0.00000302,-0.00001282,0.00000775,0.00000171,-0.0000
 0101,-0.00000291,0.00008777,-0.00010609,0.00025308,0.00001482,0.000009
 83,-0.00003579,-0.00101861,-0.00044704,0.00025409,-0.00012645,-0.00009
 974,0.00004158,0.00047077,-0.00054885,0.00125655,-0.00020886,0.0001686
 1,0.00008965,0.00097196,0.00195637,-0.00085549,-0.00008072,-0.00037263
 ,0.00011253,-0.00879172,-0.01335775,0.00630209,-0.00149915,-0.00371192
 ,0.00080389,-0.04878732,-0.08690623,0.09123234\\0.00000491,-0.00000139
 ,0.00000479,0.00000367,-0.00000142,-0.00001038,-0.00000516,0.00000144,
 0.00000446,0.00000288,-0.00000035,0.00000545,-0.00000026,-0.00000055,0
 .00000130,-0.00000664,0.00000035,0.00000246,0.00000082,-0.00000119,-0.
 00000383,0.00000319,-0.00000051,0.00000561,-0.00000153,-0.00000060,-0.
 00000524,0.00000038,0.00000087,0.00000372,0.00000181,-0.00000195,-0.00
 000251,-0.00000578,0.00000059,0.00000098,0.00000093,0.00000031,-0.0000
 0330,0.00000135,0.00000230,-0.00000088,-0.00000069,0.00000069,-0.00000
 069,-0.00000037,-0.00000034,-0.00000042,-0.00000124,-0.00000085,-0.000
 00021,-0.00000045,0.00000001,0.,-0.00000085,0.00000002,-0.00000070,-0.
 00000040,0.00000087,-0.00000131,0.00000093,-0.00000038,-0.00000034,0.0
 0000054,-0.00000065,0.,0.00000162,-0.00000050,0.00000051,-0.00000198,-
 0.00000074,-0.00000078,0.00000063,0.00000073,0.00000169,-0.00000045,0.
 00000119,-0.00000117,-0.00000154,0.00000141,0.00000052,0.00000164,0.00
 000102,-0.00000108,0.00000115,-0.00000048,-0.00000122,0.00000292,0.000
 00020,0.00000101,-0.00000022,-0.00000022,-0.00000085,-0.00000032,0.000
 00011,0.00000117,-0.00000185,0.00000139,0.00000019,-0.00000070,-0.0000
 0066,0.00000075,-0.00000066,-0.00000024,0.00000074,0.00000035,0.000000
 37,-0.00000023,0.00000138,-0.00000085,-0.00000019\\\@


 SCIENCE AT ITS BEST PROVIDES US WITH BETTER QUESTIONS, 
 NOT ABSOLUTE ANSWERS

                                    -- NORMAN COUSINS, 1976
 Job cpu time:       0 days  7 hours 43 minutes  0.1 seconds.
 Elapsed time:       0 days  1 hours 55 minutes 48.1 seconds.
 File lengths (MBytes):  RWF=    759 Int=      0 D2E=      0 Chk=     24 Scr=      1
 Normal termination of Gaussian 16 at Mon May 15 17:25:37 2023.
### All Done ###
