### Starting Gaussian ###
 Entering Gaussian System, Link 0=g16
 Initial command:
 /cluster/software/gaussian/gaussian-16-A.03/avx2/g16/l1.exe "/local/scratch/ks29c/Gau-30079.inp" -scrdir="/local/scratch/ks29c/"
 Entering Link 1 = /cluster/software/gaussian/gaussian-16-A.03/avx2/g16/l1.exe PID=     30082.
  
 Copyright (c) 1988,1990,1992,1993,1995,1998,2003,2009,2016,
            Gaussian, Inc.  All Rights Reserved.
  
 This is part of the Gaussian(R) 16 program.  It is based on
 the Gaussian(R) 09 system (copyright 2009, Gaussian, Inc.),
 the Gaussian(R) 03 system (copyright 2003, Gaussian, Inc.),
 the Gaussian(R) 98 system (copyright 1998, Gaussian, Inc.),
 the Gaussian(R) 94 system (copyright 1995, Gaussian, Inc.),
 the Gaussian 92(TM) system (copyright 1992, Gaussian, Inc.),
 the Gaussian 90(TM) system (copyright 1990, Gaussian, Inc.),
 the Gaussian 88(TM) system (copyright 1988, Gaussian, Inc.),
 the Gaussian 86(TM) system (copyright 1986, Carnegie Mellon
 University), and the Gaussian 82(TM) system (copyright 1983,
 Carnegie Mellon University). Gaussian is a federally registered
 trademark of Gaussian, Inc.
  
 This software contains proprietary and confidential information,
 including trade secrets, belonging to Gaussian, Inc.
  
 This software is provided under written license and may be
 used, copied, transmitted, or stored only in accord with that
 written license.
  
 The following legend is applicable only to US Government
 contracts under FAR:
  
                    RESTRICTED RIGHTS LEGEND
  
 Use, reproduction and disclosure by the US Government is
 subject to restrictions as set forth in subparagraphs (a)
 and (c) of the Commercial Computer Software - Restricted
 Rights clause in FAR 52.227-19.
  
 Gaussian, Inc.
 340 Quinnipiac St., Bldg. 40, Wallingford CT 06492
  
  
 ---------------------------------------------------------------
 Warning -- This program may not be used in any manner that
 competes with the business of Gaussian, Inc. or will provide
 assistance to any competitor of Gaussian, Inc.  The licensee
 of this program is prohibited from giving any competitor of
 Gaussian, Inc. access to this program.  By using this program,
 the user acknowledges that Gaussian, Inc. is engaged in the
 business of creating and licensing software in the field of
 computational chemistry and represents and warrants to the
 licensee that it is not a competitor of Gaussian, Inc. and that
 it will not use this program in any manner prohibited above.
 ---------------------------------------------------------------
  

 Cite this work as:
 Gaussian 16, Revision A.03,
 M. J. Frisch, G. W. Trucks, H. B. Schlegel, G. E. Scuseria, 
 M. A. Robb, J. R. Cheeseman, G. Scalmani, V. Barone, 
 G. A. Petersson, H. Nakatsuji, X. Li, M. Caricato, A. V. Marenich, 
 J. Bloino, B. G. Janesko, R. Gomperts, B. Mennucci, H. P. Hratchian, 
 J. V. Ortiz, A. F. Izmaylov, J. L. Sonnenberg, D. Williams-Young, 
 F. Ding, F. Lipparini, F. Egidi, J. Goings, B. Peng, A. Petrone, 
 T. Henderson, D. Ranasinghe, V. G. Zakrzewski, J. Gao, N. Rega, 
 G. Zheng, W. Liang, M. Hada, M. Ehara, K. Toyota, R. Fukuda, 
 J. Hasegawa, M. Ishida, T. Nakajima, Y. Honda, O. Kitao, H. Nakai, 
 T. Vreven, K. Throssell, J. A. Montgomery, Jr., J. E. Peralta, 
 F. Ogliaro, M. J. Bearpark, J. J. Heyd, E. N. Brothers, K. N. Kudin, 
 V. N. Staroverov, T. A. Keith, R. Kobayashi, J. Normand, 
 K. Raghavachari, A. P. Rendell, J. C. Burant, S. S. Iyengar, 
 J. Tomasi, M. Cossi, J. M. Millam, M. Klene, C. Adamo, R. Cammi, 
 J. W. Ochterski, R. L. Martin, K. Morokuma, O. Farkas, 
 J. B. Foresman, and D. J. Fox, Gaussian, Inc., Wallingford CT, 2016.
 
 ******************************************
 Gaussian 16:  ES64L-G16RevA.03 25-Dec-2016
                15-May-2023 
 ******************************************
 %chk=CN1C2Cc3ccccc3C1Cc1ccccc12.chk
 %NProcShared=20
 Will use up to   20 processors via shared memory.
 -----------------------------
 # opt freq b3lyp/6-31g(2df,p)
 -----------------------------
 1/18=20,19=15,26=3,38=1/1,3;
 2/9=110,12=2,17=6,18=5,40=1/2;
 3/5=1,6=6,7=104,11=2,25=1,30=1,71=1,74=-5/1,2,3;
 4//1;
 5/5=2,38=5/2;
 6/7=2,8=2,9=2,10=2,28=1/1;
 7//1,2,3,16;
 1/18=20,19=15,26=3/3(2);
 2/9=110/2;
 99//99;
 2/9=110/2;
 3/5=1,6=6,7=104,11=2,25=1,30=1,71=1,74=-5/1,2,3;
 4/5=5,16=3,69=1/1;
 5/5=2,38=5/2;
 7//1,2,3,16;
 1/18=20,19=15,26=3/3(-5);
 2/9=110/2;
 6/7=2,8=2,9=2,10=2,19=2,28=1/1;
 99/9=1/99;
 -------------------
 Title Card Required
 -------------------
 Symbolic Z-matrix:
 Charge =  0 Multiplicity = 1
 C                     1.08734   0.13436   1.00462 
 N                     2.11558   0.33816   2.27269 
 C                     3.10721   0.64447   1.15444 
 C                     3.68757  -0.75675   1.46757 
 C                     4.9749   -0.54112   2.13526 
 C                     6.11144  -1.26272   1.79516 
 C                     7.27523  -1.03478   2.48744 
 C                     7.27118  -0.08153   3.51401 
 C                     6.07592   0.63729   3.86838 
 C                     4.86561   0.37825   3.1836 
 C                     3.28649   0.99657   3.3059 
 C                     3.3601    2.52956   3.20897 
 C                     4.0045    2.87211   1.87262 
 C                     4.63658   4.06055   1.59399 
 C                     5.02376   4.32972   0.26195 
 C                     4.73027   3.42176  -0.76007 
 C                     4.14665   2.21249  -0.48308 
 C                     3.87278   1.89605   0.86177 
 H                     1.57442  -0.23768   0.0411 
 H                     0.58252   1.06181   0.66609 
 H                     0.3511   -0.65233   1.16697 
 H                     2.33961   1.44419   1.13433 
 H                     3.65336  -1.48544   0.67006 
 H                     3.21406  -1.34615   2.30388 
 H                     6.0384   -2.01131   1.0138 
 H                     8.16303  -1.60851   2.22652 
 H                     8.21405   0.07363   4.04283 
 H                     6.18228   1.35787   4.67773 
 H                     2.97208   0.66072   4.30092 
 H                     3.92738   2.97408   4.03433 
 H                     2.33041   2.90677   3.2702 
 H                     4.85288   4.78157   2.37453 
 H                     5.53386   5.25182   0.03234 
 H                     4.97788   3.66516  -1.79883 
 H                     3.85101   1.52098  -1.26759 
 

 GradGradGradGradGradGradGradGradGradGradGradGradGradGradGradGradGradGrad
 Berny optimization.
 Initialization pass.
                           ----------------------------
                           !    Initial Parameters    !
                           ! (Angstroms and Degrees)  !
 --------------------------                            --------------------------
 ! Name  Definition              Value          Derivative Info.                !
 --------------------------------------------------------------------------------
 ! R1    R(1,2)                  1.6452         estimate D2E/DX2                !
 ! R2    R(1,19)                 1.1419         estimate D2E/DX2                !
 ! R3    R(1,20)                 1.1089         estimate D2E/DX2                !
 ! R4    R(1,21)                 1.0896         estimate D2E/DX2                !
 ! R5    R(2,3)                  1.5257         estimate D2E/DX2                !
 ! R6    R(2,11)                 1.6947         estimate D2E/DX2                !
 ! R7    R(3,4)                  1.5486         estimate D2E/DX2                !
 ! R8    R(3,18)                 1.4961         estimate D2E/DX2                !
 ! R9    R(3,22)                 1.1087         estimate D2E/DX2                !
 ! R10   R(4,5)                  1.4661         estimate D2E/DX2                !
 ! R11   R(4,23)                 1.0808         estimate D2E/DX2                !
 ! R12   R(4,24)                 1.1274         estimate D2E/DX2                !
 ! R13   R(5,6)                  1.3886         estimate D2E/DX2                !
 ! R14   R(5,10)                 1.3986         estimate D2E/DX2                !
 ! R15   R(6,7)                  1.3732         estimate D2E/DX2                !
 ! R16   R(6,25)                 1.0845         estimate D2E/DX2                !
 ! R17   R(7,8)                  1.4009         estimate D2E/DX2                !
 ! R18   R(7,26)                 1.0888         estimate D2E/DX2                !
 ! R19   R(8,9)                  1.4391         estimate D2E/DX2                !
 ! R20   R(8,27)                 1.0921         estimate D2E/DX2                !
 ! R21   R(9,10)                 1.4145         estimate D2E/DX2                !
 ! R22   R(9,28)                 1.0889         estimate D2E/DX2                !
 ! R23   R(10,11)                1.7003         estimate D2E/DX2                !
 ! R24   R(11,12)                1.5378         estimate D2E/DX2                !
 ! R25   R(11,29)                1.0962         estimate D2E/DX2                !
 ! R26   R(12,13)                1.5226         estimate D2E/DX2                !
 ! R27   R(12,30)                1.0957         estimate D2E/DX2                !
 ! R28   R(12,31)                1.0983         estimate D2E/DX2                !
 ! R29   R(13,14)                1.3746         estimate D2E/DX2                !
 ! R30   R(13,18)                1.4113         estimate D2E/DX2                !
 ! R31   R(14,15)                1.413          estimate D2E/DX2                !
 ! R32   R(14,32)                1.0844         estimate D2E/DX2                !
 ! R33   R(15,16)                1.3982         estimate D2E/DX2                !
 ! R34   R(15,33)                1.0785         estimate D2E/DX2                !
 ! R35   R(16,17)                1.371          estimate D2E/DX2                !
 ! R36   R(16,34)                1.0953         estimate D2E/DX2                !
 ! R37   R(17,18)                1.4085         estimate D2E/DX2                !
 ! R38   R(17,35)                1.0868         estimate D2E/DX2                !
 ! A1    A(2,1,19)             115.0941         estimate D2E/DX2                !
 ! A2    A(2,1,20)             114.5963         estimate D2E/DX2                !
 ! A3    A(2,1,21)             113.3833         estimate D2E/DX2                !
 ! A4    A(19,1,20)            102.0686         estimate D2E/DX2                !
 ! A5    A(19,1,21)            100.2941         estimate D2E/DX2                !
 ! A6    A(20,1,21)            109.9827         estimate D2E/DX2                !
 ! A7    A(1,2,3)               82.3082         estimate D2E/DX2                !
 ! A8    A(1,2,11)             161.775          estimate D2E/DX2                !
 ! A9    A(3,2,11)              85.3991         estimate D2E/DX2                !
 ! A10   A(2,3,4)               85.0501         estimate D2E/DX2                !
 ! A11   A(2,3,18)             130.0872         estimate D2E/DX2                !
 ! A12   A(2,3,22)              73.0287         estimate D2E/DX2                !
 ! A13   A(4,3,18)             127.2094         estimate D2E/DX2                !
 ! A14   A(4,3,22)             156.3187         estimate D2E/DX2                !
 ! A15   A(18,3,22)             75.3624         estimate D2E/DX2                !
 ! A16   A(3,4,5)              106.7419         estimate D2E/DX2                !
 ! A17   A(3,4,23)             116.6771         estimate D2E/DX2                !
 ! A18   A(3,4,24)             117.7506         estimate D2E/DX2                !
 ! A19   A(5,4,23)             117.5799         estimate D2E/DX2                !
 ! A20   A(5,4,24)              96.1912         estimate D2E/DX2                !
 ! A21   A(23,4,24)            100.4627         estimate D2E/DX2                !
 ! A22   A(4,5,6)              122.0535         estimate D2E/DX2                !
 ! A23   A(4,5,10)             111.6795         estimate D2E/DX2                !
 ! A24   A(6,5,10)             126.0961         estimate D2E/DX2                !
 ! A25   A(5,6,7)              118.9438         estimate D2E/DX2                !
 ! A26   A(5,6,25)             118.6875         estimate D2E/DX2                !
 ! A27   A(7,6,25)             122.3345         estimate D2E/DX2                !
 ! A28   A(6,7,8)              118.681          estimate D2E/DX2                !
 ! A29   A(6,7,26)             118.8676         estimate D2E/DX2                !
 ! A30   A(8,7,26)             122.4477         estimate D2E/DX2                !
 ! A31   A(7,8,9)              121.516          estimate D2E/DX2                !
 ! A32   A(7,8,27)             116.6797         estimate D2E/DX2                !
 ! A33   A(9,8,27)             121.794          estimate D2E/DX2                !
 ! A34   A(8,9,10)             119.9989         estimate D2E/DX2                !
 ! A35   A(8,9,28)             115.6243         estimate D2E/DX2                !
 ! A36   A(10,9,28)            124.3752         estimate D2E/DX2                !
 ! A37   A(5,10,9)             114.6059         estimate D2E/DX2                !
 ! A38   A(5,10,11)            111.4404         estimate D2E/DX2                !
 ! A39   A(9,10,11)            133.8878         estimate D2E/DX2                !
 ! A40   A(2,11,10)            117.1649         estimate D2E/DX2                !
 ! A41   A(2,11,12)            112.4535         estimate D2E/DX2                !
 ! A42   A(2,11,29)            103.6618         estimate D2E/DX2                !
 ! A43   A(10,11,12)           108.2721         estimate D2E/DX2                !
 ! A44   A(10,11,29)           102.7237         estimate D2E/DX2                !
 ! A45   A(12,11,29)           112.1077         estimate D2E/DX2                !
 ! A46   A(11,12,13)           107.4482         estimate D2E/DX2                !
 ! A47   A(11,12,30)           112.4399         estimate D2E/DX2                !
 ! A48   A(11,12,31)           107.0962         estimate D2E/DX2                !
 ! A49   A(13,12,30)           110.5315         estimate D2E/DX2                !
 ! A50   A(13,12,31)           111.619          estimate D2E/DX2                !
 ! A51   A(30,12,31)           107.7009         estimate D2E/DX2                !
 ! A52   A(12,13,14)           124.5417         estimate D2E/DX2                !
 ! A53   A(12,13,18)           115.6914         estimate D2E/DX2                !
 ! A54   A(14,13,18)           119.7132         estimate D2E/DX2                !
 ! A55   A(13,14,15)           118.8006         estimate D2E/DX2                !
 ! A56   A(13,14,32)           121.3777         estimate D2E/DX2                !
 ! A57   A(15,14,32)           119.8163         estimate D2E/DX2                !
 ! A58   A(14,15,16)           120.5191         estimate D2E/DX2                !
 ! A59   A(14,15,33)           119.5478         estimate D2E/DX2                !
 ! A60   A(16,15,33)           119.924          estimate D2E/DX2                !
 ! A61   A(15,16,17)           120.9597         estimate D2E/DX2                !
 ! A62   A(15,16,34)           120.0975         estimate D2E/DX2                !
 ! A63   A(17,16,34)           118.9381         estimate D2E/DX2                !
 ! A64   A(16,17,18)           118.2844         estimate D2E/DX2                !
 ! A65   A(16,17,35)           122.0864         estimate D2E/DX2                !
 ! A66   A(18,17,35)           119.5658         estimate D2E/DX2                !
 ! A67   A(3,18,13)            119.092          estimate D2E/DX2                !
 ! A68   A(3,18,17)            118.3105         estimate D2E/DX2                !
 ! A69   A(13,18,17)           120.688          estimate D2E/DX2                !
 ! D1    D(19,1,2,3)            30.4724         estimate D2E/DX2                !
 ! D2    D(19,1,2,11)           78.4828         estimate D2E/DX2                !
 ! D3    D(20,1,2,3)           -87.4506         estimate D2E/DX2                !
 ! D4    D(20,1,2,11)          -39.4402         estimate D2E/DX2                !
 ! D5    D(21,1,2,3)           145.1477         estimate D2E/DX2                !
 ! D6    D(21,1,2,11)         -166.8419         estimate D2E/DX2                !
 ! D7    D(1,2,3,4)           -105.6555         estimate D2E/DX2                !
 ! D8    D(1,2,3,18)           118.2494         estimate D2E/DX2                !
 ! D9    D(1,2,3,22)            65.278          estimate D2E/DX2                !
 ! D10   D(11,2,3,4)            87.8304         estimate D2E/DX2                !
 ! D11   D(11,2,3,18)          -48.2646         estimate D2E/DX2                !
 ! D12   D(11,2,3,22)         -101.236          estimate D2E/DX2                !
 ! D13   D(1,2,11,10)          -99.5808         estimate D2E/DX2                !
 ! D14   D(1,2,11,12)           26.8162         estimate D2E/DX2                !
 ! D15   D(1,2,11,29)          148.1167         estimate D2E/DX2                !
 ! D16   D(3,2,11,10)          -51.9379         estimate D2E/DX2                !
 ! D17   D(3,2,11,12)           74.4591         estimate D2E/DX2                !
 ! D18   D(3,2,11,29)         -164.2403         estimate D2E/DX2                !
 ! D19   D(2,3,4,5)           -107.7775         estimate D2E/DX2                !
 ! D20   D(2,3,4,23)           118.4167         estimate D2E/DX2                !
 ! D21   D(2,3,4,24)            -1.1871         estimate D2E/DX2                !
 ! D22   D(18,3,4,5)            30.4516         estimate D2E/DX2                !
 ! D23   D(18,3,4,23)         -103.3543         estimate D2E/DX2                !
 ! D24   D(18,3,4,24)          137.042          estimate D2E/DX2                !
 ! D25   D(22,3,4,5)          -129.817          estimate D2E/DX2                !
 ! D26   D(22,3,4,23)           96.3771         estimate D2E/DX2                !
 ! D27   D(22,3,4,24)          -23.2267         estimate D2E/DX2                !
 ! D28   D(2,3,18,13)           17.225          estimate D2E/DX2                !
 ! D29   D(2,3,18,17)         -147.1666         estimate D2E/DX2                !
 ! D30   D(4,3,18,13)         -102.6093         estimate D2E/DX2                !
 ! D31   D(4,3,18,17)           92.9991         estimate D2E/DX2                !
 ! D32   D(22,3,18,13)          69.3342         estimate D2E/DX2                !
 ! D33   D(22,3,18,17)         -95.0574         estimate D2E/DX2                !
 ! D34   D(3,4,5,6)           -135.0634         estimate D2E/DX2                !
 ! D35   D(3,4,5,10)            49.4176         estimate D2E/DX2                !
 ! D36   D(23,4,5,6)            -1.7439         estimate D2E/DX2                !
 ! D37   D(23,4,5,10)         -177.2628         estimate D2E/DX2                !
 ! D38   D(24,4,5,6)           103.4889         estimate D2E/DX2                !
 ! D39   D(24,4,5,10)          -72.03           estimate D2E/DX2                !
 ! D40   D(4,5,6,7)           -178.2146         estimate D2E/DX2                !
 ! D41   D(4,5,6,25)            -0.2908         estimate D2E/DX2                !
 ! D42   D(10,5,6,7)            -3.3697         estimate D2E/DX2                !
 ! D43   D(10,5,6,25)          174.5541         estimate D2E/DX2                !
 ! D44   D(4,5,10,9)          -179.7369         estimate D2E/DX2                !
 ! D45   D(4,5,10,11)           -2.2723         estimate D2E/DX2                !
 ! D46   D(6,5,10,9)             4.9639         estimate D2E/DX2                !
 ! D47   D(6,5,10,11)         -177.5715         estimate D2E/DX2                !
 ! D48   D(5,6,7,8)              0.0681         estimate D2E/DX2                !
 ! D49   D(5,6,7,26)           179.3838         estimate D2E/DX2                !
 ! D50   D(25,6,7,8)          -177.7763         estimate D2E/DX2                !
 ! D51   D(25,6,7,26)            1.5394         estimate D2E/DX2                !
 ! D52   D(6,7,8,9)              1.1553         estimate D2E/DX2                !
 ! D53   D(6,7,8,27)          -179.9916         estimate D2E/DX2                !
 ! D54   D(26,7,8,9)          -178.1346         estimate D2E/DX2                !
 ! D55   D(26,7,8,27)            0.7185         estimate D2E/DX2                !
 ! D56   D(7,8,9,10)             0.6397         estimate D2E/DX2                !
 ! D57   D(7,8,9,28)          -179.8002         estimate D2E/DX2                !
 ! D58   D(27,8,9,10)         -178.1545         estimate D2E/DX2                !
 ! D59   D(27,8,9,28)            1.4056         estimate D2E/DX2                !
 ! D60   D(8,9,10,5)            -3.4164         estimate D2E/DX2                !
 ! D61   D(8,9,10,11)          179.8589         estimate D2E/DX2                !
 ! D62   D(28,9,10,5)          177.0642         estimate D2E/DX2                !
 ! D63   D(28,9,10,11)           0.3394         estimate D2E/DX2                !
 ! D64   D(5,10,11,2)            4.7835         estimate D2E/DX2                !
 ! D65   D(5,10,11,12)        -123.6431         estimate D2E/DX2                !
 ! D66   D(5,10,11,29)         117.6151         estimate D2E/DX2                !
 ! D67   D(9,10,11,2)         -178.4156         estimate D2E/DX2                !
 ! D68   D(9,10,11,12)          53.1577         estimate D2E/DX2                !
 ! D69   D(9,10,11,29)         -65.584          estimate D2E/DX2                !
 ! D70   D(2,11,12,13)         -72.1818         estimate D2E/DX2                !
 ! D71   D(2,11,12,30)         165.9775         estimate D2E/DX2                !
 ! D72   D(2,11,12,31)          47.8663         estimate D2E/DX2                !
 ! D73   D(10,11,12,13)         58.8657         estimate D2E/DX2                !
 ! D74   D(10,11,12,30)        -62.975          estimate D2E/DX2                !
 ! D75   D(10,11,12,31)        178.9138         estimate D2E/DX2                !
 ! D76   D(29,11,12,13)        171.4768         estimate D2E/DX2                !
 ! D77   D(29,11,12,30)         49.6361         estimate D2E/DX2                !
 ! D78   D(29,11,12,31)        -68.4751         estimate D2E/DX2                !
 ! D79   D(11,12,13,14)       -157.6204         estimate D2E/DX2                !
 ! D80   D(11,12,13,18)         25.0638         estimate D2E/DX2                !
 ! D81   D(30,12,13,14)        -34.5974         estimate D2E/DX2                !
 ! D82   D(30,12,13,18)        148.0868         estimate D2E/DX2                !
 ! D83   D(31,12,13,14)         85.248          estimate D2E/DX2                !
 ! D84   D(31,12,13,18)        -92.0678         estimate D2E/DX2                !
 ! D85   D(12,13,14,15)       -171.0319         estimate D2E/DX2                !
 ! D86   D(12,13,14,32)          9.8141         estimate D2E/DX2                !
 ! D87   D(18,13,14,15)          6.1829         estimate D2E/DX2                !
 ! D88   D(18,13,14,32)       -172.971          estimate D2E/DX2                !
 ! D89   D(12,13,18,3)           1.295          estimate D2E/DX2                !
 ! D90   D(12,13,18,17)        165.3059         estimate D2E/DX2                !
 ! D91   D(14,13,18,3)        -176.1593         estimate D2E/DX2                !
 ! D92   D(14,13,18,17)        -12.1485         estimate D2E/DX2                !
 ! D93   D(13,14,15,16)          2.0258         estimate D2E/DX2                !
 ! D94   D(13,14,15,33)       -179.0751         estimate D2E/DX2                !
 ! D95   D(32,14,15,16)       -178.8067         estimate D2E/DX2                !
 ! D96   D(32,14,15,33)          0.0924         estimate D2E/DX2                !
 ! D97   D(14,15,16,17)         -4.5963         estimate D2E/DX2                !
 ! D98   D(14,15,16,34)        176.1963         estimate D2E/DX2                !
 ! D99   D(33,15,16,17)        176.5088         estimate D2E/DX2                !
 ! D100  D(33,15,16,34)         -2.6986         estimate D2E/DX2                !
 ! D101  D(15,16,17,18)         -1.1933         estimate D2E/DX2                !
 ! D102  D(15,16,17,35)        175.8955         estimate D2E/DX2                !
 ! D103  D(34,16,17,18)        178.0231         estimate D2E/DX2                !
 ! D104  D(34,16,17,35)         -4.8881         estimate D2E/DX2                !
 ! D105  D(16,17,18,3)         173.6515         estimate D2E/DX2                !
 ! D106  D(16,17,18,13)          9.5185         estimate D2E/DX2                !
 ! D107  D(35,17,18,3)          -3.5129         estimate D2E/DX2                !
 ! D108  D(35,17,18,13)       -167.6459         estimate D2E/DX2                !
 --------------------------------------------------------------------------------
 Trust Radius=3.00D-01 FncErr=1.00D-07 GrdErr=1.00D-06 EigMax=2.50D+02 EigMin=1.00D-04
 Number of steps in this run=    210 maximum allowed number of steps=    210.
 GradGradGradGradGradGradGradGradGradGradGradGradGradGradGradGradGradGrad

                          Input orientation:                          
 ---------------------------------------------------------------------
 Center     Atomic      Atomic             Coordinates (Angstroms)
 Number     Number       Type             X           Y           Z
 ---------------------------------------------------------------------
      1          6           0        1.087340    0.134360    1.004620
      2          7           0        2.115580    0.338160    2.272690
      3          6           0        3.107210    0.644470    1.154440
      4          6           0        3.687570   -0.756750    1.467570
      5          6           0        4.974900   -0.541120    2.135260
      6          6           0        6.111440   -1.262720    1.795160
      7          6           0        7.275230   -1.034780    2.487440
      8          6           0        7.271180   -0.081530    3.514010
      9          6           0        6.075920    0.637290    3.868380
     10          6           0        4.865610    0.378250    3.183600
     11          6           0        3.286490    0.996570    3.305900
     12          6           0        3.360100    2.529560    3.208970
     13          6           0        4.004500    2.872110    1.872620
     14          6           0        4.636580    4.060550    1.593990
     15          6           0        5.023760    4.329720    0.261950
     16          6           0        4.730270    3.421760   -0.760070
     17          6           0        4.146650    2.212490   -0.483080
     18          6           0        3.872780    1.896050    0.861770
     19          1           0        1.574420   -0.237680    0.041100
     20          1           0        0.582520    1.061810    0.666090
     21          1           0        0.351100   -0.652330    1.166970
     22          1           0        2.339610    1.444190    1.134330
     23          1           0        3.653360   -1.485440    0.670060
     24          1           0        3.214060   -1.346150    2.303880
     25          1           0        6.038400   -2.011310    1.013800
     26          1           0        8.163030   -1.608510    2.226520
     27          1           0        8.214050    0.073630    4.042830
     28          1           0        6.182280    1.357870    4.677730
     29          1           0        2.972080    0.660720    4.300920
     30          1           0        3.927380    2.974080    4.034330
     31          1           0        2.330410    2.906770    3.270200
     32          1           0        4.852880    4.781570    2.374530
     33          1           0        5.533860    5.251820    0.032340
     34          1           0        4.977880    3.665160   -1.798830
     35          1           0        3.851010    1.520980   -1.267590
 ---------------------------------------------------------------------
                    Distance matrix (angstroms):
                    1          2          3          4          5
     1  C    0.000000
     2  N    1.645240   0.000000
     3  C    2.088668   1.525660   0.000000
     4  C    2.787399   2.078028   1.548640   0.000000
     5  C    4.104600   2.994617   2.419896   1.466126   0.000000
     6  C    5.274312   4.331022   3.615701   2.497692   1.388560
     7  C    6.469592   5.343507   4.687127   3.740152   2.378918
     8  C    6.677089   5.319514   4.840795   4.181638   2.717550
     9  C    5.774079   4.280187   4.022283   3.662165   2.367404
    10  C    4.368382   2.897245   2.698209   2.370815   1.398643
    11  C    3.297811   1.694714   2.187440   2.571858   2.566246
    12  C    3.970086   2.688435   2.799752   3.733570   3.631736
    13  C    4.093717   3.185746   2.506650   3.665124   3.558201
    14  C    5.325357   4.546676   3.768525   4.911515   4.645729
    15  C    5.800690   5.332273   4.248620   5.395470   5.218885
    16  C    5.214601   5.053991   3.743396   4.848665   4.913980
    17  C    3.986383   3.902900   2.494112   3.582203   3.888968
    18  C    3.298884   2.739611   1.496063   2.727388   2.962472
    19  H    1.141942   2.367370   2.089775   2.601856   4.005103
    20  H    1.108877   2.335617   2.605133   3.686579   4.901107
    21  H    1.089627   2.305879   3.045979   3.351611   4.725408
    22  H    1.816772   1.602921   1.108678   2.602342   3.447908
    23  H    3.052891   2.873797   2.251537   1.080825   2.187469
    24  H    2.898780   2.011102   2.301130   1.127395   1.943467
    25  H    5.396015   4.742713   3.957881   2.703004   2.133111
    26  H    7.388912   6.353212   5.637960   4.618576   3.363305
    27  H    7.747542   6.355683   5.894783   5.273568   3.809046
    28  H    6.398994   4.833433   4.730599   4.582611   3.395303
    29  H    3.833392   2.225164   3.149422   3.247925   3.185246
    30  H    5.030803   3.651584   3.793880   4.534849   4.130423
    31  H    3.790031   2.763862   3.193409   4.302643   4.491031
    32  H    6.136164   5.219873   4.653126   5.731798   5.329462
    33  H    6.848742   6.391233   5.326858   6.447603   6.188123
    34  H    5.955013   5.986565   4.620149   5.646907   5.759328
    35  H    3.837125   4.116353   2.680996   3.563126   4.134583
                    6          7          8          9         10
     6  C    0.000000
     7  C    1.373177   0.000000
     8  C    2.386347   1.400910   0.000000
     9  C    2.812391   2.478136   1.439071   0.000000
    10  C    2.484480   2.878812   2.471302   1.414523   0.000000
    11  C    3.920085   4.550418   4.133203   2.868168   1.700264
    12  C    4.893886   5.343535   4.712471   3.375083   2.625898
    13  C    4.641338   5.132199   4.699931   3.642562   2.946102
    14  C    5.527466   5.807161   5.271093   4.354682   4.017294
    15  C    5.899929   6.228947   5.923337   5.267582   4.916825
    16  C    5.511913   6.073211   6.082518   5.566561   4.983353
    17  C    4.596505   5.399700   5.567939   5.013835   4.162437
    18  C    3.982542   4.775901   4.742818   3.934210   2.946239
    19  H    4.971115   6.254533   6.673722   5.973035   4.592016
    20  H    6.103048   7.246059   7.359079   6.372780   5.014975
    21  H    5.826553   7.059284   7.329524   6.460209   5.050712
    22  H    4.689431   5.686523   5.684284   4.699588   3.422924
    23  H    2.712492   4.077243   4.811199   4.539166   3.355708
    24  H    2.942884   4.077223   4.418586   3.817321   2.544618
    25  H    1.084548   2.157539   3.390405   3.894241   3.434162
    26  H    2.124774   1.088776   2.187395   3.477837   3.966887
    27  H    3.355417   2.128190   1.092121   2.218050   3.470320
    28  H    3.896373   3.422964   2.147515   1.088850   2.219392
    29  H    4.453542   4.967950   4.433105   3.133921   2.216675
    30  H    5.266353   5.447194   4.559439   3.178734   2.888313
    31  H    5.818641   6.371795   5.779324   4.420091   3.581641
    32  H    6.201055   6.301623   5.549444   4.571922   4.477051
    33  H    6.773505   6.970023   6.601888   6.025190   5.841976
    34  H    6.203686   6.763088   6.893706   6.518509   5.970008
    35  H    4.715821   5.688360   6.093382   5.666509   4.706202
                   11         12         13         14         15
    11  C    0.000000
    12  C    1.537814   0.000000
    13  C    2.467282   1.522637   0.000000
    14  C    3.760499   2.565442   1.374609   0.000000
    15  C    4.836696   3.833180   2.399537   1.413043   0.000000
    16  C    4.949562   4.292629   2.785662   2.440989   1.398232
    17  C    4.071205   3.788196   2.450434   2.823044   2.409783
    18  C    2.669564   2.484658   1.411333   2.409273   2.758131
    19  H    3.887605   4.569647   4.350925   5.501188   5.727815
    20  H    3.779459   4.041717   4.054978   5.127265   5.528759
    21  H    3.988785   4.832005   5.125129   6.384272   6.890111
    22  H    2.410946   2.554126   2.314279   3.511794   4.036334
    23  H    3.639041   4.759442   4.534059   5.707747   5.988375
    24  H    2.549044   3.982668   4.313293   5.635593   6.297618
    25  H    4.676973   5.710653   5.359301   6.258530   6.465558
    26  H    5.633129   6.415370   6.123281   6.706280   6.998366
    27  H    5.067123   5.503430   5.501056   5.889876   6.525895
    28  H    3.224602   3.390400   3.860608   4.382136   5.447309
    29  H    1.096227   2.198972   3.442786   4.653695   5.829600
    30  H    2.202702   1.095730   2.165487   2.763809   4.155798
    31  H    2.136405   1.098316   2.181057   3.075599   4.281178
    32  H    4.200863   2.827761   2.148883   1.084388   2.167109
    33  H    5.820139   4.714542   3.374699   2.159395   1.078513
    34  H    6.003369   5.383759   3.880199   3.432790   2.165770
    35  H    4.637941   4.614956   3.421992   3.905788   3.406443
                   16         17         18         19         20
    16  C    0.000000
    17  C    1.371010   0.000000
    18  C    2.386094   1.408460   0.000000
    19  H    4.898241   3.590886   3.241722   0.000000
    20  H    4.980675   3.917611   3.400009   1.750186   0.000000
    21  H    6.284013   5.033494   4.357708   1.713485   1.800753
    22  H    3.635215   2.543952   1.621443   2.146941   1.858179
    23  H    5.223564   3.904837   3.394020   2.504893   3.989807
    24  H    5.866826   4.615278   3.609079   3.006210   3.925001
    25  H    5.863111   4.864140   4.469954   4.900921   6.271491
    26  H    6.782859   6.170355   5.705325   7.075664   8.187166
    27  H    6.812822   6.449987   5.682164   7.758572   8.403518
    28  H    5.994801   5.613210   4.492770   6.728781   6.894797
    29  H    6.027287   5.164713   3.763649   4.572378   4.368393
    30  H    4.881733   4.586403   3.351159   5.638946   5.117607
    31  H    4.718858   4.227040   3.033314   4.570139   3.638734
    32  H    3.419040   3.907028   3.402244   6.433200   5.915349
    33  H    2.150067   3.380464   3.835144   6.768445   6.517177
    34  H    1.095252   2.128941   3.380797   5.495548   5.672076
    35  H    2.154911   1.086759   2.162250   3.160446   3.825308
                   21         22         23         24         25
    21  H    0.000000
    22  H    2.889746   0.000000
    23  H    3.441789   3.244105   0.000000
    24  H    3.157608   3.149366   1.697573   0.000000
    25  H    5.849416   5.063206   2.466397   3.175475   0.000000
    26  H    7.941233   6.665139   4.772299   4.956523   2.479312
    27  H    8.403783   6.696779   5.882701   5.480841   4.272640
    28  H    7.097112   5.227738   5.526415   4.664463   4.979604
    29  H    4.291303   3.322820   4.272387   2.841523   5.229457
    30  H    5.844859   3.643018   5.592917   4.708256   6.199526
    31  H    4.583496   2.588661   5.272801   4.449937   6.559576
    32  H    7.159015   4.358065   6.604505   6.343475   7.028532
    33  H    7.937718   5.090743   7.023791   7.353542   7.346488
    34  H    6.988833   4.527318   5.863314   6.712415   6.423231
    35  H    4.785366   2.838916   3.582194   4.624017   4.739883
                   26         27         28         29         30
    26  H    0.000000
    27  H    2.476122   0.000000
    28  H    4.327957   2.486053   0.000000
    29  H    6.033117   5.281054   3.306567   0.000000
    30  H    6.496848   5.175734   2.847924   2.517003   0.000000
    31  H    7.449596   6.575778   4.383735   2.553207   1.771649
    32  H    7.198064   6.020414   4.335177   4.922377   2.622691
    33  H    7.667535   7.076800   6.096142   6.772126   4.876966
    34  H    7.359363   7.582669   6.979971   7.089206   5.967152
    35  H    6.371501   7.023639   6.388134   5.702707   5.497971
                   31         32         33         34         35
    31  H    0.000000
    32  H    3.268020   0.000000
    33  H    5.122996   2.484094   0.000000
    34  H    5.768823   4.321913   2.485918   0.000000
    35  H    4.982387   4.990013   4.294295   2.479831   0.000000
 Stoichiometry    C17H17N
 Framework group  C1[X(C17H17N)]
 Deg. of freedom    99
 Full point group                 C1      NOp   1
 Largest Abelian subgroup         C1      NOp   1
 Largest concise Abelian subgroup C1      NOp   1
                         Standard orientation:                         
 ---------------------------------------------------------------------
 Center     Atomic      Atomic             Coordinates (Angstroms)
 Number     Number       Type             X           Y           Z
 ---------------------------------------------------------------------
      1          6           0        1.317100    3.244198   -0.254570
      2          7           0        0.346366    2.299548    0.679307
      3          6           0        0.585295    1.297304   -0.445886
      4          6           0       -0.868523    1.625999   -0.866195
      5          6           0       -1.681786    0.454725   -0.525250
      6          6           0       -2.622887   -0.069327   -1.401490
      7          6           0       -3.375788   -1.145987   -1.002041
      8          6           0       -3.166233   -1.675107    0.278063
      9          6           0       -2.203879   -1.101118    1.181025
     10          6           0       -1.453217    0.031577    0.788106
     11          6           0       -0.259056    0.975114    1.546138
     12          6           0        0.855234    0.037203    2.039650
     13          6           0        1.399449   -0.703542    0.825751
     14          6           0        2.065367   -1.904870    0.879726
     15          6           0        2.685747   -2.392590   -0.292429
     16          6           0        2.658455   -1.645202   -1.473835
     17          6           0        1.953562   -0.471743   -1.549929
     18          6           0        1.235295   -0.049805   -0.414226
     19          1           0        1.251247    3.045553   -1.377172
     20          1           0        2.402344    3.124054   -0.061131
     21          1           0        1.048685    4.299902   -0.227560
     22          1           0        1.563282    1.469637    0.047074
     23          1           0       -1.003713    2.060923   -1.846372
     24          1           0       -1.443970    2.361575   -0.234685
     25          1           0       -2.760202    0.409026   -2.365113
     26          1           0       -4.120403   -1.549539   -1.686240
     27          1           0       -3.782511   -2.530906    0.561855
     28          1           0       -2.116871   -1.590454    2.149825
     29          1           0       -0.806911    1.437152    2.375650
     30          1           0        0.500495   -0.672268    2.795583
     31          1           0        1.623826    0.667075    2.507438
     32          1           0        2.110124   -2.485003    1.794789
     33          1           0        3.198679   -3.340994   -0.267503
     34          1           0        3.194116   -2.000119   -2.360783
     35          1           0        1.972415    0.156564   -2.436451
 ---------------------------------------------------------------------
 Rotational constants (GHZ):           0.5878104           0.4234958           0.3431669
 Standard basis: 6-31G(2df,p) (6D, 7F)
 There are   643 symmetry adapted cartesian basis functions of A   symmetry.
 There are   589 symmetry adapted basis functions of A   symmetry.
   589 basis functions,   911 primitive gaussians,   643 cartesian basis functions
    63 alpha electrons       63 beta electrons
       nuclear repulsion energy      1298.2734039532 Hartrees.
 NAtoms=   35 NActive=   35 NUniq=   35 SFac= 1.00D+00 NAtFMM=   60 NAOKFM=F Big=F
 Integral buffers will be    131072 words long.
 Raffenetti 2 integral format.
 Two-electron integral symmetry is turned on.
 One-electron integrals computed using PRISM.
 PrsmSu:  requested number of processors reduced to:  12 ShMem   1 Linda.
 NBasis=   589 RedAO= T EigKep=  1.18D-04  NBF=   589
 NBsUse=   589 1.00D-06 EigRej= -1.00D+00 NBFU=   589
 ExpMin= 1.61D-01 ExpMax= 4.17D+03 ExpMxC= 6.27D+02 IAcc=3 IRadAn=         5 AccDes= 0.00D+00
 Harris functional with IExCor=  402 and IRadAn=       5 diagonalized for initial guess.
 HarFok:  IExCor=  402 AccDes= 0.00D+00 IRadAn=         5 IDoV= 1 UseB2=F ITyADJ=14
 ICtDFT=  3500011 ScaDFX=  1.000000  1.000000  1.000000  1.000000
 FoFCou: FMM=F IPFlag=           0 FMFlag=      100000 FMFlg1=           0
         NFxFlg=           0 DoJE=T BraDBF=F KetDBF=T FulRan=T
         wScrn=  0.000000 ICntrl=       500 IOpCl=  0 I1Cent=   200000004 NGrid=           0
         NMat0=    1 NMatS0=      1 NMatT0=    0 NMatD0=    1 NMtDS0=    0 NMtDT0=    0
 Petite list used in FoFCou.
 Requested convergence on RMS density matrix=1.00D-08 within 128 cycles.
 Requested convergence on MAX density matrix=1.00D-06.
 Requested convergence on             energy=1.00D-06.
 No special actions if energy rises.
 Integral accuracy reduced to 1.0D-05 until final iterations.
 Initial convergence to 1.0D-05 achieved.  Increase integral accuracy.
 SCF Done:  E(RB3LYP) =  -712.391576615     A.U. after   16 cycles
            NFock= 16  Conv=0.39D-08     -V/T= 2.0081

 **********************************************************************

            Population analysis using the SCF density.

 **********************************************************************

 Orbital symmetries:
       Occupied  (A) (A) (A) (A) (A) (A) (A) (A) (A) (A) (A) (A)
                 (A) (A) (A) (A) (A) (A) (A) (A) (A) (A) (A) (A)
                 (A) (A) (A) (A) (A) (A) (A) (A) (A) (A) (A) (A)
                 (A) (A) (A) (A) (A) (A) (A) (A) (A) (A) (A) (A)
                 (A) (A) (A) (A) (A) (A) (A) (A) (A) (A) (A) (A)
                 (A) (A) (A)
       Virtual   (A) (A) (A) (A) (A) (A) (A) (A) (A) (A) (A) (A)
                 (A) (A) (A) (A) (A) (A) (A) (A) (A) (A) (A) (A)
                 (A) (A) (A) (A) (A) (A) (A) (A) (A) (A) (A) (A)
                 (A) (A) (A) (A) (A) (A) (A) (A) (A) (A) (A) (A)
                 (A) (A) (A) (A) (A) (A) (A) (A) (A) (A) (A) (A)
                 (A) (A) (A) (A) (A) (A) (A) (A) (A) (A) (A) (A)
                 (A) (A) (A) (A) (A) (A) (A) (A) (A) (A) (A) (A)
                 (A) (A) (A) (A) (A) (A) (A) (A) (A) (A) (A) (A)
                 (A) (A) (A) (A) (A) (A) (A) (A) (A) (A) (A) (A)
                 (A) (A) (A) (A) (A) (A) (A) (A) (A) (A) (A) (A)
                 (A) (A) (A) (A) (A) (A) (A) (A) (A) (A) (A) (A)
                 (A) (A) (A) (A) (A) (A) (A) (A) (A) (A) (A) (A)
                 (A) (A) (A) (A) (A) (A) (A) (A) (A) (A) (A) (A)
                 (A) (A) (A) (A) (A) (A) (A) (A) (A) (A) (A) (A)
                 (A) (A) (A) (A) (A) (A) (A) (A) (A) (A) (A) (A)
                 (A) (A) (A) (A) (A) (A) (A) (A) (A) (A) (A) (A)
                 (A) (A) (A) (A) (A) (A) (A) (A) (A) (A) (A) (A)
                 (A) (A) (A) (A) (A) (A) (A) (A) (A) (A) (A) (A)
                 (A) (A) (A) (A) (A) (A) (A) (A) (A) (A) (A) (A)
                 (A) (A) (A) (A) (A) (A) (A) (A) (A) (A) (A) (A)
                 (A) (A) (A) (A) (A) (A) (A) (A) (A) (A) (A) (A)
                 (A) (A) (A) (A) (A) (A) (A) (A) (A) (A) (A) (A)
                 (A) (A) (A) (A) (A) (A) (A) (A) (A) (A) (A) (A)
                 (A) (A) (A) (A) (A) (A) (A) (A) (A) (A) (A) (A)
                 (A) (A) (A) (A) (A) (A) (A) (A) (A) (A) (A) (A)
                 (A) (A) (A) (A) (A) (A) (A) (A) (A) (A) (A) (A)
                 (A) (A) (A) (A) (A) (A) (A) (A) (A) (A) (A) (A)
                 (A) (A) (A) (A) (A) (A) (A) (A) (A) (A) (A) (A)
                 (A) (A) (A) (A) (A) (A) (A) (A) (A) (A) (A) (A)
                 (A) (A) (A) (A) (A) (A) (A) (A) (A) (A) (A) (A)
                 (A) (A) (A) (A) (A) (A) (A) (A) (A) (A) (A) (A)
                 (A) (A) (A) (A) (A) (A) (A) (A) (A) (A) (A) (A)
                 (A) (A) (A) (A) (A) (A) (A) (A) (A) (A) (A) (A)
                 (A) (A) (A) (A) (A) (A) (A) (A) (A) (A) (A) (A)
                 (A) (A) (A) (A) (A) (A) (A) (A) (A) (A) (A) (A)
                 (A) (A) (A) (A) (A) (A) (A) (A) (A) (A) (A) (A)
                 (A) (A) (A) (A) (A) (A) (A) (A) (A) (A) (A) (A)
                 (A) (A) (A) (A) (A) (A) (A) (A) (A) (A) (A) (A)
                 (A) (A) (A) (A) (A) (A) (A) (A) (A) (A) (A) (A)
                 (A) (A) (A) (A) (A) (A) (A) (A) (A) (A) (A) (A)
                 (A) (A) (A) (A) (A) (A) (A) (A) (A) (A) (A) (A)
                 (A) (A) (A) (A) (A) (A) (A) (A) (A) (A) (A) (A)
                 (A) (A) (A) (A) (A) (A) (A) (A) (A) (A) (A) (A)
                 (A) (A) (A) (A) (A) (A) (A) (A) (A) (A)
 The electronic state is 1-A.
 Alpha  occ. eigenvalues --  -14.30777 -10.27662 -10.24482 -10.20479 -10.19827
 Alpha  occ. eigenvalues --  -10.19492 -10.18882 -10.18629 -10.18514 -10.18009
 Alpha  occ. eigenvalues --  -10.17920 -10.17822 -10.17762 -10.17403 -10.17359
 Alpha  occ. eigenvalues --  -10.17239 -10.16966 -10.16695  -0.92559  -0.84999
 Alpha  occ. eigenvalues --   -0.84378  -0.78930  -0.76934  -0.74683  -0.74217
 Alpha  occ. eigenvalues --   -0.71928  -0.69102  -0.66459  -0.62817  -0.62004
 Alpha  occ. eigenvalues --   -0.59076  -0.57776  -0.57158  -0.53286  -0.49568
 Alpha  occ. eigenvalues --   -0.48952  -0.48177  -0.46690  -0.46171  -0.44567
 Alpha  occ. eigenvalues --   -0.43691  -0.43333  -0.42335  -0.41397  -0.41165
 Alpha  occ. eigenvalues --   -0.40257  -0.39155  -0.38746  -0.38357  -0.36195
 Alpha  occ. eigenvalues --   -0.35674  -0.34588  -0.34348  -0.33230  -0.33127
 Alpha  occ. eigenvalues --   -0.32291  -0.30142  -0.24770  -0.24475  -0.23269
 Alpha  occ. eigenvalues --   -0.22914  -0.17177  -0.15255
 Alpha virt. eigenvalues --   -0.04647  -0.00806  -0.00199   0.00759   0.01759
 Alpha virt. eigenvalues --    0.05679   0.08842   0.10114   0.10348   0.11272
 Alpha virt. eigenvalues --    0.12479   0.12845   0.13300   0.14421   0.15011
 Alpha virt. eigenvalues --    0.15374   0.16106   0.17034   0.17356   0.17499
 Alpha virt. eigenvalues --    0.18067   0.18593   0.19550   0.19902   0.20900
 Alpha virt. eigenvalues --    0.21491   0.22764   0.23859   0.24368   0.26178
 Alpha virt. eigenvalues --    0.28057   0.29196   0.30621   0.31217   0.31921
 Alpha virt. eigenvalues --    0.33205   0.34123   0.35225   0.36399   0.38425
 Alpha virt. eigenvalues --    0.39262   0.42131   0.43376   0.44422   0.45306
 Alpha virt. eigenvalues --    0.46248   0.46904   0.47662   0.48238   0.48787
 Alpha virt. eigenvalues --    0.49430   0.50190   0.50560   0.51382   0.51815
 Alpha virt. eigenvalues --    0.52145   0.52696   0.52931   0.53186   0.54083
 Alpha virt. eigenvalues --    0.55442   0.56076   0.56295   0.56721   0.57843
 Alpha virt. eigenvalues --    0.58284   0.58462   0.59241   0.60831   0.61308
 Alpha virt. eigenvalues --    0.62718   0.63505   0.64087   0.64823   0.66052
 Alpha virt. eigenvalues --    0.66797   0.67903   0.68339   0.69399   0.69867
 Alpha virt. eigenvalues --    0.70956   0.71314   0.71552   0.72449   0.73554
 Alpha virt. eigenvalues --    0.73697   0.74606   0.74871   0.75402   0.75847
 Alpha virt. eigenvalues --    0.76961   0.76990   0.77761   0.78898   0.79137
 Alpha virt. eigenvalues --    0.79323   0.80740   0.81686   0.81895   0.82649
 Alpha virt. eigenvalues --    0.83115   0.83470   0.84007   0.84776   0.85962
 Alpha virt. eigenvalues --    0.86372   0.86720   0.87345   0.88593   0.89666
 Alpha virt. eigenvalues --    0.90460   0.90707   0.91232   0.92445   0.92882
 Alpha virt. eigenvalues --    0.93489   0.94326   0.95494   0.95949   0.98105
 Alpha virt. eigenvalues --    0.99202   1.00015   1.01583   1.02550   1.03288
 Alpha virt. eigenvalues --    1.04943   1.06083   1.07044   1.08279   1.09426
 Alpha virt. eigenvalues --    1.10599   1.13143   1.14663   1.15891   1.17561
 Alpha virt. eigenvalues --    1.18889   1.21468   1.22117   1.23576   1.24507
 Alpha virt. eigenvalues --    1.25641   1.26330   1.27840   1.27977   1.30625
 Alpha virt. eigenvalues --    1.31754   1.33171   1.33501   1.35797   1.35875
 Alpha virt. eigenvalues --    1.36556   1.38725   1.38868   1.39956   1.40465
 Alpha virt. eigenvalues --    1.41589   1.42490   1.44357   1.44728   1.45824
 Alpha virt. eigenvalues --    1.47146   1.47444   1.47953   1.49412   1.50745
 Alpha virt. eigenvalues --    1.51533   1.51994   1.53215   1.54688   1.55208
 Alpha virt. eigenvalues --    1.56414   1.56951   1.57849   1.58247   1.58819
 Alpha virt. eigenvalues --    1.59858   1.61113   1.62407   1.64819   1.64987
 Alpha virt. eigenvalues --    1.66457   1.67930   1.69001   1.69844   1.70147
 Alpha virt. eigenvalues --    1.71491   1.72284   1.72679   1.75133   1.76510
 Alpha virt. eigenvalues --    1.77555   1.79180   1.80190   1.81772   1.83849
 Alpha virt. eigenvalues --    1.84836   1.85879   1.87070   1.87906   1.89382
 Alpha virt. eigenvalues --    1.90235   1.90842   1.92274   1.94453   1.94914
 Alpha virt. eigenvalues --    1.95783   1.97469   1.99511   2.00997   2.01279
 Alpha virt. eigenvalues --    2.03338   2.03483   2.08131   2.09978   2.11221
 Alpha virt. eigenvalues --    2.12011   2.13050   2.13512   2.14708   2.16382
 Alpha virt. eigenvalues --    2.18390   2.20071   2.22030   2.22919   2.24205
 Alpha virt. eigenvalues --    2.24722   2.25511   2.26298   2.26860   2.29528
 Alpha virt. eigenvalues --    2.30451   2.31558   2.32858   2.34406   2.37732
 Alpha virt. eigenvalues --    2.39722   2.40055   2.43116   2.46959   2.49053
 Alpha virt. eigenvalues --    2.50106   2.50823   2.53961   2.54468   2.54962
 Alpha virt. eigenvalues --    2.58680   2.60387   2.60603   2.63201   2.64727
 Alpha virt. eigenvalues --    2.67578   2.68361   2.69841   2.71254   2.73331
 Alpha virt. eigenvalues --    2.76046   2.76349   2.77780   2.78623   2.79062
 Alpha virt. eigenvalues --    2.81221   2.81913   2.83097   2.83371   2.84722
 Alpha virt. eigenvalues --    2.86012   2.87180   2.87888   2.89029   2.89596
 Alpha virt. eigenvalues --    2.90842   2.92229   2.92642   2.93901   2.95441
 Alpha virt. eigenvalues --    2.95513   2.97392   2.98801   2.99438   3.00271
 Alpha virt. eigenvalues --    3.01253   3.01995   3.03556   3.05037   3.05388
 Alpha virt. eigenvalues --    3.05743   3.06625   3.07783   3.08927   3.09125
 Alpha virt. eigenvalues --    3.10572   3.11381   3.11859   3.12257   3.12508
 Alpha virt. eigenvalues --    3.14334   3.14768   3.15240   3.15566   3.16124
 Alpha virt. eigenvalues --    3.16356   3.17494   3.18410   3.19748   3.20120
 Alpha virt. eigenvalues --    3.21032   3.21396   3.22622   3.23406   3.24688
 Alpha virt. eigenvalues --    3.25024   3.26763   3.27229   3.28371   3.29135
 Alpha virt. eigenvalues --    3.30511   3.31298   3.32009   3.32647   3.34816
 Alpha virt. eigenvalues --    3.35536   3.36101   3.38195   3.39613   3.40470
 Alpha virt. eigenvalues --    3.40843   3.41921   3.42744   3.43157   3.44797
 Alpha virt. eigenvalues --    3.46461   3.46980   3.47538   3.49126   3.50430
 Alpha virt. eigenvalues --    3.51334   3.51652   3.52458   3.53791   3.54637
 Alpha virt. eigenvalues --    3.57075   3.57199   3.57772   3.59724   3.60553
 Alpha virt. eigenvalues --    3.62438   3.63202   3.65074   3.66347   3.67453
 Alpha virt. eigenvalues --    3.69763   3.70693   3.72492   3.75390   3.76357
 Alpha virt. eigenvalues --    3.78859   3.79137   3.80073   3.80352   3.82519
 Alpha virt. eigenvalues --    3.83395   3.84619   3.85320   3.87053   3.88525
 Alpha virt. eigenvalues --    3.89941   3.91930   3.93833   3.94240   3.95885
 Alpha virt. eigenvalues --    3.98732   4.00941   4.03181   4.03420   4.04723
 Alpha virt. eigenvalues --    4.05687   4.08943   4.09402   4.12115   4.13927
 Alpha virt. eigenvalues --    4.14730   4.16763   4.17159   4.20670   4.22326
 Alpha virt. eigenvalues --    4.25494   4.27537   4.28347   4.28874   4.29703
 Alpha virt. eigenvalues --    4.32952   4.33431   4.34068   4.35862   4.39776
 Alpha virt. eigenvalues --    4.40197   4.41851   4.43391   4.43567   4.45361
 Alpha virt. eigenvalues --    4.46666   4.47426   4.47895   4.48561   4.49310
 Alpha virt. eigenvalues --    4.50701   4.50968   4.51878   4.52867   4.53469
 Alpha virt. eigenvalues --    4.53696   4.54839   4.55156   4.56245   4.57337
 Alpha virt. eigenvalues --    4.58227   4.58649   4.58991   4.59733   4.60875
 Alpha virt. eigenvalues --    4.62026   4.63330   4.64363   4.65084   4.65586
 Alpha virt. eigenvalues --    4.66569   4.67610   4.69201   4.70112   4.70292
 Alpha virt. eigenvalues --    4.71305   4.72122   4.73493   4.74860   4.75753
 Alpha virt. eigenvalues --    4.77520   4.79784   4.80258   4.80739   4.81810
 Alpha virt. eigenvalues --    4.82717   4.83416   4.84653   4.85650   4.86766
 Alpha virt. eigenvalues --    4.88024   4.88396   4.89077   4.90414   4.91211
 Alpha virt. eigenvalues --    4.92634   4.94621   4.96265   4.99136   4.99737
 Alpha virt. eigenvalues --    5.01611   5.02153   5.05264   5.07464   5.07616
 Alpha virt. eigenvalues --    5.09418   5.12114   5.13799   5.14609   5.17329
 Alpha virt. eigenvalues --    5.19301   5.20880   5.23126   5.24370   5.26791
 Alpha virt. eigenvalues --    5.27319   5.29409   5.30481   5.32957   5.34571
 Alpha virt. eigenvalues --    5.36757   5.37248   5.38173   5.40597   5.43155
 Alpha virt. eigenvalues --    5.44780   5.46325   5.50467   5.51400   5.55703
 Alpha virt. eigenvalues --    5.58186   5.60890   5.65477   5.68885   5.71780
 Alpha virt. eigenvalues --    5.72783   5.76390   5.77725   5.79840   5.81342
 Alpha virt. eigenvalues --    5.82186   5.82640   5.91369   5.97249   5.99465
 Alpha virt. eigenvalues --    6.05241   6.13217   6.34504   7.17274   7.39807
 Alpha virt. eigenvalues --    7.91120   8.31582   9.72584   9.87434  10.47599
 Alpha virt. eigenvalues --   10.69147  10.76535  11.13845  11.32367  11.40035
 Alpha virt. eigenvalues --   11.63019  11.71276  11.85855  11.97138  12.02293
 Alpha virt. eigenvalues --   12.25373  12.67171  12.74602  12.92362  13.12574
 Alpha virt. eigenvalues --   17.98231
          Condensed to atoms (all electrons):
               1          2          3          4          5          6
     1  C    5.107529   0.375020  -0.133221  -0.025919   0.001172  -0.000015
     2  N    0.375020   7.045668   0.040855  -0.129850  -0.000615   0.000774
     3  C   -0.133221   0.040855   5.475097   0.310279   0.004356   0.003602
     4  C   -0.025919  -0.129850   0.310279   5.256489   0.366531  -0.081090
     5  C    0.001172  -0.000615   0.004356   0.366531   4.289774   0.501365
     6  C   -0.000015   0.000774   0.003602  -0.081090   0.501365   5.080683
     7  C    0.000000   0.000002  -0.000534   0.007729   0.032797   0.482367
     8  C   -0.000000   0.000015  -0.000028   0.001486  -0.047201   0.003048
     9  C   -0.000001   0.000275   0.001133   0.005776   0.003896  -0.050313
    10  C    0.000811  -0.014073  -0.045571  -0.035342   0.543168  -0.037391
    11  C   -0.021185   0.281470  -0.000941  -0.035873  -0.029290   0.005903
    12  C   -0.000353  -0.025028  -0.060838   0.007289  -0.002150  -0.000255
    13  C    0.000597  -0.006131  -0.023143  -0.001976  -0.000120   0.000272
    14  C    0.000021   0.000401   0.010930  -0.000513   0.000194   0.000020
    15  C    0.000003  -0.000016   0.000944   0.000015   0.000010  -0.000000
    16  C   -0.000028  -0.000083   0.001518  -0.000002   0.000009   0.000005
    17  C    0.000263   0.001322  -0.067154   0.006416  -0.001243  -0.000269
    18  C   -0.003111  -0.009126   0.363297  -0.039476  -0.004433  -0.000046
    19  H    0.385552  -0.021014  -0.016498   0.001232   0.000004  -0.000023
    20  H    0.358809  -0.027253   0.006697   0.000617  -0.000033   0.000001
    21  H    0.315633  -0.029429   0.017844   0.002309  -0.000047  -0.000002
    22  H   -0.052136  -0.063524   0.266601   0.023855  -0.001130  -0.000123
    23  H    0.001547   0.019439  -0.048248   0.324810  -0.012756  -0.011014
    24  H    0.001156  -0.046845   0.003588   0.345808   0.001242   0.001565
    25  H    0.000002   0.000032   0.000328  -0.012856  -0.033741   0.359466
    26  H    0.000000  -0.000000   0.000006  -0.000282   0.000921  -0.030252
    27  H   -0.000000   0.000000   0.000001   0.000009   0.002058   0.001581
    28  H    0.000000   0.000000   0.000029  -0.000256   0.002051   0.002280
    29  H    0.000757  -0.033372   0.007336  -0.001160   0.000393  -0.000052
    30  H   -0.000009   0.002535   0.000477  -0.000068   0.000294   0.000005
    31  H    0.000573  -0.000058  -0.002044  -0.000014  -0.000041   0.000003
    32  H   -0.000000   0.000002  -0.000177   0.000004  -0.000009  -0.000000
    33  H    0.000000  -0.000000   0.000011  -0.000000   0.000000   0.000000
    34  H   -0.000000   0.000001  -0.000198  -0.000001  -0.000000  -0.000000
    35  H   -0.000547  -0.000227  -0.001713   0.002321  -0.000167   0.000003
               7          8          9         10         11         12
     1  C    0.000000  -0.000000  -0.000001   0.000811  -0.021185  -0.000353
     2  N    0.000002   0.000015   0.000275  -0.014073   0.281470  -0.025028
     3  C   -0.000534  -0.000028   0.001133  -0.045571  -0.000941  -0.060838
     4  C    0.007729   0.001486   0.005776  -0.035342  -0.035873   0.007289
     5  C    0.032797  -0.047201   0.003896   0.543168  -0.029290  -0.002150
     6  C    0.482367   0.003048  -0.050313  -0.037391   0.005903  -0.000255
     7  C    4.754574   0.577011   0.005618  -0.035127   0.000293   0.000016
     8  C    0.577011   4.772679   0.530119   0.000373   0.002160  -0.000011
     9  C    0.005618   0.530119   4.997991   0.487206  -0.058321   0.001136
    10  C   -0.035127   0.000373   0.487206   4.821587   0.297600  -0.020086
    11  C    0.000293   0.002160  -0.058321   0.297600   5.035677   0.312954
    12  C    0.000016  -0.000011   0.001136  -0.020086   0.312954   5.231237
    13  C    0.000022  -0.000132   0.001708  -0.001963  -0.019413   0.362691
    14  C    0.000001  -0.000005   0.000101  -0.000505   0.004909  -0.090591
    15  C    0.000000  -0.000001  -0.000018  -0.000027  -0.000138   0.004952
    16  C   -0.000003   0.000001   0.000008   0.000002  -0.000010   0.001093
    17  C    0.000023  -0.000004  -0.000099   0.000788   0.000002   0.008869
    18  C    0.000086  -0.000051  -0.000561  -0.006275  -0.014954  -0.043089
    19  H   -0.000000  -0.000000   0.000001   0.000111   0.001522  -0.000079
    20  H    0.000000   0.000000  -0.000000  -0.000051   0.000224   0.000099
    21  H    0.000000  -0.000000  -0.000000   0.000032   0.000856   0.000066
    22  H    0.000002  -0.000003   0.000063   0.006424   0.004670   0.007946
    23  H    0.000449   0.000035  -0.000393   0.006470   0.001209  -0.000132
    24  H   -0.000539  -0.000040   0.000717  -0.014184   0.003199   0.000146
    25  H   -0.052021   0.003509   0.001328   0.005187  -0.000139  -0.000001
    26  H    0.352478  -0.039846   0.002810   0.001699   0.000009  -0.000000
    27  H   -0.035051   0.360136  -0.037691   0.001715  -0.000047  -0.000000
    28  H    0.001559  -0.040900   0.352347  -0.036457  -0.003408   0.000036
    29  H   -0.000020  -0.000074   0.001200  -0.046537   0.362248  -0.044893
    30  H    0.000001   0.000011   0.001126  -0.000953  -0.015034   0.331145
    31  H    0.000000  -0.000000  -0.000011   0.003742  -0.029258   0.349679
    32  H    0.000000   0.000001   0.000017   0.000030   0.000092  -0.009563
    33  H    0.000000   0.000000  -0.000000  -0.000000   0.000002  -0.000208
    34  H   -0.000000  -0.000000   0.000000   0.000000  -0.000000   0.000020
    35  H    0.000001  -0.000000   0.000001   0.000034   0.000017  -0.000158
              13         14         15         16         17         18
     1  C    0.000597   0.000021   0.000003  -0.000028   0.000263  -0.003111
     2  N   -0.006131   0.000401  -0.000016  -0.000083   0.001322  -0.009126
     3  C   -0.023143   0.010930   0.000944   0.001518  -0.067154   0.363297
     4  C   -0.001976  -0.000513   0.000015  -0.000002   0.006416  -0.039476
     5  C   -0.000120   0.000194   0.000010   0.000009  -0.001243  -0.004433
     6  C    0.000272   0.000020  -0.000000   0.000005  -0.000269  -0.000046
     7  C    0.000022   0.000001   0.000000  -0.000003   0.000023   0.000086
     8  C   -0.000132  -0.000005  -0.000001   0.000001  -0.000004  -0.000051
     9  C    0.001708   0.000101  -0.000018   0.000008  -0.000099  -0.000561
    10  C   -0.001963  -0.000505  -0.000027   0.000002   0.000788  -0.006275
    11  C   -0.019413   0.004909  -0.000138  -0.000010   0.000002  -0.014954
    12  C    0.362691  -0.090591   0.004952   0.001093   0.008869  -0.043089
    13  C    4.490418   0.471825   0.012681  -0.031005  -0.016460   0.568625
    14  C    0.471825   5.064773   0.510532   0.005826  -0.060398   0.013552
    15  C    0.012681   0.510532   4.791837   0.578639   0.003498  -0.048352
    16  C   -0.031005   0.005826   0.578639   4.718829   0.530310   0.007039
    17  C   -0.016460  -0.060398   0.003498   0.530310   5.003119   0.485972
    18  C    0.568625   0.013552  -0.048352   0.007039   0.485972   4.661958
    19  H    0.000237   0.000001   0.000000   0.000009   0.000268  -0.001070
    20  H   -0.000089  -0.000021   0.000003  -0.000008   0.000087   0.000660
    21  H   -0.000058  -0.000000   0.000000   0.000000  -0.000014  -0.000253
    22  H   -0.006087  -0.002501  -0.000110   0.000786  -0.002384  -0.038651
    23  H   -0.000068   0.000005   0.000000  -0.000006   0.000169   0.002553
    24  H    0.000212   0.000002  -0.000000   0.000003  -0.000045  -0.000304
    25  H   -0.000010  -0.000000   0.000000   0.000000  -0.000008   0.000056
    26  H   -0.000000   0.000000   0.000000   0.000000  -0.000000  -0.000001
    27  H   -0.000001  -0.000000   0.000000   0.000000  -0.000000  -0.000001
    28  H   -0.000014  -0.000043   0.000001  -0.000000   0.000001   0.000142
    29  H    0.003446  -0.000063   0.000002  -0.000000  -0.000041   0.001137
    30  H   -0.023964  -0.003861  -0.000005  -0.000005  -0.000096   0.001966
    31  H   -0.022158   0.000841  -0.000051   0.000030   0.000010  -0.007367
    32  H   -0.034624   0.353163  -0.043269   0.001789   0.001956   0.003808
    33  H    0.000761  -0.035845   0.356020  -0.036379   0.002116   0.002321
    34  H    0.002222   0.002201  -0.039518   0.356531  -0.036972   0.001586
    35  H    0.003371   0.001604   0.002884  -0.038175   0.355089  -0.047294
              19         20         21         22         23         24
     1  C    0.385552   0.358809   0.315633  -0.052136   0.001547   0.001156
     2  N   -0.021014  -0.027253  -0.029429  -0.063524   0.019439  -0.046845
     3  C   -0.016498   0.006697   0.017844   0.266601  -0.048248   0.003588
     4  C    0.001232   0.000617   0.002309   0.023855   0.324810   0.345808
     5  C    0.000004  -0.000033  -0.000047  -0.001130  -0.012756   0.001242
     6  C   -0.000023   0.000001  -0.000002  -0.000123  -0.011014   0.001565
     7  C   -0.000000   0.000000   0.000000   0.000002   0.000449  -0.000539
     8  C   -0.000000   0.000000  -0.000000  -0.000003   0.000035  -0.000040
     9  C    0.000001  -0.000000  -0.000000   0.000063  -0.000393   0.000717
    10  C    0.000111  -0.000051   0.000032   0.006424   0.006470  -0.014184
    11  C    0.001522   0.000224   0.000856   0.004670   0.001209   0.003199
    12  C   -0.000079   0.000099   0.000066   0.007946  -0.000132   0.000146
    13  C    0.000237  -0.000089  -0.000058  -0.006087  -0.000068   0.000212
    14  C    0.000001  -0.000021  -0.000000  -0.002501   0.000005   0.000002
    15  C    0.000000   0.000003   0.000000  -0.000110   0.000000  -0.000000
    16  C    0.000009  -0.000008   0.000000   0.000786  -0.000006   0.000003
    17  C    0.000268   0.000087  -0.000014  -0.002384   0.000169  -0.000045
    18  C   -0.001070   0.000660  -0.000253  -0.038651   0.002553  -0.000304
    19  H    0.582076  -0.049390  -0.046770  -0.004479  -0.003714   0.001469
    20  H   -0.049390   0.598387  -0.029439  -0.004058   0.000294  -0.000142
    21  H   -0.046770  -0.029439   0.647018   0.008936  -0.000753   0.000800
    22  H   -0.004479  -0.004058   0.008936   0.608857  -0.002988   0.003518
    23  H   -0.003714   0.000294  -0.000753  -0.002988   0.711999  -0.064058
    24  H    0.001469  -0.000142   0.000800   0.003518  -0.064058   0.612043
    25  H   -0.000007   0.000000  -0.000000  -0.000010   0.006821  -0.000048
    26  H    0.000000  -0.000000  -0.000000   0.000000  -0.000020   0.000014
    27  H   -0.000000   0.000000  -0.000000  -0.000000   0.000000  -0.000001
    28  H    0.000000   0.000000  -0.000000  -0.000003   0.000003   0.000005
    29  H   -0.000058  -0.000047  -0.000129  -0.001442   0.000050  -0.001087
    30  H    0.000003  -0.000014  -0.000000   0.000364  -0.000001   0.000007
    31  H    0.000008  -0.000112   0.000043   0.005855  -0.000006   0.000067
    32  H    0.000000  -0.000000   0.000000   0.000093  -0.000000  -0.000000
    33  H   -0.000000   0.000000  -0.000000  -0.000001  -0.000000   0.000000
    34  H   -0.000001  -0.000000   0.000000   0.000004  -0.000000  -0.000000
    35  H    0.000887   0.000004   0.000025   0.003105  -0.000212   0.000000
              25         26         27         28         29         30
     1  C    0.000002   0.000000  -0.000000   0.000000   0.000757  -0.000009
     2  N    0.000032  -0.000000   0.000000   0.000000  -0.033372   0.002535
     3  C    0.000328   0.000006   0.000001   0.000029   0.007336   0.000477
     4  C   -0.012856  -0.000282   0.000009  -0.000256  -0.001160  -0.000068
     5  C   -0.033741   0.000921   0.002058   0.002051   0.000393   0.000294
     6  C    0.359466  -0.030252   0.001581   0.002280  -0.000052   0.000005
     7  C   -0.052021   0.352478  -0.035051   0.001559  -0.000020   0.000001
     8  C    0.003509  -0.039846   0.360136  -0.040900  -0.000074   0.000011
     9  C    0.001328   0.002810  -0.037691   0.352347   0.001200   0.001126
    10  C    0.005187   0.001699   0.001715  -0.036457  -0.046537  -0.000953
    11  C   -0.000139   0.000009  -0.000047  -0.003408   0.362248  -0.015034
    12  C   -0.000001  -0.000000  -0.000000   0.000036  -0.044893   0.331145
    13  C   -0.000010  -0.000000  -0.000001  -0.000014   0.003446  -0.023964
    14  C   -0.000000   0.000000  -0.000000  -0.000043  -0.000063  -0.003861
    15  C    0.000000   0.000000   0.000000   0.000001   0.000002  -0.000005
    16  C    0.000000   0.000000   0.000000  -0.000000  -0.000000  -0.000005
    17  C   -0.000008  -0.000000  -0.000000   0.000001  -0.000041  -0.000096
    18  C    0.000056  -0.000001  -0.000001   0.000142   0.001137   0.001966
    19  H   -0.000007   0.000000  -0.000000   0.000000  -0.000058   0.000003
    20  H    0.000000  -0.000000   0.000000   0.000000  -0.000047  -0.000014
    21  H   -0.000000  -0.000000  -0.000000  -0.000000  -0.000129  -0.000000
    22  H   -0.000010   0.000000  -0.000000  -0.000003  -0.001442   0.000364
    23  H    0.006821  -0.000020   0.000000   0.000003   0.000050  -0.000001
    24  H   -0.000048   0.000014  -0.000001   0.000005  -0.001087   0.000007
    25  H    0.637451  -0.005230  -0.000259   0.000032   0.000006   0.000000
    26  H   -0.005230   0.627939  -0.004967  -0.000197  -0.000000   0.000000
    27  H   -0.000259  -0.004967   0.621148  -0.004873   0.000003  -0.000002
    28  H    0.000032  -0.000197  -0.004873   0.628399   0.000674   0.001969
    29  H    0.000006  -0.000000   0.000003   0.000674   0.640169  -0.001207
    30  H    0.000000   0.000000  -0.000002   0.001969  -0.001207   0.618091
    31  H   -0.000000   0.000000  -0.000000  -0.000060  -0.003232  -0.034710
    32  H   -0.000000   0.000000  -0.000000   0.000002  -0.000008   0.004472
    33  H    0.000000  -0.000000   0.000000  -0.000000  -0.000000  -0.000004
    34  H   -0.000000   0.000000  -0.000000  -0.000000   0.000000  -0.000000
    35  H   -0.000008   0.000000  -0.000000  -0.000000  -0.000001   0.000003
              31         32         33         34         35
     1  C    0.000573  -0.000000   0.000000  -0.000000  -0.000547
     2  N   -0.000058   0.000002  -0.000000   0.000001  -0.000227
     3  C   -0.002044  -0.000177   0.000011  -0.000198  -0.001713
     4  C   -0.000014   0.000004  -0.000000  -0.000001   0.002321
     5  C   -0.000041  -0.000009   0.000000  -0.000000  -0.000167
     6  C    0.000003  -0.000000   0.000000  -0.000000   0.000003
     7  C    0.000000   0.000000   0.000000  -0.000000   0.000001
     8  C   -0.000000   0.000001   0.000000  -0.000000  -0.000000
     9  C   -0.000011   0.000017  -0.000000   0.000000   0.000001
    10  C    0.003742   0.000030  -0.000000   0.000000   0.000034
    11  C   -0.029258   0.000092   0.000002  -0.000000   0.000017
    12  C    0.349679  -0.009563  -0.000208   0.000020  -0.000158
    13  C   -0.022158  -0.034624   0.000761   0.002222   0.003371
    14  C    0.000841   0.353163  -0.035845   0.002201   0.001604
    15  C   -0.000051  -0.043269   0.356020  -0.039518   0.002884
    16  C    0.000030   0.001789  -0.036379   0.356531  -0.038175
    17  C    0.000010   0.001956   0.002116  -0.036972   0.355089
    18  C   -0.007367   0.003808   0.002321   0.001586  -0.047294
    19  H    0.000008   0.000000  -0.000000  -0.000001   0.000887
    20  H   -0.000112  -0.000000   0.000000  -0.000000   0.000004
    21  H    0.000043   0.000000  -0.000000   0.000000   0.000025
    22  H    0.005855   0.000093  -0.000001   0.000004   0.003105
    23  H   -0.000006  -0.000000  -0.000000  -0.000000  -0.000212
    24  H    0.000067  -0.000000   0.000000  -0.000000   0.000000
    25  H   -0.000000  -0.000000   0.000000  -0.000000  -0.000008
    26  H    0.000000   0.000000  -0.000000   0.000000   0.000000
    27  H   -0.000000  -0.000000   0.000000  -0.000000  -0.000000
    28  H   -0.000060   0.000002  -0.000000  -0.000000  -0.000000
    29  H   -0.003232  -0.000008  -0.000000   0.000000  -0.000001
    30  H   -0.034710   0.004472  -0.000004  -0.000000   0.000003
    31  H    0.615257   0.000547   0.000002  -0.000000   0.000011
    32  H    0.000547   0.640962  -0.004907  -0.000219   0.000034
    33  H    0.000002  -0.004907   0.637955  -0.005729  -0.000237
    34  H   -0.000000  -0.000219  -0.005729   0.640141  -0.005997
    35  H    0.000011   0.000034  -0.000237  -0.005997   0.641870
 Mulliken charges:
               1
     1  C   -0.312917
     2  N   -0.361166
     3  C   -0.114623
     4  C   -0.298298
     5  C    0.382741
     6  C   -0.232098
     7  C   -0.091735
     8  C   -0.122287
     9  C   -0.247169
    10  C    0.117562
    11  C   -0.087006
    12  C   -0.321938
    13  C    0.268326
    14  C   -0.246557
    15  C   -0.130517
    16  C   -0.096724
    17  C   -0.215090
    18  C    0.149660
    19  H    0.169723
    20  H    0.144775
    21  H    0.113335
    22  H    0.238551
    23  H    0.068515
    24  H    0.151731
    25  H    0.090120
    26  H    0.094919
    27  H    0.096242
    28  H    0.096680
    29  H    0.116003
    30  H    0.117463
    31  H    0.122454
    32  H    0.085803
    33  H    0.084122
    34  H    0.085932
    35  H    0.083470
 Sum of Mulliken charges =  -0.00000
 Mulliken charges with hydrogens summed into heavy atoms:
               1
     1  C    0.114916
     2  N   -0.361166
     3  C    0.123928
     4  C   -0.078052
     5  C    0.382741
     6  C   -0.141978
     7  C    0.003185
     8  C   -0.026045
     9  C   -0.150489
    10  C    0.117562
    11  C    0.028997
    12  C   -0.082022
    13  C    0.268326
    14  C   -0.160755
    15  C   -0.046395
    16  C   -0.010792
    17  C   -0.131620
    18  C    0.149660
 Electronic spatial extent (au):  <R**2>=           3780.1492
 Charge=             -0.0000 electrons
 Dipole moment (field-independent basis, Debye):
    X=              0.1273    Y=              0.7258    Z=              0.2512  Tot=              0.7785
 Quadrupole moment (field-independent basis, Debye-Ang):
   XX=           -104.4395   YY=           -102.7612   ZZ=            -99.0386
   XY=              4.1770   XZ=              0.0239   YZ=             -5.1630
 Traceless Quadrupole moment (field-independent basis, Debye-Ang):
   XX=             -2.3597   YY=             -0.6814   ZZ=              3.0412
   XY=              4.1770   XZ=              0.0239   YZ=             -5.1630
 Octapole moment (field-independent basis, Debye-Ang**2):
  XXX=             -9.4933  YYY=              7.1268  ZZZ=              3.4416  XYY=              8.1379
  XXY=             -6.6374  XXZ=            -12.1020  XZZ=             -0.7831  YZZ=             -2.0484
  YYZ=             -6.2698  XYZ=             -1.1539
 Hexadecapole moment (field-independent basis, Debye-Ang**3):
 XXXX=          -2620.1927 YYYY=          -1660.8223 ZZZZ=           -904.1763 XXXY=             61.7643
 XXXZ=             27.2844 YYYX=             20.2312 YYYZ=            -50.0185 ZZZX=             -2.3074
 ZZZY=            -11.5098 XXYY=           -645.5314 XXZZ=           -551.5861 YYZZ=           -431.9450
 XXYZ=              8.7521 YYXZ=            -15.9317 ZZXY=             -3.4148
 N-N= 1.298273403953D+03 E-N=-4.247962162400D+03  KE= 7.066425390723D+02
 PrsmSu:  requested number of processors reduced to:  12 ShMem   1 Linda.
 Calling FoFJK, ICntrl=      2127 FMM=F ISym2X=0 I1Cent= 0 IOpClX= 0 NMat=1 NMatS=1 NMatT=0.
 ***** Axes restored to original set *****
 -------------------------------------------------------------------
 Center     Atomic                   Forces (Hartrees/Bohr)
 Number     Number              X              Y              Z
 -------------------------------------------------------------------
      1        6          -0.038663335   -0.013233850    0.021368826
      2        7          -0.022410764    0.048387541    0.013379616
      3        6           0.053233971   -0.005463164    0.008764938
      4        6           0.024034980   -0.048990049   -0.047186991
      5        6           0.008040702   -0.004950036   -0.011230824
      6        6          -0.009336416    0.003473208    0.000796300
      7        6           0.007928943    0.004260947    0.011833245
      8        6          -0.014585556    0.003079856   -0.000932739
      9        6           0.007146107   -0.006130584    0.000593238
     10        6          -0.013062520   -0.005494372   -0.021776042
     11        6           0.003906728   -0.000922822    0.044840269
     12        6           0.001139045   -0.006810125   -0.015531464
     13        6          -0.004540501   -0.005033997    0.008809139
     14        6           0.007126343    0.010276911   -0.023774349
     15        6          -0.001420565   -0.001028694    0.011657527
     16        6           0.010171807    0.013242338   -0.009006327
     17        6          -0.001315133   -0.010205271    0.010248566
     18        6           0.010511813   -0.003110249    0.023808350
     19        1           0.005676412    0.008521973    0.033405989
     20        1           0.002669362   -0.003672088    0.010651562
     21        1          -0.009332814   -0.000114379    0.020337989
     22        1          -0.019708239   -0.006201230   -0.062183934
     23        1           0.016413001   -0.004506747   -0.014283383
     24        1          -0.011638487    0.015552795   -0.024566704
     25        1           0.001728757    0.001843722   -0.001953251
     26        1           0.001087296    0.004175308    0.004093285
     27        1          -0.007814094    0.005747954    0.001715658
     28        1          -0.005759174   -0.000711682   -0.001054620
     29        1          -0.006253321    0.004797507   -0.003061595
     30        1           0.000673064   -0.004664904    0.002827169
     31        1           0.002303736    0.002435047    0.000423486
     32        1          -0.002275568    0.001437450    0.000879423
     33        1           0.001088161    0.004014097   -0.001164091
     34        1          -0.000935761    0.000597620    0.006114582
     35        1           0.004172020   -0.000600031    0.001157157
 -------------------------------------------------------------------
 Cartesian Forces:  Max     0.062183934 RMS     0.016146320

 GradGradGradGradGradGradGradGradGradGradGradGradGradGradGradGradGradGrad
 Berny optimization.
 FormGI is forming the generalized inverse of G from B-inverse, IUseBI=4.
 Internal  Forces:  Max     0.132551936 RMS     0.017934821
 Search for a local minimum.
 Step number   1 out of a maximum of  210
 All quantities printed in internal units (Hartrees-Bohrs-Radians)
 Mixed Optimization -- RFO/linear search
 Second derivative matrix not updated -- first step.
 ITU=  0
     Eigenvalues ---    0.00230   0.00365   0.00396   0.00749   0.00996
     Eigenvalues ---    0.01240   0.01265   0.01365   0.01649   0.01725
     Eigenvalues ---    0.01769   0.01845   0.01861   0.02009   0.02099
     Eigenvalues ---    0.02136   0.02185   0.02217   0.02234   0.02257
     Eigenvalues ---    0.02269   0.02322   0.02353   0.03262   0.03679
     Eigenvalues ---    0.04117   0.04665   0.05155   0.05757   0.05851
     Eigenvalues ---    0.05964   0.06481   0.06681   0.07881   0.08461
     Eigenvalues ---    0.08999   0.09598   0.11108   0.13057   0.14179
     Eigenvalues ---    0.15975   0.15987   0.15997   0.15997   0.15998
     Eigenvalues ---    0.15999   0.15999   0.16000   0.16000   0.16000
     Eigenvalues ---    0.16000   0.16136   0.17152   0.18290   0.18471
     Eigenvalues ---    0.20911   0.21760   0.21986   0.22000   0.22492
     Eigenvalues ---    0.22593   0.23026   0.23806   0.24542   0.25273
     Eigenvalues ---    0.27091   0.27858   0.29053   0.29439   0.30826
     Eigenvalues ---    0.31826   0.32719   0.32740   0.33869   0.34103
     Eigenvalues ---    0.34159   0.34213   0.34320   0.34569   0.34856
     Eigenvalues ---    0.34946   0.34954   0.35190   0.35450   0.35469
     Eigenvalues ---    0.35895   0.36175   0.37801   0.38369   0.40207
     Eigenvalues ---    0.41276   0.42390   0.43895   0.44555   0.44859
     Eigenvalues ---    0.46470   0.47969   0.49316   0.50476
 RFO step:  Lambda=-1.86682660D-01 EMin= 2.30000000D-03
 Linear search not attempted -- first point.
 Maximum step size (   0.300) exceeded in Quadratic search.
    -- Step size scaled by   0.520
 Iteration  1 RMS(Cart)=  0.10231117 RMS(Int)=  0.00292190
 Iteration  2 RMS(Cart)=  0.00521506 RMS(Int)=  0.00070653
 Iteration  3 RMS(Cart)=  0.00001254 RMS(Int)=  0.00070649
 Iteration  4 RMS(Cart)=  0.00000003 RMS(Int)=  0.00070649
 Variable       Old X    -DE/DX   Delta X   Delta X   Delta X     New X
                                 (Linear)    (Quad)   (Total)
    R1        3.10905  -0.04027   0.00000  -0.05290  -0.05290   3.05615
    R2        2.15796  -0.02854   0.00000  -0.03085  -0.03085   2.12711
    R3        2.09547  -0.00754   0.00000  -0.00763  -0.00763   2.08785
    R4        2.05910   0.00942   0.00000   0.00915   0.00915   2.06825
    R5        2.88308   0.13255   0.00000   0.15336   0.15445   3.03753
    R6        3.20255  -0.00841   0.00000  -0.02361  -0.02368   3.17886
    R7        2.92651   0.03039   0.00000   0.02957   0.02969   2.95620
    R8        2.82715   0.01362   0.00000   0.01899   0.01933   2.84648
    R9        2.09510   0.01030   0.00000   0.01042   0.01042   2.10551
[...]
 ---------------------------------------------------------------------
 Center     Atomic      Atomic             Coordinates (Angstroms)
 Number     Number       Type             X           Y           Z
 ---------------------------------------------------------------------
      1          6           0        1.170611    0.786776    2.073769
      2          7           0        2.531710    0.277512    2.026542
      3          6           0        3.190360    0.463848    0.731872
      4          6           0        4.333196   -0.566535    0.649406
      5          6           0        5.196154   -0.550081    1.890723
      6          6           0        6.449110   -1.170362    1.893188
      7          6           0        7.237682   -1.195617    3.036862
      8          6           0        6.776298   -0.592341    4.205685
      9          6           0        5.534714    0.031553    4.210343
     10          6           0        4.736828    0.061147    3.063440
     11          6           0        3.399330    0.782469    3.095235
     12          6           0        3.594686    2.316940    2.995574
     13          6           0        3.911240    2.754135    1.580238
     14          6           0        4.398518    4.041239    1.330971
     15          6           0        4.658820    4.475408    0.037323
     16          6           0        4.428940    3.617693   -1.037572
     17          6           0        3.946948    2.336647   -0.799454
     18          6           0        3.687542    1.889595    0.499496
     19          1           0        0.558634    0.243730    1.345721
     20          1           0        1.070853    1.863996    1.854732
     21          1           0        0.749177    0.602957    3.067706
     22          1           0        2.460622    0.222592   -0.049198
     23          1           0        4.945478   -0.385094   -0.240726
     24          1           0        3.884443   -1.561204    0.533818
     25          1           0        6.806460   -1.639803    0.980634
     26          1           0        8.206943   -1.683009    3.018093
     27          1           0        7.379465   -0.610487    5.107369
     28          1           0        5.171140    0.500397    5.121147
     29          1           0        2.911206    0.557424    4.050808
     30          1           0        4.388019    2.639026    3.678284
     31          1           0        2.679185    2.820041    3.334946
     32          1           0        4.575348    4.708838    2.170060
     33          1           0        5.037794    5.477697   -0.133499
     34          1           0        4.621286    3.947665   -2.053225
     35          1           0        3.762698    1.666828   -1.635881
 ---------------------------------------------------------------------
                    Distance matrix (angstroms):
                    1          2          3          4          5
     1  C    0.000000
     2  N    1.454019   0.000000
     3  C    2.446295   1.464484   0.000000
     4  C    3.723198   2.419559   1.540962   0.000000
     5  C    4.245667   2.793316   2.528674   1.511897   0.000000
     6  C    5.632545   4.178534   3.826062   2.527587   1.398090
     7  C    6.454981   5.033590   4.944453   3.812051   2.428619
     8  C    6.153923   4.849932   5.103123   4.314688   2.803158
     9  C    4.917389   3.721225   4.216946   3.805473   2.415276
    10  C    3.771457   2.446327   2.826648   2.526749   1.399945
    11  C    2.451653   1.466237   2.393883   2.945164   2.540691
    12  C    3.011191   2.495638   2.953265   3.790030   3.464852
    13  C    3.409564   2.869835   2.546529   3.474384   3.558826
    14  C    4.643562   4.258455   3.823126   4.658367   4.693588
    15  C    5.469984   5.109200   4.327977   5.089388   5.383248
    16  C    5.320831   4.913765   3.822531   4.512519   5.151103
    17  C    4.285505   3.772160   2.534711   3.267545   4.138933
    18  C    3.166936   2.503323   1.527724   2.543996   3.188014
    19  H    1.095202   2.087508   2.711319   3.922844   4.736428
    20  H    1.103781   2.163459   2.777326   4.243014   4.779871
    21  H    1.095129   2.089823   3.381546   4.478959   4.742403
    22  H    2.547434   2.077683   1.095807   2.148791   3.441432
    23  H    4.580370   3.377251   2.178781   1.095512   2.152471
    24  H    3.905040   2.727450   2.149840   1.097318   2.141062
    25  H    6.232658   4.800365   4.190872   2.716368   2.146822
    26  H    7.516752   6.085646   5.916241   4.675800   3.408716
    27  H    7.050174   5.812122   6.152055   5.399548   3.888099
    28  H    5.037138   4.073432   4.815658   4.673003   3.397024
    29  H    2.644042   2.078466   3.331969   3.854201   3.333694
    30  H    4.044380   3.427956   3.853197   4.410524   3.744176
    31  H    2.828522   2.863237   3.548090   4.627826   4.447317
    32  H    5.194621   4.881978   4.691110   5.495507   5.302797
    33  H    6.467757   6.163453   5.412999   6.135319   6.360554
    34  H    6.239428   5.872040   4.684153   5.269271   6.009568
    35  H    4.610305   4.105956   2.716797   3.245908   4.405271
                    6          7          8          9         10
     6  C    0.000000
     7  C    1.389415   0.000000
     8  C    2.405993   1.393902   0.000000
     9  C    2.765851   2.404808   1.389531   0.000000
    10  C    2.412056   2.799006   2.427182   1.397457   0.000000
    11  C    3.815708   4.318469   3.811446   2.523332   1.519940
    12  C    4.639425   5.060749   4.477828   3.234558   2.529367
    13  C    4.684058   5.365400   5.128395   4.118928   3.183343
    14  C    5.628659   6.196417   5.948772   5.065502   4.353968
    15  C    6.206778   6.914354   6.895001   6.158663   5.352493
    16  C    5.966231   6.903477   7.122234   6.451647   5.437105
    17  C    5.080379   6.166291   6.452567   5.738687   4.552336
    18  C    4.351089   5.344180   5.425519   4.542549   3.319342
    19  H    6.082523   7.038562   6.894763   5.745646   4.521194
    20  H    6.175310   6.984872   6.641738   5.369619   4.260353
    21  H    6.083863   6.733240   6.248994   4.953129   4.024293
    22  H    4.649863   5.861347   6.114999   5.256447   3.859494
    23  H    2.726012   4.080898   4.813047   4.509192   3.340685
    24  H    2.928850   4.200369   4.773272   4.333256   3.123710
    25  H    1.086659   2.147400   3.391023   3.852504   3.393330
    26  H    2.148999   1.085067   2.155614   3.391458   3.884049
    27  H    3.392637   2.156265   1.084977   2.149413   3.407678
    28  H    3.852839   3.389883   2.146784   1.086998   2.148424
    29  H    4.489692   4.776990   4.035453   2.680445   2.134029
    30  H    4.684667   4.820424   4.052624   2.897742   2.673043
    31  H    5.675766   6.082290   5.402673   4.086077   3.452406
    32  H    6.176782   6.534674   6.090193   5.192315   4.735530
    33  H    7.091964   7.708685   7.661350   6.984008   6.296826
    34  H    6.716347   7.694665   8.026811   7.443290   6.426402
    35  H    5.265053   6.488732   6.950506   6.323963   5.060708
                   11         12         13         14         15
    11  C    0.000000
    12  C    1.550064   0.000000
    13  C    2.538648   1.514767   0.000000
    14  C    3.838045   2.527896   1.398646   0.000000
    15  C    4.957312   3.813478   2.429454   1.389167   0.000000
    16  C    5.116511   4.319051   2.804759   2.406307   1.394245
    17  C    4.228943   3.811392   2.416300   2.765549   2.404424
    18  C    2.836662   2.534097   1.401954   2.413796   2.800611
    19  H    3.379437   4.029619   4.194890   5.400556   6.035772
    20  H    2.851377   2.806494   2.989229   4.010993   4.795410
    21  H    2.656368   3.322629   4.103507   5.306197   6.282070
    22  H    3.328978   3.865621   3.341866   4.499152   4.788111
    23  H    3.857773   4.427105   3.773635   4.728829   4.876881
    24  H    3.505566   4.602629   4.440480   5.682174   6.106297
    25  H    4.684813   5.480081   5.296085   6.180223   6.549657
    26  H    5.403487   6.105163   6.341036   7.079372   7.707157
    27  H    4.672311   5.230111   5.982468   6.692219   7.679428
    28  H    2.706140   3.209843   4.382318   5.244039   6.473674
    29  H    1.096371   2.162535   3.453885   4.663323   5.874761
    30  H    2.182717   1.095084   2.154614   2.734263   4.086836
    31  H    2.174344   1.098374   2.145065   2.909183   4.187304
    32  H    4.201826   2.713733   2.147043   1.086751   2.147097
    33  H    5.929119   4.675900   3.409370   2.148664   1.085073
    34  H    6.165897   5.404030   3.889825   3.392811   2.156459
    35  H    4.826758   4.679877   3.398195   3.852832   3.389805
                   16         17         18         19         20
    16  C    0.000000
    17  C    1.389278   0.000000
    18  C    2.428698   1.398005   0.000000
    19  H    5.660652   4.523577   3.635248   0.000000
    20  H    4.766300   3.942083   2.946927   1.773901   0.000000
    21  H    6.283517   5.309081   4.109151   1.769345   1.779045
    22  H    4.046958   2.690962   2.141330   2.358772   2.872388
    23  H    4.113888   2.952477   2.702692   4.707084   4.945914
    24  H    5.439367   4.120045   3.456582   3.870139   4.625267
    25  H    6.112857   5.211303   4.734532   6.535772   6.777746
    26  H    7.669365   6.991342   6.287433   8.062616   8.053473
    27  H    8.021434   7.440318   6.411958   7.836033   7.516735
    28  H    6.942493   6.318542   5.048820   5.966148   5.416753
    29  H    6.128651   5.269102   3.871587   3.598679   3.149092
    30  H    4.816509   4.509558   3.340210   5.083550   3.863884
    31  H    4.776694   4.351339   3.149967   3.884731   2.385747
    32  H    3.391303   3.852297   3.395161   6.062237   4.524825
    33  H    2.155845   3.391111   3.885659   7.045948   5.722632
    34  H    1.085095   2.149896   3.409387   6.463522   5.676212
    35  H    2.146562   1.087298   2.148281   4.602302   4.412401
                   21         22         23         24         25
    21  H    0.000000
    22  H    3.576145   0.000000
    23  H    5.434235   2.565244   0.000000
    24  H    4.575377   2.355654   1.763221   0.000000
    25  H    6.787969   4.838945   2.555243   2.957027   0.000000
    26  H    7.800408   6.786737   4.789743   4.987030   2.472743
    27  H    7.042258   7.174903   5.880240   5.834073   4.291593
    28  H    4.876565   5.844360   5.439182   5.191278   4.939491
    29  H    2.375486   4.138259   4.841886   4.219596   5.424645
    30  H    4.214208   4.842327   4.981436   5.270975   5.606652
    31  H    2.951577   4.271644   5.309841   5.338003   6.516701
    32  H    5.683626   5.433560   5.647746   6.516753   6.833582
    33  H    7.238994   5.853635   5.864498   7.163914   7.418105
    34  H    7.239077   4.749817   4.707765   6.130528   6.723026
    35  H    5.686551   2.509737   2.748784   3.891350   5.200428
                   26         27         28         29         30
    26  H    0.000000
    27  H    2.489999   0.000000
    28  H    4.290244   2.472034   0.000000
    29  H    5.842163   4.737687   2.501235   0.000000
    30  H    5.805171   4.642237   2.696083   2.579305   0.000000
    31  H    7.136803   6.082979   3.844619   2.384476   1.752358
    32  H    7.400227   6.692240   5.174443   4.851888   2.567870
    33  H    8.441075   8.367563   7.238964   6.799991   4.796869
    34  H    8.383299   8.925156   7.978572   7.188694   5.883634
    35  H    7.254806   7.983646   7.000121   5.856129   5.438433
                   31         32         33         34         35
    31  H    0.000000
    32  H    2.918895   0.000000
    33  H    4.965509   2.472122   0.000000
    34  H    5.837438   4.291577   2.489945   0.000000
    35  H    5.216611   4.939577   4.290192   2.472563   0.000000
 Stoichiometry    C17H17N
 Framework group  C1[X(C17H17N)]
 Deg. of freedom    99
 Full point group                 C1      NOp   1
 Largest Abelian subgroup         C1      NOp   1
 Largest concise Abelian subgroup C1      NOp   1
                         Standard orientation:                         
 ---------------------------------------------------------------------
 Center     Atomic      Atomic             Coordinates (Angstroms)
 Number     Number       Type             X           Y           Z
 ---------------------------------------------------------------------
      1          6           0        0.930020    3.058188   -0.159537
      2          7           0        0.019149    1.957281   -0.428776
      3          6           0        0.594712    0.901997   -1.265325
      4          6           0       -0.579488    0.137146   -1.906276
      5          6           0       -1.618217   -0.259980   -0.881987
      6          6           0       -2.591044   -1.215571   -1.190387
      7          6           0       -3.574377   -1.563974   -0.272702
      8          6           0       -3.595530   -0.953221    0.980093
      9          6           0       -2.628829   -0.006731    1.297023
     10          6           0       -1.636680    0.347849    0.378984
     11          6           0       -0.574775    1.361720    0.772229
     12          6           0        0.501142    0.713437    1.680429
     13          6           0        1.467432   -0.141910    0.887215
     14          6           0        2.326082   -1.030370    1.542629
     15          6           0        3.246311   -1.795805    0.837596
     16          6           0        3.322597   -1.678337   -0.549597
     17          6           0        2.472266   -0.799892   -1.209419
     18          6           0        1.539462   -0.029912   -0.508401
     19          1           0        1.200380    3.539946   -1.105202
     20          1           0        1.867413    2.770855    0.347481
     21          1           0        0.423520    3.803793    0.462425
     22          1           0        1.160748    1.387179   -2.068441
     23          1           0       -0.212349   -0.748038   -2.437129
     24          1           0       -1.041817    0.792547   -2.655147
     25          1           0       -2.572199   -1.690261   -2.167700
     26          1           0       -4.320897   -2.307508   -0.531999
     27          1           0       -4.361747   -1.211618    1.703500
     28          1           0       -2.644521    0.473217    2.272199
     29          1           0       -1.061639    2.167510    1.334097
     30          1           0        0.021055    0.116684    2.463124
     31          1           0        1.058582    1.504222    2.200377
     32          1           0        2.266227   -1.119135    2.624094
     33          1           0        3.902241   -2.479937    1.365897
     34          1           0        4.042288   -2.265279   -1.110821
     35          1           0        2.532163   -0.702939   -2.290728
 ---------------------------------------------------------------------
 Rotational constants (GHZ):           0.6979708           0.3569064           0.3274069
 Standard basis: 6-31G(2df,p) (6D, 7F)
 There are   643 symmetry adapted cartesian basis functions of A   symmetry.
 There are   589 symmetry adapted basis functions of A   symmetry.
   589 basis functions,   911 primitive gaussians,   643 cartesian basis functions
    63 alpha electrons       63 beta electrons
       nuclear repulsion energy      1296.1251012759 Hartrees.
 NAtoms=   35 NActive=   35 NUniq=   35 SFac= 1.00D+00 NAtFMM=   60 NAOKFM=F Big=F
 Integral buffers will be    131072 words long.
 Raffenetti 2 integral format.
 Two-electron integral symmetry is turned on.
 One-electron integrals computed using PRISM.
 PrsmSu:  requested number of processors reduced to:  12 ShMem   1 Linda.
 NBasis=   589 RedAO= T EigKep=  1.07D-04  NBF=   589
 NBsUse=   589 1.00D-06 EigRej= -1.00D+00 NBFU=   589
 Initial guess from the checkpoint file:  "CN1C2Cc3ccccc3C1Cc1ccccc12.chk"
 B after Tr=     0.000000    0.000000    0.000000
         Rot=    1.000000   -0.000000   -0.000000    0.000000 Ang=   0.00 deg.
 Requested convergence on RMS density matrix=1.00D-08 within 128 cycles.
 Requested convergence on MAX density matrix=1.00D-06.
 Requested convergence on             energy=1.00D-06.
 No special actions if energy rises.
 SCF Done:  E(RB3LYP) =  -712.848979906     A.U. after    1 cycles
            NFock=  1  Conv=0.40D-08     -V/T= 2.0084
 DoSCS=F DFT=T ScalE2(SS,OS)=  1.000000  1.000000
 Range of M.O.s used for correlation:     1   589
 NBasis=   589 NAE=    63 NBE=    63 NFC=     0 NFV=     0
 NROrb=    589 NOA=    63 NOB=    63 NVA=   526 NVB=   526

 **** Warning!!: The largest alpha MO coefficient is  0.48709327D+02

 PrsmSu:  requested number of processors reduced to:  11 ShMem   1 Linda.
 PrsmSu:  requested number of processors reduced to:   3 ShMem   1 Linda.
 Symmetrizing basis deriv contribution to polar:
 IMax=3 JMax=2 DiffMx= 0.00D+00
 G2DrvN: will do     1 centers at a time, making   36 passes.
 Calling FoFCou, ICntrl=  3107 FMM=F I1Cent=   0 AccDes= 0.00D+00.
 Calling FoFCou, ICntrl=  3107 FMM=F I1Cent=   0 AccDes= 0.00D+00.
 Calling FoFCou, ICntrl=  3107 FMM=F I1Cent=   0 AccDes= 0.00D+00.
 Calling FoFCou, ICntrl=  3107 FMM=F I1Cent=   0 AccDes= 0.00D+00.
 Calling FoFCou, ICntrl=  3107 FMM=F I1Cent=   0 AccDes= 0.00D+00.
 Calling FoFCou, ICntrl=  3107 FMM=F I1Cent=   0 AccDes= 0.00D+00.
 Calling FoFCou, ICntrl=  3107 FMM=F I1Cent=   0 AccDes= 0.00D+00.
 Calling FoFCou, ICntrl=  3107 FMM=F I1Cent=   0 AccDes= 0.00D+00.
 Calling FoFCou, ICntrl=  3107 FMM=F I1Cent=   0 AccDes= 0.00D+00.
 Calling FoFCou, ICntrl=  3107 FMM=F I1Cent=   0 AccDes= 0.00D+00.
 Calling FoFCou, ICntrl=  3107 FMM=F I1Cent=   0 AccDes= 0.00D+00.
 Calling FoFCou, ICntrl=  3107 FMM=F I1Cent=   0 AccDes= 0.00D+00.
 Calling FoFCou, ICntrl=  3107 FMM=F I1Cent=   0 AccDes= 0.00D+00.
 Calling FoFCou, ICntrl=  3107 FMM=F I1Cent=   0 AccDes= 0.00D+00.
 Calling FoFCou, ICntrl=  3107 FMM=F I1Cent=   0 AccDes= 0.00D+00.
 Calling FoFCou, ICntrl=  3107 FMM=F I1Cent=   0 AccDes= 0.00D+00.
 Calling FoFCou, ICntrl=  3107 FMM=F I1Cent=   0 AccDes= 0.00D+00.
 Calling FoFCou, ICntrl=  3107 FMM=F I1Cent=   0 AccDes= 0.00D+00.
 Calling FoFCou, ICntrl=  3107 FMM=F I1Cent=   0 AccDes= 0.00D+00.
 Calling FoFCou, ICntrl=  3107 FMM=F I1Cent=   0 AccDes= 0.00D+00.
 Calling FoFCou, ICntrl=  3107 FMM=F I1Cent=   0 AccDes= 0.00D+00.
 Calling FoFCou, ICntrl=  3107 FMM=F I1Cent=   0 AccDes= 0.00D+00.
 Calling FoFCou, ICntrl=  3107 FMM=F I1Cent=   0 AccDes= 0.00D+00.
 Calling FoFCou, ICntrl=  3107 FMM=F I1Cent=   0 AccDes= 0.00D+00.
 Calling FoFCou, ICntrl=  3107 FMM=F I1Cent=   0 AccDes= 0.00D+00.
 Calling FoFCou, ICntrl=  3107 FMM=F I1Cent=   0 AccDes= 0.00D+00.
 Calling FoFCou, ICntrl=  3107 FMM=F I1Cent=   0 AccDes= 0.00D+00.
 Calling FoFCou, ICntrl=  3107 FMM=F I1Cent=   0 AccDes= 0.00D+00.
 Calling FoFCou, ICntrl=  3107 FMM=F I1Cent=   0 AccDes= 0.00D+00.
 Calling FoFCou, ICntrl=  3107 FMM=F I1Cent=   0 AccDes= 0.00D+00.
 Calling FoFCou, ICntrl=  3107 FMM=F I1Cent=   0 AccDes= 0.00D+00.
 Calling FoFCou, ICntrl=  3107 FMM=F I1Cent=   0 AccDes= 0.00D+00.
 Calling FoFCou, ICntrl=  3107 FMM=F I1Cent=   0 AccDes= 0.00D+00.
 Calling FoFCou, ICntrl=  3107 FMM=F I1Cent=   0 AccDes= 0.00D+00.
 Calling FoFCou, ICntrl=  3107 FMM=F I1Cent=   0 AccDes= 0.00D+00.
 Calling FoFCou, ICntrl=  3107 FMM=F I1Cent=   0 AccDes= 0.00D+00.
 End of G2Drv F.D. properties file   721 does not exist.
 End of G2Drv F.D. properties file   722 does not exist.
 End of G2Drv F.D. properties file   788 does not exist.
          IDoAtm=11111111111111111111111111111111111
          Differentiating once with respect to electric field.
                with respect to dipole field.
          Differentiating once with respect to nuclear coordinates.
 CalDSu exits because no D1Ps are significant.
slurmstepd: error: *** JOB 27444142 ON lewis4-r630-hpc4rc-node352 CANCELLED AT 2023-05-15T22:08:02 DUE TO TIME LIMIT ***
