### Starting Gaussian ###
 Entering Gaussian System, Link 0=g16
 Initial command:
 /cluster/software/gaussian/gaussian-16-A.03/avx2/g16/l1.exe "/local/scratch/ks29c/Gau-29964.inp" -scrdir="/local/scratch/ks29c/"
 Entering Link 1 = /cluster/software/gaussian/gaussian-16-A.03/avx2/g16/l1.exe PID=     29966.
  
 Copyright (c) 1988,1990,1992,1993,1995,1998,2003,2009,2016,
            Gaussian, Inc.  All Rights Reserved.
  
 This is part of the Gaussian(R) 16 program.  It is based on
 the Gaussian(R) 09 system (copyright 2009, Gaussian, Inc.),
 the Gaussian(R) 03 system (copyright 2003, Gaussian, Inc.),
 the Gaussian(R) 98 system (copyright 1998, Gaussian, Inc.),
 the Gaussian(R) 94 system (copyright 1995, Gaussian, Inc.),
 the Gaussian 92(TM) system (copyright 1992, Gaussian, Inc.),
 the Gaussian 90(TM) system (copyright 1990, Gaussian, Inc.),
 the Gaussian 88(TM) system (copyright 1988, Gaussian, Inc.),
 the Gaussian 86(TM) system (copyright 1986, Carnegie Mellon
 University), and the Gaussian 82(TM) system (copyright 1983,
 Carnegie Mellon University). Gaussian is a federally registered
 trademark of Gaussian, Inc.
  
 This software contains proprietary and confidential information,
 including trade secrets, belonging to Gaussian, Inc.
  
 This software is provided under written license and may be
 used, copied, transmitted, or stored only in accord with that
 written license.
  
 The following legend is applicable only to US Government
 contracts under FAR:
  
                    RESTRICTED RIGHTS LEGEND
  
 Use, reproduction and disclosure by the US Government is
 subject to restrictions as set forth in subparagraphs (a)
 and (c) of the Commercial Computer Software - Restricted
 Rights clause in FAR 52.227-19.
  
 Gaussian, Inc.
 340 Quinnipiac St., Bldg. 40, Wallingford CT 06492
  
  
 ---------------------------------------------------------------
 Warning -- This program may not be used in any manner that
 competes with the business of Gaussian, Inc. or will provide
 assistance to any competitor of Gaussian, Inc.  The licensee
 of this program is prohibited from giving any competitor of
 Gaussian, Inc. access to this program.  By using this program,
 the user acknowledges that Gaussian, Inc. is engaged in the
 business of creating and licensing software in the field of
 computational chemistry and represents and warrants to the
 licensee that it is not a competitor of Gaussian, Inc. and that
 it will not use this program in any manner prohibited above.
 ---------------------------------------------------------------
  

 Cite this work as:
 Gaussian 16, Revision A.03,
 M. J. Frisch, G. W. Trucks, H. B. Schlegel, G. E. Scuseria, 
 M. A. Robb, J. R. Cheeseman, G. Scalmani, V. Barone, 
 G. A. Petersson, H. Nakatsuji, X. Li, M. Caricato, A. V. Marenich, 
 J. Bloino, B. G. Janesko, R. Gomperts, B. Mennucci, H. P. Hratchian, 
 J. V. Ortiz, A. F. Izmaylov, J. L. Sonnenberg, D. Williams-Young, 
 F. Ding, F. Lipparini, F. Egidi, J. Goings, B. Peng, A. Petrone, 
 T. Henderson, D. Ranasinghe, V. G. Zakrzewski, J. Gao, N. Rega, 
 G. Zheng, W. Liang, M. Hada, M. Ehara, K. Toyota, R. Fukuda, 
 J. Hasegawa, M. Ishida, T. Nakajima, Y. Honda, O. Kitao, H. Nakai, 
 T. Vreven, K. Throssell, J. A. Montgomery, Jr., J. E. Peralta, 
 F. Ogliaro, M. J. Bearpark, J. J. Heyd, E. N. Brothers, K. N. Kudin, 
 V. N. Staroverov, T. A. Keith, R. Kobayashi, J. Normand, 
 K. Raghavachari, A. P. Rendell, J. C. Burant, S. S. Iyengar, 
 J. Tomasi, M. Cossi, J. M. Millam, M. Klene, C. Adamo, R. Cammi, 
 J. W. Ochterski, R. L. Martin, K. Morokuma, O. Farkas, 
 J. B. Foresman, and D. J. Fox, Gaussian, Inc., Wallingford CT, 2016.
 
 ******************************************
 Gaussian 16:  ES64L-G16RevA.03 25-Dec-2016
                15-May-2023 
 ******************************************
 %chk=OdCqOrCSCSCCqdOrO.chk
 %NProcShared=20
 Will use up to   20 processors via shared memory.
 -----------------------------
 # opt freq b3lyp/6-31g(2df,p)
 -----------------------------
 1/18=20,19=15,26=3,38=1/1,3;
 2/9=110,12=2,17=6,18=5,40=1/2;
 3/5=1,6=6,7=104,11=2,25=1,30=1,71=1,74=-5/1,2,3;
 4//1;
 5/5=2,38=5/2;
 6/7=2,8=2,9=2,10=2,28=1/1;
 7//1,2,3,16;
 1/18=20,19=15,26=3/3(2);
 2/9=110/2;
 99//99;
 2/9=110/2;
 3/5=1,6=6,7=104,11=2,25=1,30=1,71=1,74=-5/1,2,3;
 4/5=5,16=3,69=1/1;
 5/5=2,38=5/2;
 7//1,2,3,16;
 1/18=20,19=15,26=3/3(-5);
 2/9=110/2;
 6/7=2,8=2,9=2,10=2,19=2,28=1/1;
 99/9=1/99;
 -------------------
 Title Card Required
 -------------------
 Symbolic Z-matrix:
 Charge =  0 Multiplicity = 1
 O                     0.98388   0.06032  -0.10897 
 C                     2.21086   0.06309  -0.08 
 O                     2.88341   0.17498   1.0883 
 C                     3.06381  -0.05785  -1.34285 
 S                     4.84694  -0.01996  -0.94723 
 C                     5.66401  -0.17865  -2.60417 
 S                     7.45156  -0.13939  -2.19422 
 C                     8.34328  -0.29284  -3.79652 
 C                     9.85796  -0.26584  -3.5145 
 O                     10.3789  -0.15991  -2.4085 
 O                     10.64306  -0.37108  -4.61344 
 H                     3.85662   0.16148   0.94733 
 H                     2.81193   0.78361  -1.99394 
 H                     2.81193  -1.00759  -1.82239 
 H                     5.39457   0.66661  -3.24309 
 H                     5.39457  -1.12981  -3.07105 
 H                     8.0919    0.54956  -4.4478 
 H                     8.0919   -1.24355  -4.27608 
 H                     10.20461  -0.45385  -5.47767 
 

 GradGradGradGradGradGradGradGradGradGradGradGradGradGradGradGradGradGrad
 Berny optimization.
 Initialization pass.
                           ----------------------------
                           !    Initial Parameters    !
                           ! (Angstroms and Degrees)  !
 --------------------------                            --------------------------
 ! Name  Definition              Value          Derivative Info.                !
 --------------------------------------------------------------------------------
 ! R1    R(1,2)                  1.2273         estimate D2E/DX2                !
 ! R2    R(2,3)                  1.3527         estimate D2E/DX2                !
 ! R3    R(2,4)                  1.5287         estimate D2E/DX2                !
 ! R4    R(3,12)                 0.9835         estimate D2E/DX2                !
 ! R5    R(4,5)                  1.8269         estimate D2E/DX2                !
 ! R6    R(4,13)                 1.0934         estimate D2E/DX2                !
 ! R7    R(4,14)                 1.0933         estimate D2E/DX2                !
 ! R8    R(5,6)                  1.8542         estimate D2E/DX2                !
 ! R9    R(6,7)                  1.8344         estimate D2E/DX2                !
 ! R10   R(6,15)                 1.0933         estimate D2E/DX2                !
 ! R11   R(6,16)                 1.0933         estimate D2E/DX2                !
 ! R12   R(7,8)                  1.8401         estimate D2E/DX2                !
 ! R13   R(8,9)                  1.5409         estimate D2E/DX2                !
 ! R14   R(8,17)                 1.0941         estimate D2E/DX2                !
 ! R15   R(8,18)                 1.0941         estimate D2E/DX2                !
 ! R16   R(9,10)                 1.2271         estimate D2E/DX2                !
 ! R17   R(9,11)                 1.3547         estimate D2E/DX2                !
 ! R18   R(11,19)                0.9726         estimate D2E/DX2                !
 ! A1    A(1,2,3)              121.1733         estimate D2E/DX2                !
 ! A2    A(1,2,4)              122.5558         estimate D2E/DX2                !
 ! A3    A(3,2,4)              116.2709         estimate D2E/DX2                !
 ! A4    A(2,3,12)             111.5354         estimate D2E/DX2                !
 ! A5    A(2,4,5)              111.3496         estimate D2E/DX2                !
 ! A6    A(2,4,13)             107.6085         estimate D2E/DX2                !
 ! A7    A(2,4,14)             107.6081         estimate D2E/DX2                !
 ! A8    A(5,4,13)             109.7461         estimate D2E/DX2                !
 ! A9    A(5,4,14)             109.7462         estimate D2E/DX2                !
 ! A10   A(13,4,14)            110.7488         estimate D2E/DX2                !
 ! A11   A(4,5,6)              103.5803         estimate D2E/DX2                !
 ! A12   A(5,6,7)              103.1715         estimate D2E/DX2                !
 ! A13   A(5,6,15)             110.3316         estimate D2E/DX2                !
 ! A14   A(5,6,16)             110.332          estimate D2E/DX2                !
 ! A15   A(7,6,15)             110.7453         estimate D2E/DX2                !
 ! A16   A(7,6,16)             110.7453         estimate D2E/DX2                !
 ! A17   A(15,6,16)            111.2431         estimate D2E/DX2                !
 ! A18   A(6,7,8)              106.0123         estimate D2E/DX2                !
 ! A19   A(7,8,9)              108.3917         estimate D2E/DX2                !
 ! A20   A(7,8,17)             110.047          estimate D2E/DX2                !
 ! A21   A(7,8,18)             110.047          estimate D2E/DX2                !
 ! A22   A(9,8,17)             108.7418         estimate D2E/DX2                !
 ! A23   A(9,8,18)             108.7411         estimate D2E/DX2                !
 ! A24   A(17,8,18)            110.815          estimate D2E/DX2                !
 ! A25   A(8,9,10)             125.7147         estimate D2E/DX2                !
 ! A26   A(8,9,11)             114.8247         estimate D2E/DX2                !
 ! A27   A(10,9,11)            119.4607         estimate D2E/DX2                !
 ! A28   A(9,11,19)            117.7863         estimate D2E/DX2                !
 ! D1    D(1,2,3,12)          -179.9997         estimate D2E/DX2                !
 ! D2    D(4,2,3,12)            -0.0002         estimate D2E/DX2                !
 ! D3    D(1,2,4,5)            179.9997         estimate D2E/DX2                !
 ! D4    D(1,2,4,13)            59.6924         estimate D2E/DX2                !
 ! D5    D(1,2,4,14)           -59.6933         estimate D2E/DX2                !
 ! D6    D(3,2,4,5)              0.0001         estimate D2E/DX2                !
 ! D7    D(3,2,4,13)          -120.3071         estimate D2E/DX2                !
 ! D8    D(3,2,4,14)           120.3072         estimate D2E/DX2                !
 ! D9    D(2,4,5,6)            179.9997         estimate D2E/DX2                !
 ! D10   D(13,4,5,6)           -60.9613         estimate D2E/DX2                !
 ! D11   D(14,4,5,6)            60.9613         estimate D2E/DX2                !
 ! D12   D(4,5,6,7)           -179.9999         estimate D2E/DX2                !
 ! D13   D(4,5,6,15)            61.6623         estimate D2E/DX2                !
 ! D14   D(4,5,6,16)           -61.6619         estimate D2E/DX2                !
 ! D15   D(5,6,7,8)           -179.9998         estimate D2E/DX2                !
 ! D16   D(15,6,7,8)           -61.9511         estimate D2E/DX2                !
 ! D17   D(16,6,7,8)            61.951          estimate D2E/DX2                !
 ! D18   D(6,7,8,9)           -179.9997         estimate D2E/DX2                !
 ! D19   D(6,7,8,17)            61.1996         estimate D2E/DX2                !
 ! D20   D(6,7,8,18)           -61.1998         estimate D2E/DX2                !
 ! D21   D(7,8,9,10)            -0.0009         estimate D2E/DX2                !
 ! D22   D(7,8,9,11)          -179.9998         estimate D2E/DX2                !
 ! D23   D(17,8,9,10)          119.6216         estimate D2E/DX2                !
 ! D24   D(17,8,9,11)          -60.3773         estimate D2E/DX2                !
 ! D25   D(18,8,9,10)         -119.623          estimate D2E/DX2                !
 ! D26   D(18,8,9,11)           60.3782         estimate D2E/DX2                !
 ! D27   D(8,9,11,19)           -0.0008         estimate D2E/DX2                !
 ! D28   D(10,9,11,19)        -179.9997         estimate D2E/DX2                !
 --------------------------------------------------------------------------------
 Trust Radius=3.00D-01 FncErr=1.00D-07 GrdErr=1.00D-06 EigMax=2.50D+02 EigMin=1.00D-04
 Number of steps in this run=     84 maximum allowed number of steps=    114.
 GradGradGradGradGradGradGradGradGradGradGradGradGradGradGradGradGradGrad

                          Input orientation:                          
 ---------------------------------------------------------------------
 Center     Atomic      Atomic             Coordinates (Angstroms)
 Number     Number       Type             X           Y           Z
 ---------------------------------------------------------------------
      1          8           0        0.983880    0.060320   -0.108970
      2          6           0        2.210860    0.063090   -0.080000
      3          8           0        2.883410    0.174980    1.088300
      4          6           0        3.063810   -0.057850   -1.342850
      5         16           0        4.846940   -0.019960   -0.947230
      6          6           0        5.664010   -0.178650   -2.604170
      7         16           0        7.451560   -0.139390   -2.194220
      8          6           0        8.343280   -0.292840   -3.796520
      9          6           0        9.857960   -0.265840   -3.514500
     10          8           0       10.378900   -0.159910   -2.408500
     11          8           0       10.643060   -0.371080   -4.613440
     12          1           0        3.856620    0.161480    0.947330
     13          1           0        2.811930    0.783610   -1.993940
     14          1           0        2.811930   -1.007590   -1.822390
     15          1           0        5.394570    0.666610   -3.243090
     16          1           0        5.394570   -1.129810   -3.071050
     17          1           0        8.091900    0.549560   -4.447800
     18          1           0        8.091900   -1.243550   -4.276080
     19          1           0       10.204610   -0.453850   -5.477670
 ---------------------------------------------------------------------
                    Distance matrix (angstroms):
                    1          2          3          4          5
     1  O    0.000000
     2  C    1.227325   0.000000
     3  O    2.248292   1.352689   0.000000
     4  C    2.421267   1.528705   2.448927   0.000000
     5  S    3.953778   2.776311   2.834931   1.826884   0.000000
     6  C    5.309119   4.284171   4.635852   2.892501   1.854248
     7  S    6.798458   5.654720   5.633983   4.470328   2.890206
     8  C    8.239145   7.179539   7.341015   5.826536   4.518552
     9  C    9.510695   8.389405   8.368061   7.135811   5.635748
    10  O    9.674851   8.496383   8.277810   7.393008   5.723415
    11  O   10.666589   9.583453   9.644697   8.260745   6.867269
    12  H    3.062456   1.942579   0.983459   2.433429   2.145463
    13  H    2.723606   2.131572   3.142570   1.093351   2.425406
    14  H    2.723602   2.131564   3.142562   1.093347   2.425404
    15  H    5.444675   4.528287   5.030762   3.093250   2.458099
    16  H    5.444678   4.528289   5.030765   3.093253   2.458104
    17  H    8.341987   7.341727   7.610327   5.940652   4.807089
    18  H    8.341992   7.341732   7.610333   5.940658   4.807097
    19  H   10.682189   9.659302   9.854307   8.261028   7.029778
                    6          7          8          9         10
     6  C    0.000000
     7  S    1.834376   0.000000
     8  C    2.934830   1.840130   0.000000
     9  C    4.292496   2.747706   1.540948   0.000000
    10  O    4.718986   2.935244   2.467391   1.227125   0.000000
    11  O    5.372628   4.011481   2.441817   1.354668   2.230725
    12  H    3.999437   4.783665   6.545276   7.490435   7.342004
    13  H    3.071268   4.734787   5.916407   7.284229   7.636827
    14  H    3.071267   4.734786   5.916409   7.284227   7.636827
    15  H    1.093289   2.445603   3.149876   4.567820   5.120861
    16  H    1.093289   2.445602   3.149876   4.567816   5.120862
    17  H    3.134312   2.441989   1.094073   2.157520   3.145228
    18  H    3.134317   2.441996   1.094084   2.157519   3.145234
    19  H    5.380501   4.296419   2.513312   2.002386   3.088136
                   11         12         13         14         15
    11  O    0.000000
    12  H    8.789855   0.000000
    13  H    8.337967   3.182686   0.000000
    14  H    8.337968   3.182680   1.799396   0.000000
    15  H    5.522799   4.492223   2.871253   3.389891   0.000000
    16  H    5.522797   4.492226   3.389893   2.871257   1.804639
    17  H    2.717247   6.869908   5.827031   6.098818   2.956453
    18  H    2.717247   6.869914   6.098822   5.827037   3.462856
    19  H    0.972616   9.052968   8.265555   8.265556   5.420818
                   16         17         18         19
    16  H    0.000000
    17  H    3.462848   0.000000
    18  H    2.956455   1.801314   0.000000
    19  H    5.420814   2.555584   2.555580   0.000000
 Stoichiometry    C5H8O4S2
 Framework group  C1[X(C5H8O4S2)]
 Deg. of freedom    51
 Full point group                 C1      NOp   1
 Largest Abelian subgroup         C1      NOp   1
 Largest concise Abelian subgroup C1      NOp   1
                         Standard orientation:                         
 ---------------------------------------------------------------------
 Center     Atomic      Atomic             Coordinates (Angstroms)
 Number     Number       Type             X           Y           Z
 ---------------------------------------------------------------------
      1          8           0       -5.332250   -0.604799   -0.000000
      2          6           0       -4.238668   -0.047659    0.000003
      3          8           0       -4.140163    1.301439    0.000002
      4          6           0       -2.920773   -0.822316   -0.000001
      5         16           0       -1.485171    0.307530   -0.000003
      6          6           0       -0.028324   -0.839568    0.000001
      7         16           0        1.405034    0.305168    0.000001
      8          6           0        2.905431   -0.760142   -0.000003
      9          6           0        4.148393    0.150663    0.000006
     10          8           0        4.137295    1.377737   -0.000002
     11          8           0        5.333871   -0.504905   -0.000001
     12          1           0       -3.201497    1.594867    0.000001
     13          1           0       -2.902127   -1.443292   -0.899699
     14          1           0       -2.902129   -1.443286    0.899697
     15          1           0       -0.030907   -1.456894   -0.902320
     16          1           0       -0.030905   -1.456897    0.902319
     17          1           0        2.924571   -1.380992   -0.900655
     18          1           0        2.924575   -1.380998    0.900659
     19          1           0        5.314246   -1.477323    0.000002
 ---------------------------------------------------------------------
 Rotational constants (GHZ):           4.2557680           0.2201907           0.2102134
 Standard basis: 6-31G(2df,p) (6D, 7F)
 There are   389 symmetry adapted cartesian basis functions of A   symmetry.
 There are   356 symmetry adapted basis functions of A   symmetry.
   356 basis functions,   588 primitive gaussians,   389 cartesian basis functions
    51 alpha electrons       51 beta electrons
       nuclear repulsion energy       757.2401608799 Hartrees.
 NAtoms=   19 NActive=   19 NUniq=   19 SFac= 1.00D+00 NAtFMM=   60 NAOKFM=F Big=F
 Integral buffers will be    131072 words long.
 Raffenetti 2 integral format.
 Two-electron integral symmetry is turned on.
 One-electron integrals computed using PRISM.
 PrsmSu:  requested number of processors reduced to:  13 ShMem   1 Linda.
 NBasis=   356 RedAO= T EigKep=  1.01D-03  NBF=   356
 NBsUse=   356 1.00D-06 EigRej= -1.00D+00 NBFU=   356
 ExpMin= 1.17D-01 ExpMax= 2.19D+04 ExpMxC= 3.30D+03 IAcc=3 IRadAn=         5 AccDes= 0.00D+00
 Harris functional with IExCor=  402 and IRadAn=       5 diagonalized for initial guess.
 HarFok:  IExCor=  402 AccDes= 0.00D+00 IRadAn=         5 IDoV= 1 UseB2=F ITyADJ=14
 ICtDFT=  3500011 ScaDFX=  1.000000  1.000000  1.000000  1.000000
 FoFCou: FMM=F IPFlag=           0 FMFlag=      100000 FMFlg1=           0
         NFxFlg=           0 DoJE=T BraDBF=F KetDBF=T FulRan=T
         wScrn=  0.000000 ICntrl=       500 IOpCl=  0 I1Cent=   200000004 NGrid=           0
         NMat0=    1 NMatS0=      1 NMatT0=    0 NMatD0=    1 NMtDS0=    0 NMtDT0=    0
 Petite list used in FoFCou.
 Requested convergence on RMS density matrix=1.00D-08 within 128 cycles.
 Requested convergence on MAX density matrix=1.00D-06.
 Requested convergence on             energy=1.00D-06.
 No special actions if energy rises.
 Integral accuracy reduced to 1.0D-05 until final iterations.
 Initial convergence to 1.0D-05 achieved.  Increase integral accuracy.
 SCF Done:  E(RB3LYP) =  -1292.65684838     A.U. after   14 cycles
            NFock= 14  Conv=0.39D-08     -V/T= 2.0046

 **********************************************************************

            Population analysis using the SCF density.

 **********************************************************************

 Orbital symmetries:
       Occupied  (A) (A) (A) (A) (A) (A) (A) (A) (A) (A) (A) (A)
                 (A) (A) (A) (A) (A) (A) (A) (A) (A) (A) (A) (A)
                 (A) (A) (A) (A) (A) (A) (A) (A) (A) (A) (A) (A)
                 (A) (A) (A) (A) (A) (A) (A) (A) (A) (A) (A) (A)
                 (A) (A) (A)
       Virtual   (A) (A) (A) (A) (A) (A) (A) (A) (A) (A) (A) (A)
                 (A) (A) (A) (A) (A) (A) (A) (A) (A) (A) (A) (A)
                 (A) (A) (A) (A) (A) (A) (A) (A) (A) (A) (A) (A)
                 (A) (A) (A) (A) (A) (A) (A) (A) (A) (A) (A) (A)
                 (A) (A) (A) (A) (A) (A) (A) (A) (A) (A) (A) (A)
                 (A) (A) (A) (A) (A) (A) (A) (A) (A) (A) (A) (A)
                 (A) (A) (A) (A) (A) (A) (A) (A) (A) (A) (A) (A)
                 (A) (A) (A) (A) (A) (A) (A) (A) (A) (A) (A) (A)
                 (A) (A) (A) (A) (A) (A) (A) (A) (A) (A) (A) (A)
                 (A) (A) (A) (A) (A) (A) (A) (A) (A) (A) (A) (A)
                 (A) (A) (A) (A) (A) (A) (A) (A) (A) (A) (A) (A)
                 (A) (A) (A) (A) (A) (A) (A) (A) (A) (A) (A) (A)
                 (A) (A) (A) (A) (A) (A) (A) (A) (A) (A) (A) (A)
                 (A) (A) (A) (A) (A) (A) (A) (A) (A) (A) (A) (A)
                 (A) (A) (A) (A) (A) (A) (A) (A) (A) (A) (A) (A)
                 (A) (A) (A) (A) (A) (A) (A) (A) (A) (A) (A) (A)
                 (A) (A) (A) (A) (A) (A) (A) (A) (A) (A) (A) (A)
                 (A) (A) (A) (A) (A) (A) (A) (A) (A) (A) (A) (A)
                 (A) (A) (A) (A) (A) (A) (A) (A) (A) (A) (A) (A)
                 (A) (A) (A) (A) (A) (A) (A) (A) (A) (A) (A) (A)
                 (A) (A) (A) (A) (A) (A) (A) (A) (A) (A) (A) (A)
                 (A) (A) (A) (A) (A) (A) (A) (A) (A) (A) (A) (A)
                 (A) (A) (A) (A) (A) (A) (A) (A) (A) (A) (A) (A)
                 (A) (A) (A) (A) (A) (A) (A) (A) (A) (A) (A) (A)
                 (A) (A) (A) (A) (A) (A) (A) (A) (A) (A) (A) (A)
                 (A) (A) (A) (A) (A)
 The electronic state is 1-A.
 Alpha  occ. eigenvalues --  -88.90497 -88.89763 -19.21029 -19.19698 -19.14705
 Alpha  occ. eigenvalues --  -19.13307 -10.34342 -10.33063 -10.27239 -10.26072
 Alpha  occ. eigenvalues --  -10.25027  -7.96900  -7.96022  -5.93406  -5.93052
 Alpha  occ. eigenvalues --   -5.92557  -5.92367  -5.92180  -5.91459  -1.11414
 Alpha  occ. eigenvalues --   -1.10214  -1.02674  -1.01510  -0.84748  -0.81263
 Alpha  occ. eigenvalues --   -0.76224  -0.68413  -0.64772  -0.62510  -0.60983
 Alpha  occ. eigenvalues --   -0.53480  -0.53135  -0.50381  -0.49502  -0.48210
 Alpha  occ. eigenvalues --   -0.47001  -0.46034  -0.44350  -0.42542  -0.41816
 Alpha  occ. eigenvalues --   -0.41352  -0.38456  -0.37818  -0.35297  -0.33348
 Alpha  occ. eigenvalues --   -0.33241  -0.32025  -0.29228  -0.27913  -0.25769
 Alpha  occ. eigenvalues --   -0.24856
 Alpha virt. eigenvalues --   -0.01661  -0.01556  -0.00556  -0.00484   0.02222
 Alpha virt. eigenvalues --    0.04260   0.06153   0.08560   0.09798   0.11101
 Alpha virt. eigenvalues --    0.12308   0.12905   0.14005   0.14159   0.16062
 Alpha virt. eigenvalues --    0.19964   0.23077   0.26348   0.27416   0.27742
 Alpha virt. eigenvalues --    0.29998   0.30254   0.31101   0.33016   0.34747
 Alpha virt. eigenvalues --    0.35955   0.36924   0.37817   0.38470   0.39536
 Alpha virt. eigenvalues --    0.39595   0.42401   0.44690   0.45342   0.46325
 Alpha virt. eigenvalues --    0.47903   0.50197   0.50537   0.50942   0.51523
 Alpha virt. eigenvalues --    0.53680   0.55130   0.56465   0.57601   0.59151
 Alpha virt. eigenvalues --    0.59495   0.62370   0.62659   0.63997   0.66319
 Alpha virt. eigenvalues --    0.68617   0.69221   0.70814   0.70879   0.72266
 Alpha virt. eigenvalues --    0.72355   0.73742   0.75894   0.77787   0.78552
 Alpha virt. eigenvalues --    0.79981   0.80557   0.81101   0.83212   0.83279
 Alpha virt. eigenvalues --    0.84055   0.84617   0.85798   0.86613   0.89184
 Alpha virt. eigenvalues --    0.89372   0.90361   0.92379   0.93032   0.94140
 Alpha virt. eigenvalues --    0.95499   0.95991   0.96892   0.98677   0.99516
 Alpha virt. eigenvalues --    0.99578   1.00055   1.03202   1.04925   1.05992
 Alpha virt. eigenvalues --    1.08771   1.08926   1.12010   1.13535   1.16498
 Alpha virt. eigenvalues --    1.19354   1.21149   1.26412   1.28966   1.30121
 Alpha virt. eigenvalues --    1.31320   1.31890   1.32557   1.33727   1.34534
 Alpha virt. eigenvalues --    1.37567   1.38880   1.39345   1.42340   1.43092
 Alpha virt. eigenvalues --    1.47336   1.47905   1.50337   1.50352   1.51155
 Alpha virt. eigenvalues --    1.52699   1.53544   1.53971   1.55523   1.57175
 Alpha virt. eigenvalues --    1.57445   1.60119   1.66985   1.68033   1.70265
 Alpha virt. eigenvalues --    1.70521   1.71972   1.73313   1.73512   1.75278
 Alpha virt. eigenvalues --    1.77678   1.79988   1.80790   1.84642   1.86841
 Alpha virt. eigenvalues --    1.87362   1.88805   1.90153   1.92356   1.94163
 Alpha virt. eigenvalues --    2.02181   2.03606   2.03891   2.06137   2.06965
 Alpha virt. eigenvalues --    2.09303   2.12259   2.13469   2.15719   2.16986
 Alpha virt. eigenvalues --    2.20003   2.22715   2.27976   2.29976   2.32059
 Alpha virt. eigenvalues --    2.32397   2.37259   2.37602   2.43370   2.43957
 Alpha virt. eigenvalues --    2.45430   2.46030   2.47366   2.49785   2.50652
 Alpha virt. eigenvalues --    2.54633   2.62355   2.65550   2.66378   2.72272
 Alpha virt. eigenvalues --    2.75676   2.76140   2.79099   2.79926   2.81548
 Alpha virt. eigenvalues --    2.82433   2.82533   2.85179   2.86304   2.87664
 Alpha virt. eigenvalues --    2.93578   2.97714   3.01661   3.01767   3.02797
 Alpha virt. eigenvalues --    3.04247   3.06020   3.06349   3.16163   3.18732
 Alpha virt. eigenvalues --    3.20242   3.20243   3.22340   3.23012   3.23784
 Alpha virt. eigenvalues --    3.25757   3.29065   3.35293   3.38073   3.39373
 Alpha virt. eigenvalues --    3.44012   3.47544   3.49697   3.52764   3.53668
 Alpha virt. eigenvalues --    3.54423   3.58623   3.60099   3.60298   3.61850
 Alpha virt. eigenvalues --    3.74334   3.77017   3.82192   3.84241   3.88917
 Alpha virt. eigenvalues --    3.93301   3.95351   3.99722   4.02242   4.04164
 Alpha virt. eigenvalues --    4.08496   4.10630   4.11286   4.11700   4.13948
 Alpha virt. eigenvalues --    4.14304   4.17545   4.18376   4.22600   4.23265
 Alpha virt. eigenvalues --    4.26683   4.30145   4.31304   4.31873   4.34401
 Alpha virt. eigenvalues --    4.34462   4.40672   4.41717   4.45075   4.46559
 Alpha virt. eigenvalues --    4.46779   4.48708   4.52537   4.54104   4.54218
 Alpha virt. eigenvalues --    4.56626   4.57203   4.59569   4.60154   4.61757
 Alpha virt. eigenvalues --    4.65799   4.68840   4.71168   4.72519   4.74538
 Alpha virt. eigenvalues --    4.75289   4.76770   4.77131   4.79821   4.80269
 Alpha virt. eigenvalues --    4.91364   4.94723   4.97015   5.04317   5.05367
 Alpha virt. eigenvalues --    5.06956   5.07464   5.08345   5.10148   5.14675
 Alpha virt. eigenvalues --    5.17959   5.25585   5.26993   5.27909   5.33716
 Alpha virt. eigenvalues --    5.34946   5.35372   5.45292   5.48480   5.51469
 Alpha virt. eigenvalues --    5.53226   5.58371   5.64381   5.74682   5.77151
 Alpha virt. eigenvalues --    5.79391   5.81510   5.92258   5.95237   6.03606
 Alpha virt. eigenvalues --    6.04977   6.14914   6.17698   6.35597   6.38804
 Alpha virt. eigenvalues --    6.55170   6.55456   6.72432   6.75877   7.10183
 Alpha virt. eigenvalues --    7.10616  10.81592  10.92062  11.61830  11.92729
 Alpha virt. eigenvalues --   11.93929  12.96015  13.00337  13.18879  13.21377
          Condensed to atoms (all electrons):
               1          2          3          4          5          6
     1  O    7.693106   0.754247  -0.048789  -0.063736   0.001886  -0.000008
     2  C    0.754247   4.154822   0.392760   0.336890  -0.029710   0.000848
     3  O   -0.048789   0.392760   7.809261  -0.092409   0.003039   0.000147
     4  C   -0.063736   0.336890  -0.092409   5.215715   0.238855  -0.008289
     5  S    0.001886  -0.029710   0.003039   0.238855  15.814012   0.281523
     6  C   -0.000008   0.000848   0.000147  -0.008289   0.281523   4.980998
     7  S    0.000000  -0.000016   0.000011   0.000865  -0.045054   0.263766
     8  C   -0.000000  -0.000000   0.000000  -0.000009   0.000880  -0.004763
     9  C    0.000000  -0.000000  -0.000000  -0.000000  -0.000004   0.001323
    10  O    0.000000   0.000000   0.000000   0.000000   0.000020   0.000166
    11  O    0.000000   0.000000   0.000000  -0.000000   0.000000  -0.000001
    12  H    0.003828  -0.033864   0.296850  -0.000360   0.021890  -0.000163
    13  H   -0.001326  -0.009055   0.000994   0.361582  -0.046387  -0.001053
    14  H   -0.001326  -0.009055   0.000994   0.361582  -0.046386  -0.001053
    15  H   -0.000000   0.000007  -0.000001  -0.000751  -0.042027   0.371845
    16  H   -0.000000   0.000007  -0.000001  -0.000751  -0.042027   0.371845
    17  H    0.000000   0.000000  -0.000000   0.000001   0.000010  -0.001332
    18  H    0.000000   0.000000  -0.000000   0.000001   0.000010  -0.001333
    19  H    0.000000   0.000000   0.000000   0.000000  -0.000000  -0.000010
               7          8          9         10         11         12
     1  O    0.000000  -0.000000   0.000000   0.000000   0.000000   0.003828
     2  C   -0.000016  -0.000000  -0.000000   0.000000   0.000000  -0.033864
     3  O    0.000011   0.000000  -0.000000   0.000000   0.000000   0.296850
     4  C    0.000865  -0.000009  -0.000000   0.000000  -0.000000  -0.000360
     5  S   -0.045054   0.000880  -0.000004   0.000020   0.000000   0.021890
     6  C    0.263766  -0.004763   0.001323   0.000166  -0.000001  -0.000163
     7  S   15.726911   0.261915  -0.026508   0.026590   0.003651  -0.000028
     8  C    0.261915   5.262713   0.308948  -0.078691  -0.083773  -0.000000
     9  C   -0.026508   0.308948   4.212642   0.711923   0.414211   0.000000
    10  O    0.026590  -0.078691   0.711923   7.660940  -0.035061   0.000000
    11  O    0.003651  -0.083773   0.414211  -0.035061   7.771498   0.000000
    12  H   -0.000028  -0.000000   0.000000   0.000000   0.000000   0.372164
    13  H    0.000015   0.000000   0.000000  -0.000000  -0.000000   0.000200
    14  H    0.000015   0.000000   0.000000  -0.000000  -0.000000   0.000200
    15  H   -0.041109  -0.001283   0.000007   0.000000  -0.000000   0.000014
    16  H   -0.041109  -0.001283   0.000007   0.000000  -0.000000   0.000014
    17  H   -0.042263   0.355771  -0.014337   0.000620   0.001086   0.000000
    18  H   -0.042263   0.355767  -0.014336   0.000620   0.001086   0.000000
    19  H   -0.000482   0.009820  -0.054663   0.004547   0.300012  -0.000000
              13         14         15         16         17         18
     1  O   -0.001326  -0.001326  -0.000000  -0.000000   0.000000   0.000000
     2  C   -0.009055  -0.009055   0.000007   0.000007   0.000000   0.000000
     3  O    0.000994   0.000994  -0.000001  -0.000001  -0.000000  -0.000000
     4  C    0.361582   0.361582  -0.000751  -0.000751   0.000001   0.000001
     5  S   -0.046387  -0.046386  -0.042027  -0.042027   0.000010   0.000010
     6  C   -0.001053  -0.001053   0.371845   0.371845  -0.001332  -0.001333
     7  S    0.000015   0.000015  -0.041109  -0.041109  -0.042263  -0.042263
     8  C    0.000000   0.000000  -0.001283  -0.001283   0.355771   0.355767
     9  C    0.000000   0.000000   0.000007   0.000007  -0.014337  -0.014336
    10  O   -0.000000  -0.000000   0.000000   0.000000   0.000620   0.000620
    11  O   -0.000000  -0.000000  -0.000000  -0.000000   0.001086   0.001086
    12  H    0.000200   0.000200   0.000014   0.000014   0.000000   0.000000
    13  H    0.554683  -0.031051   0.003621  -0.000493   0.000000   0.000000
    14  H   -0.031051   0.554683  -0.000493   0.003621   0.000000   0.000000
    15  H    0.003621  -0.000493   0.600383  -0.045852   0.003215  -0.000473
    16  H   -0.000493   0.003621  -0.045852   0.600383  -0.000473   0.003215
    17  H    0.000000   0.000000   0.003215  -0.000473   0.578948  -0.038048
    18  H    0.000000   0.000000  -0.000473   0.003215  -0.038048   0.578952
    19  H    0.000000   0.000000   0.000000   0.000000   0.001171   0.001171
              19
     1  O    0.000000
     2  C    0.000000
     3  O    0.000000
     4  C    0.000000
     5  S   -0.000000
     6  C   -0.000010
     7  S   -0.000482
     8  C    0.009820
     9  C   -0.054663
    10  O    0.004547
    11  O    0.300012
    12  H   -0.000000
    13  H    0.000000
    14  H    0.000000
    15  H    0.000000
    16  H    0.000000
    17  H    0.001171
    18  H    0.001171
    19  H    0.423981
 Mulliken charges:
               1
     1  O   -0.337881
     2  C    0.442117
     3  O   -0.362855
     4  C   -0.349185
     5  S   -0.110530
     6  C   -0.254457
     7  S   -0.044908
     8  C   -0.386014
     9  C    0.460786
    10  O   -0.291674
    11  O   -0.372709
    12  H    0.339256
    13  H    0.168270
    14  H    0.168270
    15  H    0.152898
    16  H    0.152898
    17  H    0.155633
    18  H    0.155631
    19  H    0.314454
 Sum of Mulliken charges =  -0.00000
 Mulliken charges with hydrogens summed into heavy atoms:
               1
     1  O   -0.337881
     2  C    0.442117
     3  O   -0.023598
     4  C   -0.012646
     5  S   -0.110530
     6  C    0.051339
     7  S   -0.044908
     8  C   -0.074749
     9  C    0.460786
    10  O   -0.291674
    11  O   -0.058255
 Electronic spatial extent (au):  <R**2>=           4663.0442
 Charge=             -0.0000 electrons
 Dipole moment (field-independent basis, Debye):
    X=              3.8877    Y=             -6.1233    Z=              0.0000  Tot=              7.2532
 Quadrupole moment (field-independent basis, Debye-Ang):
   XX=           -108.5309   YY=            -74.1396   ZZ=            -76.7665
   XY=            -19.9678   XZ=              0.0000   YZ=              0.0000
 Traceless Quadrupole moment (field-independent basis, Debye-Ang):
   XX=            -22.0519   YY=             12.3394   ZZ=              9.7125
   XY=            -19.9678   XZ=              0.0000   YZ=              0.0000
 Octapole moment (field-independent basis, Debye-Ang**2):
  XXX=            188.3737  YYY=             -7.3156  ZZZ=             -0.0000  XYY=              9.9978
  XXY=            -76.0997  XXZ=              0.0004  XZZ=              0.3309  YZZ=             -4.3403
  YYZ=             -0.0000  XYZ=              0.0000
 Hexadecapole moment (field-independent basis, Debye-Ang**3):
 XXXX=          -6508.9473 YYYY=           -340.7828 ZZZZ=            -98.5616 XXXY=           -468.4643
 XXXZ=              0.0009 YYYX=            -65.7975 YYYZ=              0.0000 ZZZX=             -0.0001
 ZZZY=              0.0000 XXYY=           -891.4981 XXZZ=           -848.6383 YYZZ=            -70.3493
 XXYZ=             -0.0001 YYXZ=              0.0001 ZZXY=              0.4601
 N-N= 7.572401608799D+02 E-N=-4.569597449133D+03  KE= 1.286745138804D+03
 PrsmSu:  requested number of processors reduced to:  13 ShMem   1 Linda.
 Calling FoFJK, ICntrl=      2127 FMM=F ISym2X=0 I1Cent= 0 IOpClX= 0 NMat=1 NMatS=1 NMatT=0.
 ***** Axes restored to original set *****
 -------------------------------------------------------------------
 Center     Atomic                   Forces (Hartrees/Bohr)
 Number     Number              X              Y              Z
 -------------------------------------------------------------------
      1        8           0.048021463   -0.000085310   -0.000883681
      2        6          -0.035697882    0.000937166    0.009766642
      3        8           0.001548672   -0.000471531   -0.004920594
      4        6           0.000509916   -0.000296251   -0.003106774
      5       16           0.009023195   -0.000898663   -0.009381036
      6        6           0.002268373   -0.000102344   -0.001075161
      7       16           0.007745251    0.000825793    0.008622816
      8        6          -0.000718165    0.000711146    0.007498242
      9        6           0.014619772    0.003021558    0.031514616
     10        8          -0.024417024   -0.004245295   -0.044314025
     11        8           0.004678222   -0.000118804   -0.001233851
     12        1          -0.013492643    0.000370920    0.003874373
     13        1          -0.001943075   -0.002836151   -0.001682761
     14        1          -0.001943186    0.002463048   -0.002192141
     15        1          -0.002068513   -0.000960808    0.000898633
     16        1          -0.002068807    0.001113565    0.000700220
     17        1          -0.000322061   -0.001953981   -0.002930393
     18        1          -0.000321431    0.001368199   -0.003245159
     19        1          -0.005422079    0.001157742    0.012090033
 -------------------------------------------------------------------
 Cartesian Forces:  Max     0.048021463 RMS     0.012096792

 GradGradGradGradGradGradGradGradGradGradGradGradGradGradGradGradGradGrad
 Berny optimization.
 FormGI is forming the generalized inverse of G from B-inverse, IUseBI=4.
 Internal  Forces:  Max     0.050672005 RMS     0.010480912
 Search for a local minimum.
 Step number   1 out of a maximum of   84
 All quantities printed in internal units (Hartrees-Bohrs-Radians)
 Mixed Optimization -- RFO/linear search
 Second derivative matrix not updated -- first step.
 ITU=  0
     Eigenvalues ---    0.00230   0.00230   0.00230   0.00230   0.00230
     Eigenvalues ---    0.00386   0.00693   0.00858   0.02291   0.02318
     Eigenvalues ---    0.05979   0.06266   0.07295   0.07383   0.08585
     Eigenvalues ---    0.09419   0.10810   0.10826   0.11127   0.13661
     Eigenvalues ---    0.13792   0.13885   0.16000   0.16000   0.22149
     Eigenvalues ---    0.22164   0.22211   0.22270   0.23194   0.23586
     Eigenvalues ---    0.24108   0.25000   0.25000   0.25000   0.25000
     Eigenvalues ---    0.25000   0.25000   0.28435   0.29543   0.34345
     Eigenvalues ---    0.34346   0.34428   0.34429   0.34435   0.34435
     Eigenvalues ---    0.50719   0.52846   0.54040   0.54453   0.92210
     Eigenvalues ---    0.92295
 RFO step:  Lambda=-1.79920858D-02 EMin= 2.30000000D-03
 Linear search not attempted -- first point.
 Iteration  1 RMS(Cart)=  0.18704056 RMS(Int)=  0.01062857
 Iteration  2 RMS(Cart)=  0.02424124 RMS(Int)=  0.00017660
 Iteration  3 RMS(Cart)=  0.00023040 RMS(Int)=  0.00015015
 Iteration  4 RMS(Cart)=  0.00000004 RMS(Int)=  0.00015015
 Variable       Old X    -DE/DX   Delta X   Delta X   Delta X     New X
                                 (Linear)    (Quad)   (Total)
    R1        2.31931  -0.04799   0.00000  -0.05104  -0.05104   2.26826
    R2        2.55621  -0.00685   0.00000  -0.01218  -0.01218   2.54403
    R3        2.88883   0.00632   0.00000   0.02017   0.02017   2.90900
    R4        1.85847  -0.01391   0.00000  -0.02649  -0.02649   1.83198
    R5        3.45231   0.00274   0.00000   0.01057   0.01057   3.46288
    R6        2.06613  -0.00073   0.00000  -0.00202  -0.00202   2.06411
    R7        2.06613  -0.00073   0.00000  -0.00202  -0.00202   2.06411
    R8        3.50402  -0.01034   0.00000  -0.04298  -0.04298   3.46105
    R9        3.46647  -0.00225   0.00000  -0.00885  -0.00885   3.45762
   R10        2.06602  -0.00076   0.00000  -0.00209  -0.00209   2.06392
   R11        2.06602  -0.00076   0.00000  -0.00209  -0.00209   2.06392
   R12        3.47734  -0.00522   0.00000  -0.02090  -0.02090   3.45645
   R13        2.91197  -0.01072   0.00000  -0.03546  -0.03546   2.87651
   R14        2.06750   0.00031   0.00000   0.00087   0.00087   2.06837
   R15        2.06752   0.00031   0.00000   0.00085   0.00085   2.06837
   R16        2.31893  -0.05067   0.00000  -0.05385  -0.05385   2.26508
   R17        2.55995  -0.00932   0.00000  -0.01669  -0.01669   2.54326
   R18        1.83798  -0.00840   0.00000  -0.01537  -0.01537   1.82261
    A1        2.11487  -0.00800   0.00000  -0.02985  -0.02985   2.08502
    A2        2.13900  -0.01270   0.00000  -0.04739  -0.04739   2.09161
    A3        2.02931   0.02070   0.00000   0.07724   0.07724   2.10655
    A4        1.94666   0.00355   0.00000   0.01993   0.01993   1.96659
    A5        1.94342   0.01334   0.00000   0.06345   0.06296   2.00638
    A6        1.87812  -0.00318   0.00000  -0.01168  -0.01224   1.86588
    A7        1.87812  -0.00318   0.00000  -0.01167  -0.01223   1.86588
    A8        1.91543  -0.00241   0.00000  -0.00095  -0.00129   1.91414
    A9        1.91543  -0.00241   0.00000  -0.00095  -0.00130   1.91414
   A10        1.93293  -0.00209   0.00000  -0.03870  -0.03909   1.89384
   A11        1.80782  -0.01234   0.00000  -0.04603  -0.04603   1.76178
   A12        1.80068   0.00301   0.00000   0.01400   0.01399   1.81467
   A13        1.92565  -0.00237   0.00000  -0.01562  -0.01578   1.90987
   A14        1.92566  -0.00237   0.00000  -0.01563  -0.01579   1.90987
   A15        1.93287   0.00131   0.00000   0.01345   0.01344   1.94631
   A16        1.93287   0.00131   0.00000   0.01345   0.01344   1.94631
   A17        1.94156  -0.00068   0.00000  -0.00836  -0.00866   1.93290
   A18        1.85026  -0.03183   0.00000  -0.11879  -0.11879   1.73148
   A19        1.89179  -0.00354   0.00000  -0.01085  -0.01082   1.88097
   A20        1.92068   0.00219   0.00000   0.01514   0.01515   1.93583
   A21        1.92068   0.00219   0.00000   0.01514   0.01515   1.93583
   A22        1.89790   0.00100   0.00000   0.00335   0.00337   1.90127
   A23        1.89789   0.00100   0.00000   0.00336   0.00338   1.90127
   A24        1.93409  -0.00290   0.00000  -0.02615  -0.02618   1.90791
   A25        2.19413  -0.00352   0.00000  -0.01313  -0.01313   2.18101
   A26        2.00407  -0.00041   0.00000  -0.00152  -0.00152   2.00255
   A27        2.08498   0.00392   0.00000   0.01464   0.01464   2.09963
   A28        2.05576  -0.01896   0.00000  -0.10651  -0.10651   1.94925
    D1       -3.14159  -0.00000   0.00000  -0.00001  -0.00001   3.14159
    D2       -0.00000   0.00000   0.00000   0.00001   0.00001   0.00000
    D3        3.14159   0.00000   0.00000   0.00001   0.00001  -3.14159
    D4        1.04183  -0.00296   0.00000  -0.02919  -0.02909   1.01274
    D5       -1.04184   0.00296   0.00000   0.02921   0.02911  -1.01274
    D6        0.00000  -0.00000   0.00000  -0.00001  -0.00001  -0.00001
    D7       -2.09976  -0.00296   0.00000  -0.02921  -0.02911  -2.12886
    D8        2.09976   0.00296   0.00000   0.02919   0.02909   2.12885
    D9        3.14159   0.00000   0.00000   0.00000   0.00000   3.14159
   D10       -1.06398   0.00286   0.00000   0.02468   0.02492  -1.03906
   D11        1.06398  -0.00286   0.00000  -0.02469  -0.02492   1.03905
   D12       -3.14159   0.00000   0.00000   0.00000   0.00000  -3.14159
   D13        1.07621  -0.00206   0.00000  -0.01604  -0.01580   1.06041
   D14       -1.07620   0.00206   0.00000   0.01604   0.01580  -1.06041
   D15       -3.14159  -0.00000   0.00000  -0.00000  -0.00000  -3.14159
   D16       -1.08125  -0.00049   0.00000  -0.00419  -0.00419  -1.08544
   D17        1.08125   0.00050   0.00000   0.00420   0.00419   1.08544
   D18       -3.14159  -0.00000   0.00000  -0.00000  -0.00000  -3.14159
   D19        1.06813  -0.00036   0.00000  -0.00635  -0.00631   1.06182
   D20       -1.06814   0.00036   0.00000   0.00635   0.00632  -1.06182
   D21       -0.00002   0.00000   0.00000   0.00002   0.00002   0.00000
   D22       -3.14159  -0.00000   0.00000  -0.00002  -0.00002   3.14158
   D23        2.08779   0.00116   0.00000   0.01387   0.01387   2.10166
   D24       -1.05378   0.00116   0.00000   0.01384   0.01383  -1.03995
   D25       -2.08781  -0.00116   0.00000  -0.01384  -0.01383  -2.10165
   D26        1.05380  -0.00116   0.00000  -0.01387  -0.01387   1.03993
   D27       -0.00001   0.00000   0.00000   0.00002   0.00002   0.00000
   D28       -3.14159  -0.00000   0.00000  -0.00002  -0.00002   3.14158
         Item               Value     Threshold  Converged?
 Maximum Force            0.050672     0.000450     NO 
 RMS     Force            0.010481     0.000300     NO 
 Maximum Displacement     0.633519     0.001800     NO 
 RMS     Displacement     0.204290     0.001200     NO 
 Predicted change in Energy=-9.561631D-03
 GradGradGradGradGradGradGradGradGradGradGradGradGradGradGradGradGradGrad

                          Input orientation:                          
 ---------------------------------------------------------------------
 Center     Atomic      Atomic             Coordinates (Angstroms)
 Number     Number       Type             X           Y           Z
 ---------------------------------------------------------------------
      1          8           0        1.027194    0.028206   -0.444214
      2          6           0        2.203750    0.050866   -0.207669
      3          8           0        2.620755    0.172890    1.066533
      4          6           0        3.218914   -0.059454   -1.359606
      5         16           0        4.977715   -0.010410   -0.847571
      6          6           0        5.816166   -0.165650   -2.468471
      7         16           0        7.596992   -0.125604   -2.050345
      8          6           0        8.296298   -0.286730   -3.732758
      9          6           0        9.813350   -0.274826   -3.608431
     10          8           0       10.417299   -0.176127   -2.577795
     11          8           0       10.474930   -0.386574   -4.775094
     12          1           0        3.587029    0.180356    1.144478
     13          1           0        3.012380    0.765466   -2.045118
     14          1           0        3.012385   -0.999492   -1.876085
     15          1           0        5.535123    0.676233   -3.104952
     16          1           0        5.535124   -1.113036   -2.933590
     17          1           0        7.985332    0.549444   -4.366883
     18          1           0        7.985331   -1.228063   -4.196649
     19          1           0        9.869632   -0.458166   -5.522570
 ---------------------------------------------------------------------
                    Distance matrix (angstroms):
                    1          2          3          4          5
     1  O    0.000000
     2  C    1.200313   0.000000
     3  O    2.200620   1.346245   0.000000
     4  C    2.376818   1.539379   2.509568   0.000000
     5  S    3.971248   2.847474   3.041817   1.832476   0.000000
     6  C    5.202831   4.267042   4.777186   2.826053   1.831506
     7  S    6.765025   5.702074   5.879367   4.432727   2.884536
     8  C    7.984584   7.046940   7.446894   5.609219   4.406092
     9  C    9.343481   8.341299   8.590062   6.970666   5.574552
    10  O    9.631614   8.551690   8.613305   7.301667   5.710535
    11  O   10.401360   9.458602   9.804370   8.026353   6.766558
    12  H    3.016596   1.938693   0.969441   2.542333   2.436936
    13  H    2.654697   2.130905   3.191691   1.092280   2.428713
    14  H    2.654694   2.130904   3.191685   1.092280   2.428713
    15  H    5.274552   4.459078   5.113529   2.992038   2.424449
    16  H    5.274549   4.459076   5.113525   2.992038   2.424451
    17  H    8.004668   7.139631   7.644768   5.668617   4.663127
    18  H    8.004665   7.139629   7.644765   5.668615   4.663128
    19  H   10.208574   9.342003   9.816350   7.856290   6.781368
                    6          7          8          9         10
     6  C    0.000000
     7  S    1.829692   0.000000
     8  C    2.786420   1.829072   0.000000
     9  C    4.157993   2.713327   1.522184   0.000000
    10  O    4.602443   2.869649   2.417606   1.198627   0.000000
    11  O    5.203211   3.971762   2.417203   1.345837   2.208107
    12  H    4.259362   5.136176   6.795793   7.846299   7.786846
    13  H    2.984530   4.670407   5.645798   7.055448   7.483526
    14  H    2.984527   4.670403   5.645795   7.055444   7.483520
    15  H    1.092182   2.450805   2.990907   4.411488   4.983980
    16  H    1.092182   2.450804   2.990908   4.411488   4.983976
    17  H    2.969951   2.443941   1.094532   2.143902   3.105117
    18  H    2.969950   2.443941   1.094534   2.143901   3.105113
    19  H    5.083667   4.163153   2.389184   1.923723   3.008519
                   11         12         13         14         15
    11  O    0.000000
    12  H    9.099776   0.000000
    13  H    8.029298   3.293342   0.000000
    14  H    8.029290   3.293335   1.773035   0.000000
    15  H    5.321713   4.700917   2.737781   3.268391   0.000000
    16  H    5.321707   4.700912   3.268393   2.737777   1.797456
    17  H    2.690885   7.060906   5.492496   5.773516   2.758998
    18  H    2.690874   7.060902   5.773516   5.492491   3.289631
    19  H    0.964485   9.183046   7.785361   7.785353   5.091140
                   16         17         18         19
    16  H    0.000000
    17  H    3.289634   0.000000
    18  H    2.758997   1.785641   0.000000
    19  H    5.091133   2.429295   2.429279   0.000000
 Stoichiometry    C5H8O4S2
 Framework group  C1[X(C5H8O4S2)]
 Deg. of freedom    51
 Full point group                 C1      NOp   1
 Largest Abelian subgroup         C1      NOp   1
 Largest concise Abelian subgroup C1      NOp   1
                         Standard orientation:                         
 ---------------------------------------------------------------------
 Center     Atomic      Atomic             Coordinates (Angstroms)
 Number     Number       Type             X           Y           Z
 ---------------------------------------------------------------------
      1          8           0       -5.177837   -0.887312    0.000007
      2          6           0       -4.219669   -0.164355    0.000001
      3          8           0       -4.397078    1.170149    0.000009
      4          6           0       -2.803970   -0.768907   -0.000002
      5         16           0       -1.440443    0.455332   -0.000007
      6          6           0        0.019599   -0.650422   -0.000004
      7         16           0        1.443773    0.498273   -0.000005
      8          6           0        2.805064   -0.723362   -0.000006
      9          6           0        4.118999    0.045157   -0.000003
     10          8           0        4.215946    1.239857    0.000005
     11          8           0        5.222266   -0.725608    0.000012
     12          1           0       -3.559638    1.658524    0.000009
     13          1           0       -2.729171   -1.402602   -0.886519
     14          1           0       -2.729167   -1.402600    0.886516
     15          1           0        0.005411   -1.270864   -0.898732
     16          1           0        0.005411   -1.270863    0.898725
     17          1           0        2.763116   -1.355116   -0.892826
     18          1           0        2.763115   -1.355118    0.892814
     19          1           0        5.001118   -1.664397    0.000016
 ---------------------------------------------------------------------
 Rotational constants (GHZ):           4.1506516           0.2225477           0.2120767
 Standard basis: 6-31G(2df,p) (6D, 7F)
 There are   389 symmetry adapted cartesian basis functions of A   symmetry.
 There are   356 symmetry adapted basis functions of A   symmetry.
   356 basis functions,   588 primitive gaussians,   389 cartesian basis functions
    51 alpha electrons       51 beta electrons
       nuclear repulsion energy       760.8692859405 Hartrees.
 NAtoms=   19 NActive=   19 NUniq=   19 SFac= 1.00D+00 NAtFMM=   60 NAOKFM=F Big=F
 Integral buffers will be    131072 words long.
 Raffenetti 2 integral format.
 Two-electron integral symmetry is turned on.
 One-electron integrals computed using PRISM.
 PrsmSu:  requested number of processors reduced to:  13 ShMem   1 Linda.
 NBasis=   356 RedAO= T EigKep=  9.95D-04  NBF=   356
 NBsUse=   356 1.00D-06 EigRej= -1.00D+00 NBFU=   356
 Initial guess from the checkpoint file:  "OdCqOrCSCSCCqdOrO.chk"
 B after Tr=    -0.000000    0.000000   -0.000000
         Rot=    0.999998   -0.000001    0.000000   -0.001746 Ang=  -0.20 deg.
 ExpMin= 1.17D-01 ExpMax= 2.19D+04 ExpMxC= 3.30D+03 IAcc=2 IRadAn=         4 AccDes= 0.00D+00
 Harris functional with IExCor=  402 and IRadAn=       4 diagonalized for initial guess.
 HarFok:  IExCor=  402 AccDes= 0.00D+00 IRadAn=         4 IDoV= 1 UseB2=F ITyADJ=14
 ICtDFT=  3500011 ScaDFX=  1.000000  1.000000  1.000000  1.000000
 FoFCou: FMM=F IPFlag=           0 FMFlag=      100000 FMFlg1=           0
         NFxFlg=           0 DoJE=T BraDBF=F KetDBF=T FulRan=T
         wScrn=  0.000000 ICntrl=       500 IOpCl=  0 I1Cent=   200000004 NGrid=           0
         NMat0=    1 NMatS0=      1 NMatT0=    0 NMatD0=    1 NMtDS0=    0 NMtDT0=    0
 Petite list used in FoFCou.
 Requested convergence on RMS density matrix=1.00D-08 within 128 cycles.
 Requested convergence on MAX density matrix=1.00D-06.
 Requested convergence on             energy=1.00D-06.
 No special actions if energy rises.
 Integral accuracy reduced to 1.0D-05 until final iterations.
 Initial convergence to 1.0D-05 achieved.  Increase integral accuracy.
 SCF Done:  E(RB3LYP) =  -1292.66576682     A.U. after   12 cycles
            NFock= 12  Conv=0.45D-08     -V/T= 2.0043
 PrsmSu:  requested number of processors reduced to:  13 ShMem   1 Linda.
 Calling FoFJK, ICntrl=      2127 FMM=F ISym2X=0 I1Cent= 0 IOpClX= 0 NMat=1 NMatS=1 NMatT=0.
 ***** Axes restored to original set *****
 -------------------------------------------------------------------
 Center     Atomic                   Forces (Hartrees/Bohr)
 Number     Number              X              Y              Z
 -------------------------------------------------------------------
      1        8           0.003221108   -0.000228253   -0.002389525
      2        6          -0.007622509   -0.000025475   -0.000251752
      3        8           0.007428769   -0.000177982   -0.001861985
      4        6           0.002785801    0.000330206    0.003443957
      5       16          -0.002154123    0.000165188    0.001724748
      6        6           0.000061651    0.000426763    0.004454198
      7       16           0.000320990   -0.000279298   -0.002916322
      8        6          -0.000186794    0.000532231    0.005558379
      9        6           0.002985251    0.000523099    0.005486260
     10        8          -0.003374838   -0.000148281   -0.001558956
     11        8           0.003667798   -0.000565500   -0.005909536
     12        1          -0.001670781   -0.000120510   -0.001258762
     13        1          -0.001145843   -0.000054017   -0.000323481
     14        1          -0.001145864   -0.000008395   -0.000327788
     15        1           0.000369610    0.000143069   -0.000904121
     16        1           0.000369516   -0.000312153   -0.000860429
     17        1          -0.001585838   -0.000277497   -0.001072231
     18        1          -0.001585498    0.000069667   -0.001105055
     19        1          -0.000738406    0.000007140    0.000072403
 -------------------------------------------------------------------
 Cartesian Forces:  Max     0.007622509 RMS     0.002439879

 GradGradGradGradGradGradGradGradGradGradGradGradGradGradGradGradGradGrad
 Berny optimization.
 Using GEDIIS/GDIIS optimizer.
 FormGI is forming the generalized inverse of G from B-inverse, IUseBI=4.
 Internal  Forces:  Max     0.010046016 RMS     0.002540663
 Search for a local minimum.
 Step number   2 out of a maximum of   84
 All quantities printed in internal units (Hartrees-Bohrs-Radians)
 Mixed Optimization -- RFO/linear search
 Update second derivatives using D2CorX and points    1    2
 DE= -8.92D-03 DEPred=-9.56D-03 R= 9.33D-01
 TightC=F SS=  1.41D+00  RLast= 2.50D-01 DXNew= 5.0454D-01 7.5126D-01
 Trust test= 9.33D-01 RLast= 2.50D-01 DXMaxT set to 5.05D-01
 ITU=  1  0
 Use linear search instead of GDIIS.
     Eigenvalues ---    0.00230   0.00230   0.00230   0.00230   0.00230
     Eigenvalues ---    0.00386   0.00706   0.00866   0.02291   0.02318
     Eigenvalues ---    0.05431   0.06265   0.07222   0.07343   0.08454
     Eigenvalues ---    0.09296   0.10709   0.11035   0.11595   0.13635
     Eigenvalues ---    0.13856   0.14167   0.15580   0.16111   0.20522
     Eigenvalues ---    0.22084   0.22233   0.22627   0.22995   0.23398
     Eigenvalues ---    0.23618   0.24115   0.25000   0.25000   0.25000
     Eigenvalues ---    0.25000   0.27873   0.29007   0.32666   0.34346
     Eigenvalues ---    0.34359   0.34428   0.34431   0.34435   0.34539
     Eigenvalues ---    0.50477   0.52848   0.54345   0.55278   0.89562
     Eigenvalues ---    0.92250
 RFO step:  Lambda=-1.92658642D-03 EMin= 2.30000000D-03
 Quartic linear search produced a step of  0.00101.
 Iteration  1 RMS(Cart)=  0.08616902 RMS(Int)=  0.00146167
 Iteration  2 RMS(Cart)=  0.00409794 RMS(Int)=  0.00004987
 Iteration  3 RMS(Cart)=  0.00000264 RMS(Int)=  0.00004986
 Iteration  4 RMS(Cart)=  0.00000000 RMS(Int)=  0.00004986
 Variable       Old X    -DE/DX   Delta X   Delta X   Delta X     New X
                                 (Linear)    (Quad)   (Total)
    R1        2.26826  -0.00268  -0.00005  -0.00830  -0.00835   2.25991
    R2        2.54403  -0.00120  -0.00001  -0.00348  -0.00349   2.54055
    R3        2.90900  -0.00525   0.00002  -0.01552  -0.01550   2.89350
    R4        1.83198  -0.00177  -0.00003  -0.00627  -0.00630   1.82568
    R5        3.46288  -0.00094   0.00001  -0.00276  -0.00275   3.46013
    R6        2.06411   0.00038  -0.00000   0.00088   0.00088   2.06499
    R7        2.06411   0.00038  -0.00000   0.00088   0.00088   2.06499
    R8        3.46105  -0.00097  -0.00004  -0.00884  -0.00889   3.45216
    R9        3.45762  -0.00082  -0.00001  -0.00437  -0.00438   3.45324
   R10        2.06392   0.00054  -0.00000   0.00135   0.00134   2.06527
   R11        2.06392   0.00054  -0.00000   0.00135   0.00134   2.06527
   R12        3.45645  -0.00168  -0.00002  -0.00937  -0.00939   3.44705
   R13        2.87651   0.00237  -0.00004   0.00456   0.00452   2.88104
   R14        2.06837   0.00086   0.00000   0.00258   0.00258   2.07095
   R15        2.06837   0.00086   0.00000   0.00258   0.00258   2.07095
   R16        2.26508  -0.00305  -0.00005  -0.00900  -0.00905   2.25603
   R17        2.54326   0.00655  -0.00002   0.01031   0.01029   2.55356
   R18        1.82261   0.00041  -0.00002  -0.00086  -0.00087   1.82174
    A1        2.08502   0.00841  -0.00003   0.03027   0.03024   2.11525
    A2        2.09161   0.00163  -0.00005   0.00149   0.00144   2.09306
    A3        2.10655  -0.01005   0.00008  -0.03176  -0.03168   2.07487
    A4        1.96659  -0.00206   0.00002  -0.01065  -0.01063   1.95596
    A5        2.00638  -0.00354   0.00006  -0.00928  -0.00920   1.99718
    A6        1.86588   0.00020  -0.00001  -0.00386  -0.00386   1.86202
    A7        1.86588   0.00020  -0.00001  -0.00386  -0.00386   1.86202
    A8        1.91414   0.00184  -0.00000   0.01135   0.01132   1.92546
    A9        1.91414   0.00184  -0.00000   0.01135   0.01132   1.92546
   A10        1.89384  -0.00052  -0.00004  -0.00655  -0.00666   1.88718
   A11        1.76178  -0.00581  -0.00005  -0.02791  -0.02795   1.73383
   A12        1.81467   0.00716   0.00001   0.03618   0.03612   1.85079
   A13        1.90987  -0.00108  -0.00002  -0.00140  -0.00145   1.90842
   A14        1.90987  -0.00108  -0.00002  -0.00141  -0.00146   1.90842
   A15        1.94631  -0.00218   0.00001  -0.00951  -0.00965   1.93666
   A16        1.94631  -0.00218   0.00001  -0.00951  -0.00965   1.93666
   A17        1.93290  -0.00025  -0.00001  -0.01138  -0.01153   1.92137
   A18        1.73148  -0.00594  -0.00012  -0.03609  -0.03621   1.69527
   A19        1.88097   0.00302  -0.00001   0.01608   0.01597   1.89694
   A20        1.93583  -0.00122   0.00002  -0.00412  -0.00423   1.93160
   A21        1.93583  -0.00122   0.00002  -0.00411  -0.00423   1.93160
   A22        1.90127   0.00037   0.00000   0.00715   0.00713   1.90840
   A23        1.90127   0.00037   0.00000   0.00715   0.00713   1.90840
   A24        1.90791  -0.00121  -0.00003  -0.02111  -0.02118   1.88673
   A25        2.18101  -0.00255  -0.00001  -0.01151  -0.01153   2.16948
   A26        2.00255   0.00029  -0.00000   0.00099   0.00098   2.00354
   A27        2.09963   0.00226   0.00001   0.01053   0.01054   2.11017
   A28        1.94925  -0.00113  -0.00011  -0.01814  -0.01825   1.93100
    D1        3.14159   0.00000  -0.00000   0.00002   0.00002  -3.14158
    D2        0.00000  -0.00000   0.00000  -0.00002  -0.00002  -0.00002
    D3       -3.14159  -0.00000   0.00000  -0.00003  -0.00003   3.14157
    D4        1.01274  -0.00020  -0.00003  -0.00568  -0.00571   1.00703
    D5       -1.01274   0.00020   0.00003   0.00563   0.00565  -1.00708
    D6       -0.00001   0.00000  -0.00000   0.00001   0.00001   0.00001
    D7       -2.12886  -0.00020  -0.00003  -0.00564  -0.00567  -2.13453
    D8        2.12885   0.00020   0.00003   0.00567   0.00570   2.13454
    D9        3.14159  -0.00000   0.00000  -0.00001  -0.00001   3.14158
   D10       -1.03906  -0.00080   0.00003  -0.00290  -0.00293  -1.04199
   D11        1.03905   0.00080  -0.00003   0.00288   0.00292   1.04197
   D12       -3.14159   0.00000   0.00000   0.00000   0.00000  -3.14159
   D13        1.06041  -0.00083  -0.00002  -0.00791  -0.00799   1.05242
   D14       -1.06041   0.00083   0.00002   0.00791   0.00799  -1.05241
   D15       -3.14159  -0.00000  -0.00000   0.00000   0.00000  -3.14159
   D16       -1.08544   0.00179  -0.00000   0.01456   0.01445  -1.07099
   D17        1.08544  -0.00179   0.00000  -0.01456  -0.01445   1.07099
   D18       -3.14159  -0.00000  -0.00000  -0.00001  -0.00001   3.14159
   D19        1.06182  -0.00160  -0.00001  -0.01624  -0.01619   1.04564
   D20       -1.06182   0.00160   0.00001   0.01622   0.01617  -1.04565
   D21        0.00000  -0.00000   0.00000  -0.00004  -0.00004  -0.00004
   D22        3.14158   0.00000  -0.00000   0.00005   0.00005  -3.14155
   D23        2.10166   0.00052   0.00001   0.00853   0.00859   2.11025
   D24       -1.03995   0.00052   0.00001   0.00862   0.00869  -1.03126
   D25       -2.10165  -0.00052  -0.00001  -0.00861  -0.00868  -2.11033
   D26        1.03993  -0.00052  -0.00001  -0.00852  -0.00858   1.03134
   D27        0.00000  -0.00000   0.00000  -0.00004  -0.00004  -0.00004
   D28        3.14158   0.00000  -0.00000   0.00005   0.00005  -3.14155
         Item               Value     Threshold  Converged?
 Maximum Force            0.010046     0.000450     NO 
 RMS     Force            0.002541     0.000300     NO 
 Maximum Displacement     0.276952     0.001800     NO 
 RMS     Displacement     0.088618     0.001200     NO 
 Predicted change in Energy=-9.728179D-04
 GradGradGradGradGradGradGradGradGradGradGradGradGradGradGradGradGradGrad

                          Input orientation:                          
 ---------------------------------------------------------------------
 Center     Atomic      Atomic             Coordinates (Angstroms)
 Number     Number       Type             X           Y           Z
 ---------------------------------------------------------------------
      1          8           0        1.041875    0.016541   -0.566308
      2          6           0        2.202693    0.043926   -0.280105
      3          8           0        2.602128    0.166307    0.997737
      4          6           0        3.263149   -0.061364   -1.379581
      5         16           0        4.990164   -0.003369   -0.774021
      6          6           0        5.868711   -0.156076   -2.368400
      7         16           0        7.651358   -0.117774   -1.968399
      8          6           0        8.270286   -0.281364   -3.676472
      9          6           0        9.794558   -0.278451   -3.646074
     10          8           0       10.447466   -0.183126   -2.651150
     11          8           0       10.385691   -0.394250   -4.855670
     12          1           0        3.564872    0.173981    1.077948
     13          1           0        3.076985    0.760866   -2.074831
     14          1           0        3.076988   -1.000604   -1.906142
     15          1           0        5.594849    0.681877   -3.014348
     16          1           0        5.594840   -1.101400   -2.843553
     17          1           0        7.918005    0.550441   -4.296951
     18          1           0        7.918008   -1.215819   -4.127787
     19          1           0        9.723075   -0.461012   -5.552683
 ---------------------------------------------------------------------
                    Distance matrix (angstroms):
                    1          2          3          4          5
     1  O    0.000000
     2  C    1.195893   0.000000
     3  O    2.214285   1.344399   0.000000
     4  C    2.366758   1.531176   2.477988   0.000000
     5  S    3.953799   2.831287   2.978361   1.831023   0.000000
     6  C    5.155161   4.223821   4.701636   2.788492   1.826803
     7  S    6.757897   5.706526   5.862883   4.427896   2.919175
     8  C    7.874757   6.961092   7.360479   5.513214   4.388702
     9  C    9.283396   8.310842   8.572855   6.916894   5.604156
    10  O    9.635953   8.581940   8.659435   7.296994   5.773913
    11  O   10.289523   9.385587   9.755022   7.932503   6.776751
    12  H    3.015606   1.927889   0.966110   2.487141   2.343651
    13  H    2.640328   2.121186   3.165385   1.092746   2.436476
    14  H    2.640346   2.121186   3.165389   1.092746   2.436476
    15  H    5.212019   4.403384   5.031800   2.943075   2.419560
    16  H    5.212018   4.403374   5.031791   2.943072   2.419560
    17  H    7.841168   7.004027   7.512644   5.527480   4.614108
    18  H    7.841177   7.004031   7.512646   5.527487   4.614115
    19  H   10.022736   9.198434   9.695846   7.700983   6.741327
                    6          7          8          9         10
     6  C    0.000000
     7  S    1.827375   0.000000
     8  C    2.737574   1.824101   0.000000
     9  C    4.130339   2.726484   1.524578   0.000000
    10  O    4.587557   2.879000   2.408537   1.193838   0.000000
    11  O    5.162010   3.986144   2.424498   1.351285   2.215468
    12  H    4.158597   5.105362   6.704683   7.831352   7.836058
    13  H    2.953083   4.659209   5.533703   6.976731   7.453003
    14  H    2.953071   4.659198   5.533689   6.976720   7.453003
    15  H    1.092892   2.441860   2.919624   4.354178   4.942473
    16  H    1.092893   2.441860   2.919627   4.354184   4.942492
    17  H    2.901393   2.437163   1.095899   2.152244   3.105632
    18  H    2.901399   2.437162   1.095898   2.152242   3.105651
    19  H    5.008869   4.154144   2.379714   1.916663   3.003474
                   11         12         13         14         15
    11  O    0.000000
    12  H    9.058382   0.000000
    13  H    7.904716   3.243838   0.000000
    14  H    7.904715   3.243836   1.769529   0.000000
    15  H    5.244110   4.596265   2.688600   3.224669   0.000000
    16  H    5.244133   4.596253   3.224680   2.688583   1.791438
    17  H    2.700756   6.926834   5.330813   5.617576   2.656953
    18  H    2.700786   6.926833   5.617599   5.330807   3.199699
    19  H    0.964024   9.071491   7.599931   7.599927   4.979116
                   16         17         18         19
    16  H    0.000000
    17  H    3.199694   0.000000
    18  H    2.656964   1.774343   0.000000
    19  H    4.979137   2.420367   2.420399   0.000000
 Stoichiometry    C5H8O4S2
 Framework group  C1[X(C5H8O4S2)]
 Deg. of freedom    51
 Full point group                 C1      NOp   1
 Largest Abelian subgroup         C1      NOp   1
 Largest concise Abelian subgroup C1      NOp   1
                         Standard orientation:                         
 ---------------------------------------------------------------------
 Center     Atomic      Atomic             Coordinates (Angstroms)
 Number     Number       Type             X           Y           Z
 ---------------------------------------------------------------------
      1          8           0       -5.121076   -0.982476   -0.000018
      2          6           0       -4.196739   -0.223687    0.000006
      3          8           0       -4.388198    1.107009    0.000001
      4          6           0       -2.764353   -0.764769   -0.000001
      5         16           0       -1.466827    0.527157   -0.000005
      6          6           0        0.015146   -0.541002    0.000009
      7         16           0        1.451705    0.588421    0.000013
      8          6           0        2.748413   -0.694502    0.000022
      9          6           0        4.111391   -0.011399    0.000019
     10          8           0        4.270996    1.171722   -0.000025
     11          8           0        5.167647   -0.854189   -0.000025
     12          1           0       -3.553687    1.593795    0.000008
     13          1           0       -2.668493   -1.398878   -0.884766
     14          1           0       -2.668486   -1.398880    0.884763
     15          1           0        0.010081   -1.167166   -0.895707
     16          1           0        0.010070   -1.167158    0.895731
     17          1           0        2.661900   -1.332031   -0.887146
     18          1           0        2.661901   -1.332019    0.887197
     19          1           0        4.870570   -1.771297   -0.000014
 ---------------------------------------------------------------------
 Rotational constants (GHZ):           4.0138344           0.2246899           0.2136389
 Standard basis: 6-31G(2df,p) (6D, 7F)
 There are   389 symmetry adapted cartesian basis functions of A   symmetry.
 There are   356 symmetry adapted basis functions of A   symmetry.
   356 basis functions,   588 primitive gaussians,   389 cartesian basis functions
    51 alpha electrons       51 beta electrons
       nuclear repulsion energy       762.7070218460 Hartrees.
 NAtoms=   19 NActive=   19 NUniq=   19 SFac= 1.00D+00 NAtFMM=   60 NAOKFM=F Big=F
 Integral buffers will be    131072 words long.
 Raffenetti 2 integral format.
 Two-electron integral symmetry is turned on.
 One-electron integrals computed using PRISM.
 PrsmSu:  requested number of processors reduced to:  13 ShMem   1 Linda.
 NBasis=   356 RedAO= T EigKep=  1.00D-03  NBF=   356
 NBsUse=   356 1.00D-06 EigRej= -1.00D+00 NBFU=   356
 Initial guess from the checkpoint file:  "OdCqOrCSCSCCqdOrO.chk"
 B after Tr=     0.000000    0.000000    0.000000
         Rot=    1.000000    0.000000    0.000000    0.000624 Ang=   0.07 deg.
 ExpMin= 1.17D-01 ExpMax= 2.19D+04 ExpMxC= 3.30D+03 IAcc=2 IRadAn=         4 AccDes= 0.00D+00
 Harris functional with IExCor=  402 and IRadAn=       4 diagonalized for initial guess.
 HarFok:  IExCor=  402 AccDes= 0.00D+00 IRadAn=         4 IDoV= 1 UseB2=F ITyADJ=14
 ICtDFT=  3500011 ScaDFX=  1.000000  1.000000  1.000000  1.000000
 FoFCou: FMM=F IPFlag=           0 FMFlag=      100000 FMFlg1=           0
         NFxFlg=           0 DoJE=T BraDBF=F KetDBF=T FulRan=T
         wScrn=  0.000000 ICntrl=       500 IOpCl=  0 I1Cent=   200000004 NGrid=           0
         NMat0=    1 NMatS0=      1 NMatT0=    0 NMatD0=    1 NMtDS0=    0 NMtDT0=    0
 Petite list used in FoFCou.
 Requested convergence on RMS density matrix=1.00D-08 within 128 cycles.
 Requested convergence on MAX density matrix=1.00D-06.
 Requested convergence on             energy=1.00D-06.
 No special actions if energy rises.
 Integral accuracy reduced to 1.0D-05 until final iterations.
 Initial convergence to 1.0D-05 achieved.  Increase integral accuracy.
 SCF Done:  E(RB3LYP) =  -1292.66674162     A.U. after   11 cycles
            NFock= 11  Conv=0.72D-08     -V/T= 2.0043
 PrsmSu:  requested number of processors reduced to:  13 ShMem   1 Linda.
 Calling FoFJK, ICntrl=      2127 FMM=F ISym2X=0 I1Cent= 0 IOpClX= 0 NMat=1 NMatS=1 NMatT=0.
 ***** Axes restored to original set *****
 -------------------------------------------------------------------
 Center     Atomic                   Forces (Hartrees/Bohr)
 Number     Number              X              Y              Z
 -------------------------------------------------------------------
      1        8          -0.004057888    0.000038736    0.000422810
      2        6           0.001678584   -0.000085264   -0.000937688
      3        8          -0.000872881    0.000095768    0.001010851
      4        6           0.001980693    0.000125712    0.001327430
      5       16          -0.001766732   -0.000170628   -0.001782113
      6        6           0.000572509    0.000277142    0.002897045
      7       16          -0.000271871   -0.000220729   -0.002306110
      8        6           0.000599315    0.000122696    0.001313409
      9        6          -0.002114114   -0.000094473   -0.001098479
     10        8           0.002369567    0.000327126    0.003458453
     11        8           0.000874137   -0.000156016   -0.001601394
     12        1           0.000855936    0.000028621    0.000302514
     13        1           0.000365009    0.000153180   -0.000502877
     14        1           0.000365451   -0.000245796   -0.000464954
     15        1           0.000188795    0.000384656   -0.000273505
     16        1           0.000188710   -0.000429522   -0.000195530
     17        1          -0.000418946    0.000228280   -0.000213218
     18        1          -0.000420444   -0.000264998   -0.000166397
     19        1          -0.000115830   -0.000114490   -0.001190245
 -------------------------------------------------------------------
 Cartesian Forces:  Max     0.004057888 RMS     0.001194886

 GradGradGradGradGradGradGradGradGradGradGradGradGradGradGradGradGradGrad
 Berny optimization.
 Using GEDIIS/GDIIS optimizer.
 FormGI is forming the generalized inverse of G from B-inverse, IUseBI=4.
 Internal  Forces:  Max     0.004204054 RMS     0.001089719
 Search for a local minimum.
 Step number   3 out of a maximum of   84
 All quantities printed in internal units (Hartrees-Bohrs-Radians)
 Mixed Optimization -- RFO/linear search
 Update second derivatives using D2CorX and points    1    2    3
 DE= -9.75D-04 DEPred=-9.73D-04 R= 1.00D+00
 TightC=F SS=  1.41D+00  RLast= 9.94D-02 DXNew= 8.4853D-01 2.9826D-01
 Trust test= 1.00D+00 RLast= 9.94D-02 DXMaxT set to 5.05D-01
 ITU=  1  1  0
 Use linear search instead of GDIIS.
     Eigenvalues ---    0.00230   0.00230   0.00230   0.00230   0.00230
     Eigenvalues ---    0.00386   0.00717   0.00879   0.02291   0.02318
     Eigenvalues ---    0.05484   0.06079   0.06874   0.07332   0.08143
     Eigenvalues ---    0.08973   0.10712   0.11277   0.11698   0.13731
     Eigenvalues ---    0.14013   0.14133   0.15725   0.16096   0.17599
     Eigenvalues ---    0.22060   0.22344   0.22601   0.23197   0.23590
     Eigenvalues ---    0.24089   0.24725   0.25000   0.25000   0.25000
     Eigenvalues ---    0.26483   0.27898   0.29059   0.34311   0.34346
     Eigenvalues ---    0.34416   0.34428   0.34435   0.34435   0.35271
     Eigenvalues ---    0.50697   0.52897   0.54016   0.54802   0.92249
     Eigenvalues ---    0.96375
 RFO step:  Lambda=-2.45199086D-04 EMin= 2.30000000D-03
 Quartic linear search produced a step of  0.00058.
 Iteration  1 RMS(Cart)=  0.02898757 RMS(Int)=  0.00016012
 Iteration  2 RMS(Cart)=  0.00051885 RMS(Int)=  0.00001257
 Iteration  3 RMS(Cart)=  0.00000010 RMS(Int)=  0.00001257
 Variable       Old X    -DE/DX   Delta X   Delta X   Delta X     New X
                                 (Linear)    (Quad)   (Total)
    R1        2.25991   0.00384  -0.00000   0.00255   0.00254   2.26245
    R2        2.54055   0.00125  -0.00000   0.00174   0.00173   2.54228
    R3        2.89350   0.00224  -0.00001   0.00623   0.00623   2.89973
    R4        1.82568   0.00088  -0.00000   0.00072   0.00071   1.82639
    R5        3.46013  -0.00068  -0.00000  -0.00283  -0.00283   3.45730
    R6        2.06499   0.00037   0.00000   0.00110   0.00110   2.06609
    R7        2.06499   0.00037   0.00000   0.00110   0.00110   2.06609
    R8        3.45216   0.00015  -0.00001  -0.00086  -0.00086   3.45129
    R9        3.45324   0.00009  -0.00000  -0.00017  -0.00017   3.45306
   R10        2.06527   0.00041   0.00000   0.00124   0.00124   2.06651
   R11        2.06527   0.00041   0.00000   0.00124   0.00124   2.06651
   R12        3.44705  -0.00021  -0.00001  -0.00207  -0.00208   3.44497
   R13        2.88104   0.00100   0.00000   0.00328   0.00328   2.88431
   R14        2.07095   0.00043   0.00000   0.00146   0.00146   2.07241
   R15        2.07095   0.00043   0.00000   0.00146   0.00146   2.07241
   R16        2.25603   0.00420  -0.00001   0.00283   0.00282   2.25885
   R17        2.55356   0.00285   0.00001   0.00581   0.00581   2.55937
   R18        1.82174   0.00095  -0.00000   0.00143   0.00143   1.82317
    A1        2.11525  -0.00153   0.00002  -0.00365  -0.00363   2.11162
    A2        2.09306   0.00160   0.00000   0.00559   0.00559   2.09865
    A3        2.07487  -0.00007  -0.00002  -0.00194  -0.00196   2.07292
    A4        1.95596   0.00042  -0.00001   0.00193   0.00193   1.95789
    A5        1.99718   0.00169  -0.00001   0.00843   0.00842   2.00559
    A6        1.86202   0.00003  -0.00000   0.00176   0.00176   1.86378
    A7        1.86202   0.00003  -0.00000   0.00177   0.00176   1.86379
    A8        1.92546  -0.00083   0.00001  -0.00364  -0.00365   1.92181
    A9        1.92546  -0.00083   0.00001  -0.00364  -0.00365   1.92181
   A10        1.88718  -0.00012  -0.00000  -0.00507  -0.00508   1.88210
   A11        1.73383   0.00053  -0.00002  -0.00121  -0.00122   1.73260
   A12        1.85079   0.00390   0.00002   0.02138   0.02139   1.87219
   A13        1.90842  -0.00078  -0.00000  -0.00209  -0.00210   1.90632
   A14        1.90842  -0.00078  -0.00000  -0.00209  -0.00210   1.90632
   A15        1.93666  -0.00121  -0.00001  -0.00640  -0.00645   1.93021
   A16        1.93666  -0.00121  -0.00001  -0.00640  -0.00645   1.93021
   A17        1.92137   0.00019  -0.00001  -0.00352  -0.00357   1.91780
   A18        1.69527   0.00095  -0.00002  -0.00152  -0.00154   1.69373
   A19        1.89694   0.00133   0.00001   0.00788   0.00787   1.90482
   A20        1.93160  -0.00054  -0.00000  -0.00278  -0.00280   1.92880
   A21        1.93160  -0.00054  -0.00000  -0.00278  -0.00280   1.92880
   A22        1.90840  -0.00008   0.00000   0.00158   0.00159   1.90999
[...]
 8,0.05832785,0.41257584,-0.00984450,0.00677857,0.01589212,0.00678867,-
 0.02629924,-0.09869790,-0.01721838,-0.03128326,-0.00652168,0.01955199,
 -0.04256324,0.55206256,0.00162925,0.00215994,0.00098639,-0.01384351,0.
 00988976,0.00064328,0.00098664,0.00008044,-0.00124662,-0.10075128,0.04
 916884,-0.02171859,0.21602456,0.00227007,-0.00750824,0.00023779,0.0223
 0853,-0.01089326,-0.00020120,0.00810078,-0.00826197,0.00014994,0.02811
 079,-0.06203784,0.01739261,-0.03131965,0.16138186,0.00267058,-0.001298
 52,0.00321900,-0.00073131,-0.00115877,-0.00400898,0.00713279,-0.006659
 81,0.00110831,-0.00313201,0.01379912,-0.04463746,-0.03528453,-0.079025
 62,0.13972874,0.00073844,-0.00100949,0.00000128,0.00033018,-0.00058085
 ,-0.00029497,0.00090732,-0.00071816,0.00020083,-0.01641795,-0.01411988
 ,0.01609694,-0.04862176,-0.00347057,0.01315845,0.30057004,-0.00026285,
 -0.00137858,0.00082744,0.00234957,0.00377199,-0.00195374,-0.00070238,-
 0.00159607,0.00063569,0.00418090,0.00612739,-0.00691796,-0.03018329,-0
 .07321524,0.04720925,-0.06100486,0.48081699,-0.00075356,0.00165215,-0.
 00004130,-0.00088733,-0.00239950,-0.00122598,0.00038099,0.00062267,0.0
 0064914,-0.00084398,-0.00192388,0.00282997,0.03853170,0.04234193,-0.08
 526761,0.02657626,0.06695072,0.45550285,0.00019461,-0.00047458,0.00009
 059,-0.00015627,0.00034362,-0.00039205,0.00034510,-0.00055323,0.000044
 65,-0.00100435,-0.00004720,0.00118423,-0.01417983,-0.00421704,0.002284
 83,-0.12228274,0.02309985,-0.05315395,0.23386231,-0.00007073,0.0003935
 9,-0.00012300,-0.00015612,-0.00065419,0.00017864,0.00008530,0.00028965
 ,0.00006112,-0.00097548,-0.00137121,0.00172211,-0.01092137,0.00116775,
 -0.00285003,0.00857042,-0.03575437,0.00683787,0.00326848,0.07041629,0.
 00011398,-0.00070557,0.00001271,0.00002640,0.00145116,0.00054786,-0.00
 019896,-0.00039575,-0.00039065,0.00267298,0.00322261,-0.00390017,0.013
 41241,-0.00359986,0.00482380,-0.02048824,0.00971065,-0.05817223,0.0010
 3651,-0.06534999,0.21994020,-0.00009925,0.00040235,0.00008406,0.000088
 72,-0.00090390,-0.00042418,0.00012421,0.00050538,0.00035820,-0.0007475
 7,-0.00209552,0.00153039,-0.00554188,0.00228189,-0.00066695,-0.0132580
 1,-0.01043611,0.02208378,-0.04720656,-0.00220211,0.00322368,0.41754686
 ,0.00018741,-0.00008261,0.00014331,-0.00056741,0.00009446,-0.00038140,
 0.00029939,0.00003009,0.00016655,0.00012220,0.00030483,-0.00002768,0.0
 0110143,-0.00002114,0.00023056,-0.00038320,-0.00020742,-0.00122540,-0.
 01208753,-0.04496936,0.03480290,-0.01999205,0.50575220,-0.00029839,0.0
 0067638,-0.00000835,0.00027658,-0.00105668,-0.00032857,-0.00017772,0.0
 0040009,0.00026079,-0.00062954,-0.00087963,0.00112671,-0.00115296,0.00
 123222,-0.00092735,-0.00144527,-0.00178528,0.00477183,0.03092543,0.035
 48876,-0.12437650,0.05194057,0.02992353,0.43695361,0.00062090,-0.00098
 823,-0.00001259,-0.00064695,0.00130284,0.00022426,0.00050913,-0.000517
 21,-0.00030200,-0.00022230,0.00068851,-0.00031740,0.00114095,-0.000376
 70,-0.00049062,-0.00185906,0.00082549,-0.00123452,-0.01100104,-0.00467
 260,0.01127953,-0.16426545,-0.00066556,-0.00127694,0.65893400,0.000105
 66,-0.00011784,0.00003435,-0.00015283,0.00007731,-0.00006125,0.0001231
 3,-0.00000712,0.00005424,-0.00024891,-0.00024516,0.00021355,-0.0007826
 9,0.00049485,-0.00003518,-0.00079070,-0.00187165,0.00233115,-0.0130232
 7,0.00011043,0.00000784,-0.00343516,-0.08847310,-0.00597346,-0.0791207
 9,0.31529279,-0.00027026,0.00023291,-0.00014764,0.00043577,-0.00008396
 ,0.00031972,-0.00038230,-0.00009950,-0.00024711,0.00047909,0.00057650,
 -0.00030081,0.00200449,-0.00049265,0.00019680,0.00109602,0.00300184,-0
 .00737647,0.03350479,0.00055885,-0.00023884,0.00666034,-0.00647860,-0.
 07493994,0.21445943,-0.23743617,0.82847580,-0.00029240,0.00047571,0.00
 004593,0.00029627,-0.00066607,-0.00019755,-0.00022373,0.00029318,0.000
 21411,0.00011989,-0.00035127,0.00017778,-0.00018457,0.00036008,0.00012
 165,0.00072421,0.00007127,-0.00054738,0.00030221,0.00097407,-0.0027175
 5,-0.02626286,0.01477185,-0.03896360,-0.30563400,0.11121397,-0.2887336
 7,0.30688460,-0.00004422,0.00011165,-0.00000963,0.00004158,-0.00014889
 ,-0.00003398,-0.00002019,0.00006678,0.00001286,0.00006938,0.00003297,0
 .00001200,0.00023170,0.00000899,-0.00007119,0.00002535,0.00162521,-0.0
 0010100,0.00094940,-0.00201060,-0.00003771,0.00743460,0.02118126,0.012
 58669,0.11263905,-0.14360872,0.17267102,-0.12476904,0.12045546,0.00016
 043,-0.00018011,0.00010524,-0.00028013,0.00015687,-0.00017787,0.000208
 00,0.00002165,0.00013797,-0.00007922,0.00000390,-0.00004453,-0.0005191
 1,-0.00017759,0.00036222,0.00005055,-0.00055792,0.00209445,-0.00250764
 ,0.00012937,-0.00219860,-0.02102525,0.01313915,-0.00748444,-0.29179595
 ,0.17250959,-0.52242642,0.32466318,-0.22748711,0.61774006,-0.00042092,
 0.00069161,-0.00004399,0.00049194,-0.00092691,-0.00009146,-0.00034620,
 0.00034084,0.00013391,0.00001386,-0.00069667,0.00038715,-0.00096188,0.
 00082582,-0.00027915,0.00042043,-0.00123385,0.00274979,-0.00549807,0.0
 0120548,-0.00372294,-0.02548449,-0.01380571,0.03378374,-0.17965283,-0.
 02194340,0.05204901,0.03578633,0.00627042,-0.01543159,0.42424285,-0.00
 014621,0.00025348,-0.00003447,0.00018805,-0.00032301,0.00000449,-0.000
 12730,0.00011947,0.00001144,0.00007263,-0.00013412,0.00005954,-0.00009
 921,0.00014215,-0.00006189,0.00019709,0.00013006,0.00026286,0.00067928
 ,0.00167155,-0.00041247,-0.00493856,0.01192183,0.00828633,-0.04354467,
 -0.07232329,0.05543302,-0.00014555,-0.00180157,0.03943914,-0.04299465,
 0.10449541,0.00035573,-0.00051857,0.00008639,-0.00045922,0.00062687,-0
 .00005600,0.00034107,-0.00018217,0.00000741,-0.00011117,0.00034825,-0.
 00023568,0.00021594,-0.00045706,0.00018994,-0.00034815,0.00031678,-0.0
 0044075,-0.00205699,-0.00037627,0.00269377,0.01126451,0.00797547,-0.00
 425187,0.10574497,0.05581080,-0.18739123,0.00097577,0.03970614,-0.0863
 8315,0.11800943,-0.20218005,0.53505367,0.00300871,-0.00201161,-0.00470
 118,-0.03338009,0.02431589,-0.01177316,-0.18368531,0.18608923,-0.05078
 542,0.00131187,-0.00014454,0.00149788,-0.00006327,-0.00372414,-0.00174
 810,-0.00001782,0.00051052,0.00105400,0.00003848,0.00011592,0.00016137
 ,-0.00017760,-0.00031013,0.00003121,-0.00031053,-0.00007464,0.00019805
 ,0.00013036,0.00000753,-0.00011446,0.00020615,0.00008317,-0.00018605,0
 .21374699,-0.00673532,0.00256289,-0.00821721,0.00355754,0.01257847,0.0
 1152296,0.21514353,-0.29526991,0.04245285,-0.00497946,-0.00299108,-0.0
 0411698,-0.00171319,0.00327150,0.00212931,0.00152358,0.00180903,0.0003
 0157,0.00068787,-0.00025115,0.00004317,-0.00035872,0.00002306,-0.00028
 587,0.00050665,0.00002760,0.00002751,-0.00027591,-0.00005989,0.0000028
 4,-0.00032861,-0.00011423,0.00019509,-0.20630669,0.28123177,-0.0084106
 7,-0.00437376,-0.00218562,-0.01922488,0.03138451,-0.00764250,-0.037929
 50,0.01736923,-0.03654027,-0.00198546,-0.00116965,-0.00245112,0.000927
 95,0.00162703,0.00072389,0.00051154,-0.00051132,-0.00182737,0.00042351
 ,-0.00014091,0.00032209,-0.00032414,0.00010935,-0.00034617,0.00061361,
 0.00001257,0.00005605,-0.00034173,-0.00002578,-0.00002158,-0.00035259,
 -0.00009542,0.00019547,0.06579681,-0.04524813,0.04990243,-0.00022589,0
 .00115066,0.00104571,-0.00088587,-0.00252260,-0.00202451,0.00136234,-0
 .00011898,-0.00021723,-0.06889485,-0.00466428,-0.09135556,-0.01721448,
 0.00642332,-0.01887834,0.00202942,-0.00000852,-0.00071358,0.00057772,0
 .00015785,-0.00010365,0.00005282,-0.00012833,0.00005669,0.00011871,0.0
 0001068,0.00001542,-0.00001340,-0.00000445,-0.00001249,-0.00007343,-0.
 00002005,0.00003940,-0.00061983,0.00044344,0.00014653,0.07703045,-0.00
 060085,0.00111696,0.00319346,-0.01126412,0.00105243,-0.03149537,-0.002
 11702,-0.00690716,-0.00259258,0.00037024,-0.04329256,-0.00090100,0.007
 88449,-0.00170866,0.01078987,-0.00134910,-0.00035618,-0.00065889,-0.00
 022046,-0.00022264,0.00016473,-0.00001544,0.00002667,0.00005399,-0.000
 21149,-0.00002816,0.00005368,0.00010991,0.00001375,-0.00001697,0.00012
 168,0.00003482,-0.00008920,0.00146067,-0.00071707,0.00028540,-0.000258
 04,0.05018691,0.00107192,0.00032937,0.00249347,-0.00534863,0.00316040,
 -0.01099575,-0.00014182,-0.00212160,0.00023413,-0.08349105,-0.00558497
 ,-0.29358731,0.00227519,0.00037384,0.00407241,-0.00011200,0.00039733,0
 .00144344,-0.00002204,-0.00008731,0.00008170,-0.00006552,0.00003473,-0
 .00004366,-0.00000748,-0.00000933,0.00000509,-0.00000173,0.00000588,-0
 .00000189,0.00000664,0.00000190,-0.00000013,0.00075806,-0.00017081,0.0
 0017712,0.09164374,0.00517585,0.31198018,-0.00069380,0.00070028,0.0005
 8644,0.00037200,-0.00057703,-0.00128105,0.00072429,-0.00021592,-0.0005
 1703,-0.13923898,-0.09637658,0.09310602,-0.01612173,-0.01146228,0.0134
 0445,-0.00527182,0.00281988,-0.00204338,0.00004723,-0.00067434,0.00168
 527,-0.00081197,0.00007200,-0.00050962,0.00032378,-0.00010103,0.000215
 30,-0.00015629,0.00000121,0.00000493,-0.00029394,-0.00005709,0.0001544
 3,-0.00043619,-0.00008801,0.00036394,0.00743267,0.00591941,-0.00590132
 ,0.15375698,0.00299949,0.00046096,-0.00406677,-0.01872084,-0.01825538,
 0.01990078,0.00129029,-0.00012113,-0.00395632,-0.09670161,-0.12991810,
 0.08703447,0.00732883,0.00727266,-0.00775840,0.00373301,-0.00173352,0.
 00114907,0.00008958,0.00058548,-0.00107263,0.00060959,-0.00002938,0.00
 034791,-0.00024569,0.00006501,-0.00014217,0.00012497,-0.00000216,-0.00
 000652,0.00022838,0.00004589,-0.00012614,-0.00017123,-0.00059038,0.000
 34888,0.00018841,0.00047557,-0.00086601,0.09950055,0.14169403,0.001163
 34,0.00035985,-0.00033351,-0.00982390,-0.00694647,0.00825955,0.0010421
 8,-0.00014611,-0.00283355,0.08964459,0.08263861,-0.12367191,-0.0016305
 8,-0.00134765,0.00116233,-0.00040885,0.00019056,0.00017690,0.00001048,
 -0.00008980,0.00022895,-0.00017613,0.00000171,0.00000025,0.00001656,-0
 .00002796,0.00007677,0.00000359,0.00001079,-0.00003041,-0.00002257,-0.
 00000101,-0.00000375,-0.00019823,-0.00030463,0.00034961,0.01933812,0.0
 1684327,-0.01560903,-0.09865922,-0.09104167,0.13219193,-0.00040730,0.0
 0036609,-0.00010909,0.00022101,0.00035907,0.00061555,-0.00059879,0.000
 21450,0.00020562,0.00175920,-0.00047286,-0.00041049,-0.00113859,-0.016
 29281,0.00545085,-0.05924536,0.08165223,0.00500134,-0.01924671,0.02095
 935,-0.00374072,0.00179887,0.00081073,-0.00137161,-0.00022595,0.000220
 95,-0.00121910,-0.00023603,-0.00059614,0.00073617,-0.00018590,-0.00017
 257,0.00039612,0.00023124,-0.00040783,-0.00017558,-0.00031977,-0.00010
 174,0.00002498,0.00030252,-0.00009538,-0.00005946,0.07407503,-0.000155
 64,0.00052881,-0.00022704,-0.00123662,-0.00004694,0.00041574,0.0002415
 1,0.00032725,-0.00053774,0.00159497,0.00153976,-0.00030058,-0.00081332
 ,-0.01260817,0.00490207,0.07808594,-0.29284187,-0.01969593,-0.00042402
 ,0.00503912,0.00120791,0.00017974,0.00096432,-0.00072801,0.00001248,0.
 00012396,-0.00012943,-0.00015444,-0.00011128,0.00001383,0.00002129,0.0
 0000676,0.00001191,0.00015490,-0.00052331,0.00013375,-0.00051771,-0.00
 005881,-0.00022405,0.00035634,0.00010969,-0.00015915,-0.08184067,0.307
 74454,-0.00031975,-0.00020524,-0.00070469,0.00292820,0.00043270,0.0016
 9138,-0.00154091,-0.00113394,-0.00019985,-0.00185415,-0.00066129,0.001
 13970,0.00055723,0.02035623,-0.00587124,0.00290915,-0.01374449,-0.0459
 7786,-0.00524470,0.00712327,0.00052968,0.00025622,-0.00114137,0.000330
 62,0.00011731,0.00024156,-0.00007140,-0.00007822,-0.00015036,-0.000013
 82,-0.00002628,-0.00001822,0.00005995,0.00013945,0.00098144,-0.0006357
 6,0.00022411,-0.00031064,-0.00002020,-0.00049686,0.00013598,-0.0000915
 4,-0.00574341,0.01593998,0.04954026,-0.00023676,0.00029998,-0.00015308
 ,0.00048668,-0.00009400,0.00029816,-0.00047992,0.00035095,-0.00018515,
 0.00169476,-0.00030714,0.00071300,-0.00152189,0.00017561,0.01732599,-0
 .04233540,-0.01148784,-0.03779293,-0.01545466,-0.00765560,-0.02296037,
 0.00240584,0.00046296,-0.00189398,-0.00040507,0.00079935,-0.00132919,-
 0.00028256,-0.00017273,0.00115221,0.00000596,-0.00016458,0.00035607,-0
 .00004554,-0.00073563,-0.00011522,-0.00026293,0.00027077,-0.00071578,0
 .00000541,-0.00010789,-0.00024886,0.00342248,0.00372857,0.00861352,0.0
 5344712,0.00004409,0.00021214,-0.00005026,-0.00064336,-0.00054060,0.00
 017396,0.00028389,0.00074031,-0.00040569,0.00065686,-0.00032795,-0.000
 67268,-0.00217847,0.00247194,0.01978248,-0.00960270,-0.08648137,-0.096
 24420,0.00120638,0.00255936,0.00375943,-0.00011536,0.00024798,-0.00001
 937,-0.00014075,-0.00001581,0.00023169,0.00020561,-0.00006101,0.000050
 67,-0.00000215,-0.00001863,-0.00003899,-0.00006372,-0.00102264,0.00027
 880,-0.00010731,0.00036483,-0.00042639,0.00015713,-0.00003988,0.000005
 62,-0.00378361,-0.00958180,-0.02783974,0.01459590,0.09169286,0.0001262
 5,-0.00026298,0.00016972,-0.00018106,0.00029189,-0.00039484,0.00017415
 ,-0.00026029,0.00030003,-0.00015209,0.00003973,0.00062599,0.00300050,0
 .00162689,-0.01517129,-0.03488517,-0.10276647,-0.26951180,-0.00359674,
 -0.00030831,-0.00382155,0.00160131,0.00086967,0.00167963,-0.00035824,0
 .00030628,-0.00003092,0.00031919,-0.00016738,0.00022537,0.00006451,-0.
 00001725,-0.00002063,-0.00002187,0.00065292,-0.00006001,0.00069129,-0.
 00044719,-0.00018742,-0.00002785,0.00004962,0.00016327,-0.00067680,-0.
 00033130,0.00002279,0.03516859,0.10161764,0.28555126,-0.00001932,0.000
 10029,-0.00002928,-0.00004421,-0.00011339,0.00001324,-0.00000311,0.000
 02898,-0.00001956,0.00001690,0.00006602,-0.00007045,0.00040214,0.00021
 215,-0.00015806,0.00164897,-0.00064320,-0.00011174,0.00065232,-0.01176
 579,0.00803952,-0.07002608,0.07648303,-0.01414116,-0.00624088,0.035248
 44,-0.00686997,-0.00586645,-0.00382756,-0.00250547,0.00051277,-0.00406
 501,0.00032038,0.00002457,-0.00002640,0.00000739,-0.00006357,0.0000148
 2,0.00001260,0.00001170,-0.00001116,0.00000641,-0.00012660,0.00082365,
 -0.00019031,-0.00017578,-0.00017163,-0.00005606,0.07587065,-0.00004605
 ,0.00007917,-0.00003635,0.00007114,-0.00008770,0.00004555,-0.00005900,
 0.00000944,-0.00002466,0.00000610,-0.00006484,0.00001979,0.00006733,0.
 00022350,-0.00015442,0.00005875,0.00104735,0.00000464,-0.00066355,-0.0
 0304125,0.00579231,0.07777178,-0.27347023,0.03789763,0.00010121,0.0001
 4795,0.00223327,-0.00081761,0.00005851,-0.00208325,-0.00015647,0.00128
 093,-0.00040158,0.00004279,-0.00001277,-0.00001834,-0.00002950,0.00000
 476,0.00000898,-0.00002464,0.00001170,0.00000133,-0.00081027,-0.000399
 78,0.00013377,-0.00009797,-0.00031591,-0.00028855,-0.08315333,0.292512
 22,0.00004612,-0.00021663,-0.00001315,0.00006176,0.00031353,0.00012864
 ,-0.00002875,-0.00015473,-0.00005836,-0.00007362,-0.00002302,0.0000998
 9,-0.00056037,-0.00028357,-0.00002753,-0.00126002,-0.00109377,0.000620
 13,-0.00125410,0.02251395,-0.01294208,-0.01663309,0.04490256,-0.046787
 99,-0.00342196,0.00337456,-0.00232979,-0.00129453,-0.00085349,0.000484
 24,0.00100516,-0.00030256,-0.00024889,-0.00001957,0.00013758,0.0000522
 2,0.00008111,-0.00005875,-0.00002260,0.00000499,-0.00000044,-0.0000182
 0,0.00099065,-0.00028258,0.00029192,0.00026442,-0.00016415,-0.00003503
 ,0.01375586,-0.04505877,0.05582295,-0.00003173,0.00000914,-0.00003937,
 0.00005606,0.00003595,0.00010018,-0.00005654,-0.00006730,-0.00005698,0
 .00004311,0.00004079,-0.00007866,-0.00005311,-0.00014571,-0.00017559,0
 .00216244,0.00049640,0.00163117,0.00000123,0.00349726,0.01281681,-0.06
 625157,-0.04537976,-0.05732735,-0.00557364,-0.02185717,-0.02846447,-0.
 00570807,0.00440492,0.00081504,0.00035126,0.00279504,0.00298147,0.0000
 7298,0.00004253,0.00000444,-0.00003511,0.00001036,0.00001656,0.0000235
 9,-0.00001777,0.00000497,-0.00011387,-0.00006236,-0.00027097,-0.000269
 60,-0.00031437,-0.00118915,0.00407430,0.00708330,0.00760026,0.07185853
 ,-0.00002673,0.00002465,-0.00000455,0.00005376,-0.00002682,0.00003049,
 -0.00003291,0.00000511,-0.00001720,0.00002768,-0.00001046,-0.00011834,
 -0.00000691,-0.00008890,0.00023072,0.00095839,-0.00003073,-0.00001996,
 0.00091111,0.00659313,0.01160134,-0.04465731,-0.13491552,-0.11584692,0
 .00198463,0.00139070,0.00098665,0.00136620,-0.00114129,0.00053459,-0.0
 0059571,0.00033227,0.00088729,0.00005520,-0.00002188,-0.00001747,-0.00
 000777,0.00002737,0.00000344,0.00001888,-0.00000751,0.00000998,-0.0000
 5455,-0.00020228,-0.00011135,0.00017152,0.00010449,-0.00060954,-0.0097
 7425,-0.01753255,-0.02249870,0.05051861,0.14626516,0.00010472,-0.00008
 338,0.00005834,-0.00019768,0.00004394,-0.00013956,0.00015049,0.0000578
 2,0.00007840,-0.00004740,0.00002968,0.00018332,-0.00022205,0.00004388,
 0.00039633,-0.00161912,0.00031728,0.00114441,-0.00014984,-0.00503638,-
 0.02300702,-0.05958098,-0.12282046,-0.18783876,-0.00264879,0.00021780,
 -0.00401458,-0.00045442,-0.00060494,0.00168318,0.00078825,0.00069954,0
 .00072466,-0.00016121,-0.00002162,0.00003021,0.00005199,-0.00002983,-0
 .00002232,-0.00001269,0.00001175,-0.00001486,0.00013025,-0.00002200,-0
 .00000527,0.00150884,-0.00002957,0.00050231,0.00093394,0.00268436,0.00
 485327,0.06129648,0.12499744,0.20506881,0.00006911,-0.00009766,-0.0000
 1062,-0.00006994,0.00012898,0.00003289,0.00005641,-0.00005103,-0.00003
 616,-0.00002673,0.00005163,-0.00002002,0.00001433,-0.00006015,-0.00000
 489,-0.00022144,-0.00004329,0.00007324,0.00000911,0.00026002,-0.000536
 07,-0.00188403,-0.00099122,0.00217396,0.01439025,-0.00619167,0.0161513
 2,0.00061635,-0.00264079,0.00648076,-0.24911394,0.09246018,-0.23799370
 ,-0.00003517,0.00005061,0.00006404,0.00000501,-0.00002410,-0.00000230,
 0.00002453,-0.00002152,-0.00000245,0.00003448,0.00000541,0.00002039,0.
 00000185,-0.00002641,-0.00000074,-0.00064830,0.00065590,0.00073566,-0.
 00055027,-0.00090982,0.00012922,0.23732840,0.00005593,-0.00013304,0.00
 001224,-0.00006160,0.00018269,0.00001753,0.00003742,-0.00008107,-0.000
 02096,-0.00002682,0.00006836,-0.00003170,0.00010538,-0.00009177,0.0000
 0050,-0.00012300,0.00013894,-0.00018592,0.00047528,-0.00055160,-0.0001
 9004,-0.00003511,0.00162211,-0.00031832,0.01242284,-0.01103972,0.00885
 552,-0.00278691,0.00539084,0.00450788,0.07297860,-0.04571978,0.0984914
 4,-0.00002911,0.00006998,0.00005127,0.00001317,-0.00001286,-0.00000125
 ,0.00003125,-0.00002354,0.00000273,0.00004549,-0.00000996,-0.00002827,
 -0.00003222,0.00001169,0.00000462,0.00057434,-0.00045053,-0.00025102,-
 0.00108985,-0.00076496,-0.00045532,-0.08255507,0.05139419,-0.00014193,
 0.00020169,-0.00002658,0.00017865,-0.00024868,0.00000847,-0.00013480,0
 .00007471,0.00001640,0.00001971,-0.00018448,0.00008833,-0.00022031,0.0
 0020286,-0.00007233,0.00026073,-0.00022657,0.00060828,-0.00112699,-0.0
 0025192,-0.00013313,-0.00010682,-0.00022463,0.00221018,-0.03058916,0.0
 0842907,-0.02961510,0.00680918,0.00453717,-0.00405000,-0.18900698,0.09
 892507,-0.25997918,0.00007244,-0.00008199,-0.00009867,-0.00002876,0.00
 004019,0.00000277,-0.00007676,0.00005861,-0.00000279,-0.00004526,0.000
 01263,-0.00001468,-0.00000624,-0.00000923,-0.00000690,0.00106268,-0.00
 075566,0.00013036,0.00033517,-0.00003792,0.00031913,0.21274548,-0.1104
 6093,0.29061544\\0.00000003,0.00000050,-0.00000008,-0.00000135,-0.0000
 0020,-0.00000062,0.00000036,0.00000279,0.00000137,0.00000105,-0.000003
 15,-0.00000018,-0.00000072,-0.00000011,0.00000128,0.00000135,0.0000002
 9,-0.00000056,-0.00000089,-0.00000008,-0.00000025,0.00000011,-0.000000
 12,0.00000025,-0.00000105,0.00000192,-0.00000344,0.00000163,-0.0000006
 0,0.00000186,-0.00000034,-0.00000018,0.00000160,0.00000049,-0.00000102
 ,-0.00000028,-0.00000048,0.00000024,-0.00000040,0.00000060,0.00000022,
 0.00000004,-0.00000025,0.00000014,0.00000025,0.00000009,-0.00000011,-0
 .00000010,-0.00000009,0.00000008,-0.00000027,-0.00000020,-0.00000021,0
 .,-0.00000033,-0.00000041,-0.00000047\\\@


     SCHOPENHAUER'S LAW OF ENTROPY
 IF YOU PUT A SPOONFUL OF WINE IN A BARREL FULL
 OF SEWAGE, YOU GET SEWAGE.
 IF YOU PUT A SPOONFUL OF SEWAGE IN A BARREL FULL
 OF WINE, YOU GET SEWAGE.
 Job cpu time:       0 days  1 hours 56 minutes 36.5 seconds.
 Elapsed time:       0 days  0 hours 29 minutes  9.9 seconds.
 File lengths (MBytes):  RWF=    219 Int=      0 D2E=      0 Chk=     11 Scr=      1
 Normal termination of Gaussian 16 at Mon May 15 23:53:12 2023.
### All Done ###
